<event>
 5    0  0.5561624E-005  0.2907428E+03  0.7546771E-02  0.1089962E+00
         21   -1    0    0  502  501  0.00000000000E+00  0.00000000000E+00  0.15745011464E+04  0.15745011464E+04  0.00000000000E+00 0.  1.
         21   -1    0    0  501  502 -0.00000000000E+00 -0.00000000000E+00 -0.53687701537E+02  0.53687701537E+02  0.00000000000E+00 0.  1.
         25    1    1    2    0    0  0.11143758501E+02 -0.10555191404E+03  0.41143846975E+03  0.44291308888E+03  0.12500000000E+03 0.  0.
         25    1    1    2    0    0  0.56115760260E+02  0.20639033891E+02  0.12347341218E+03  0.18559534419E+03  0.12500000000E+03 0.  0.
         25    1    1    2    0    0 -0.67259518761E+02  0.84912880149E+02  0.98590156295E+03  0.99968041488E+03  0.12500000000E+03 0.  0.
</event>
<event>
 5    0  0.5561624E-005  0.2384026E+03  0.7546771E-02  0.1120862E+00
         21   -1    0    0  502  501  0.00000000000E+00  0.00000000000E+00  0.22983316494E+03  0.22983316494E+03  0.00000000000E+00 0. -1.
         21   -1    0    0  501  502 -0.00000000000E+00 -0.00000000000E+00 -0.24729156705E+03  0.24729156705E+03  0.00000000000E+00 0. -1.
         25    1    1    2    0    0 -0.72640701537E+02  0.14262485454E+02  0.46405971529E+02  0.15250771851E+03  0.12500000000E+03 0.  0.
         25    1    1    2    0    0  0.97538506608E+02 -0.19797248044E+02  0.34570800114E+02  0.16348037045E+03  0.12500000000E+03 0.  0.
         25    1    1    2    0    0 -0.24897805071E+02  0.55347625896E+01 -0.98435173754E+02  0.16113664303E+03  0.12500000000E+03 0.  0.
</event>
<event>
 5    0  0.5561624E-005  0.2662664E+03  0.7546771E-02  0.1103436E+00
         21   -1    0    0  502  501  0.00000000000E+00  0.00000000000E+00  0.27947029734E+03  0.27947029734E+03  0.00000000000E+00 0. -1.
         21   -1    0    0  501  502 -0.00000000000E+00 -0.00000000000E+00 -0.25368626188E+03  0.25368626188E+03  0.00000000000E+00 0. -1.
         25    1    1    2    0    0  0.40741873063E+02 -0.11522473295E+03 -0.69456803773E+01  0.17495679975E+03  0.12500000000E+03 0.  0.
         25    1    1    2    0    0  0.89185808644E+02  0.35205830918E+02  0.32937404420E+02  0.16094543052E+03  0.12500000000E+03 0.  0.
         25    1    1    2    0    0 -0.12992768171E+03  0.80018902027E+02 -0.20768858462E+00  0.19725432895E+03  0.12500000000E+03 0.  0.
</event>
<event>
 5    0  0.5561624E-005  0.3210443E+03  0.7546771E-02  0.1075170E+00
         21   -1    0    0  502  501  0.00000000000E+00  0.00000000000E+00  0.31546835942E+03  0.31546835942E+03  0.00000000000E+00 0. -1.
         21   -1    0    0  501  502 -0.00000000000E+00 -0.00000000000E+00 -0.32671874906E+03  0.32671874906E+03  0.00000000000E+00 0. -1.
         25    1    1    2    0    0 -0.16850102255E+02  0.10657311127E+03  0.21692612786E+02  0.16654525944E+03  0.12500000000E+03 0.  0.
         25    1    1    2    0    0  0.88346244973E+01  0.31770539301E+02  0.16100835232E+03  0.20648512604E+03  0.12500000000E+03 0.  0.
         25    1    1    2    0    0  0.80154777581E+01 -0.13834365057E+03 -0.19395135475E+03  0.26915672302E+03  0.12500000000E+03 0.  0.
</event>
<event>
 5    0  0.5561624E-005  0.2256718E+03  0.7546771E-02  0.1129724E+00
         21   -1    0    0  502  501  0.00000000000E+00  0.00000000000E+00  0.10271306886E+03  0.10271306886E+03  0.00000000000E+00 0. -1.
         21   -1    0    0  501  502 -0.00000000000E+00 -0.00000000000E+00 -0.49582563948E+03  0.49582563948E+03  0.00000000000E+00 0. -1.
         25    1    1    2    0    0  0.51757984476E+02  0.81036889339E+02 -0.15760576003E+03  0.22295838622E+03  0.12500000000E+03 0.  0.
         25    1    1    2    0    0 -0.58353478041E+02 -0.42399312964E+02 -0.18626002964E+03  0.23562815787E+03  0.12500000000E+03 0.  0.
         25    1    1    2    0    0  0.65954935645E+01 -0.38637576376E+02 -0.49246780956E+02  0.13995216425E+03  0.12500000000E+03 0.  0.
</event>
<event>
 5    0  0.5561624E-005  0.2484526E+03  0.7546771E-02  0.1114287E+00
         21   -1    0    0  502  501  0.00000000000E+00  0.00000000000E+00  0.40828031772E+03  0.40828031772E+03  0.00000000000E+00 0.  1.
         21   -1    0    0  501  502 -0.00000000000E+00 -0.00000000000E+00 -0.15119188559E+03  0.15119188559E+03  0.00000000000E+00 0.  1.
         25    1    1    2    0    0  0.57207856783E+02  0.55162767438E+02  0.38830605646E+02  0.15312898394E+03  0.12500000000E+03 0.  0.
         25    1    1    2    0    0  0.77428654305E+02 -0.10798691280E+02  0.57592099238E+02  0.15828347398E+03  0.12500000000E+03 0.  0.
         25    1    1    2    0    0 -0.13463651109E+03 -0.44364076158E+02  0.16066572724E+03  0.24805974538E+03  0.12500000000E+03 0.  0.
</event>
<event>
 5    0  0.5561624E-005  0.3418098E+03  0.7546771E-02  0.1066028E+00
         21   -1    0    0  502  501  0.00000000000E+00  0.00000000000E+00  0.37113177497E+03  0.37113177497E+03  0.00000000000E+00 0. -1.
         21   -1    0    0  501  502 -0.00000000000E+00 -0.00000000000E+00 -0.31480439001E+03  0.31480439001E+03  0.00000000000E+00 0. -1.
         25    1    1    2    0    0 -0.23448059047E+02 -0.16985831842E+03  0.74216657214E+01  0.21232461217E+03  0.12500000000E+03 0.  0.
         25    1    1    2    0    0 -0.89306835403E+02  0.15641428766E+02  0.15769909877E+03  0.22071332288E+03  0.12500000000E+03 0.  0.
         25    1    1    2    0    0  0.11275489445E+03  0.15421688966E+03 -0.10879337952E+03  0.25289822994E+03  0.12500000000E+03 0.  0.
</event>
<event>
 5    0  0.5561624E-005  0.2852241E+03  0.7546771E-02  0.1092869E+00
         21   -1    0    0  502  501  0.00000000000E+00  0.00000000000E+00  0.39678416978E+03  0.39678416978E+03  0.00000000000E+00 0. -1.
         21   -1    0    0  501  502 -0.00000000000E+00 -0.00000000000E+00 -0.20503034606E+03  0.20503034606E+03  0.00000000000E+00 0. -1.
         25    1    1    2    0    0 -0.65958446724E+02 -0.34660346550E+02  0.31372911912E+02  0.14886610064E+03  0.12500000000E+03 0.  0.
         25    1    1    2    0    0 -0.13013956010E+02  0.14136077271E+03 -0.27498188789E+02  0.19113707515E+03  0.12500000000E+03 0.  0.
         25    1    1    2    0    0  0.78972402734E+02 -0.10670042616E+03  0.18787910059E+03  0.26181134004E+03  0.12500000000E+03 0.  0.
</event>
<event>
 5    0  0.5561624E-005  0.3385374E+03  0.7546771E-02  0.1067421E+00
         21   -1    0    0  502  501  0.00000000000E+00  0.00000000000E+00  0.81981041888E+03  0.81981041888E+03  0.00000000000E+00 0. -1.
         21   -1    0    0  501  502 -0.00000000000E+00 -0.00000000000E+00 -0.13979769103E+03  0.13979769103E+03  0.00000000000E+00 0. -1.
         25    1    1    2    0    0 -0.98903089001E+02  0.33292520278E+02  0.99787535485E+02  0.19097844161E+03  0.12500000000E+03 0.  0.
         25    1    1    2    0    0  0.12898731179E+03  0.45825720586E+02  0.58893114153E+03  0.61741607748E+03  0.12500000000E+03 0.  0.
         25    1    1    2    0    0 -0.30084222788E+02 -0.79118240863E+02 -0.87059491648E+01  0.15121359082E+03  0.12500000000E+03 0.  0.
</event>
<event>
 5    0  0.6053328E-005  0.2831045E+03  0.7546771E-02  0.1094005E+00
         21   -1    0    0  502  501  0.00000000000E+00  0.00000000000E+00  0.77369359276E+03  0.77369359276E+03  0.00000000000E+00 0. -1.
         21   -1    0    0  501  502 -0.00000000000E+00 -0.00000000000E+00 -0.10359158430E+03  0.10359158430E+03  0.00000000000E+00 0. -1.
         25    1    1    2    0    0  0.75029643483E+02  0.10997869032E+03  0.26187711160E+03  0.31926381145E+03  0.12500000000E+03 0.  0.
         25    1    1    2    0    0 -0.61891826160E+02  0.51360112256E+02  0.27892517538E+03  0.31605808443E+03  0.12500000000E+03 0.  0.
         25    1    1    2    0    0 -0.13137817324E+02 -0.16133880258E+03  0.12929972148E+03  0.24196328117E+03  0.12500000000E+03 0.  0.
</event>
<event>
 5    0  0.5561624E-005  0.2336884E+03  0.7546771E-02  0.1124070E+00
         21   -1    0    0  502  501  0.00000000000E+00  0.00000000000E+00  0.10187004202E+03  0.10187004202E+03  0.00000000000E+00 0. -1.
         21   -1    0    0  501  502 -0.00000000000E+00 -0.00000000000E+00 -0.53607771819E+03  0.53607771819E+03  0.00000000000E+00 0. -1.
         25    1    1    2    0    0 -0.14021522839E+02 -0.17933761643E+02 -0.15796796078E+03  0.20272419575E+03  0.12500000000E+03 0.  0.
         25    1    1    2    0    0 -0.15091783809E+02 -0.92441936223E+02 -0.18768739666E+03  0.24418196570E+03  0.12500000000E+03 0.  0.
         25    1    1    2    0    0  0.29113306647E+02  0.11037569787E+03 -0.88552318738E+02  0.19104159876E+03  0.12500000000E+03 0.  0.
</event>
<event>
 5    0  0.5561624E-005  0.2406468E+03  0.7546771E-02  0.1119363E+00
         21   -1    0    0  502  501  0.00000000000E+00  0.00000000000E+00  0.95951836111E+02  0.95951836111E+02  0.00000000000E+00 0. -1.
         21   -1    0    0  501  502 -0.00000000000E+00 -0.00000000000E+00 -0.60354098204E+03  0.60354098204E+03  0.00000000000E+00 0. -1.
         25    1    1    2    0    0  0.75933141734E+02 -0.79379103034E+02 -0.84072428453E+02  0.18644049248E+03  0.12500000000E+03 0.  0.
         25    1    1    2    0    0 -0.17400113300E+02  0.43982256239E+02 -0.12839084984E+03  0.18532785309E+03  0.12500000000E+03 0.  0.
         25    1    1    2    0    0 -0.58533028434E+02  0.35396846795E+02 -0.29512586763E+03  0.32772447258E+03  0.12500000000E+03 0.  0.
</event>
<event>
 5    0  0.5561624E-005  0.2653245E+03  0.7546771E-02  0.1103986E+00
         21   -1    0    0  502  501  0.00000000000E+00  0.00000000000E+00  0.34487784166E+02  0.34487784166E+02  0.00000000000E+00 0. -1.
         21   -1    0    0  501  502 -0.00000000000E+00 -0.00000000000E+00 -0.20412183415E+04  0.20412183415E+04  0.00000000000E+00 0. -1.
         25    1    1    2    0    0  0.56197907136E+02  0.21924098185E+02 -0.41959170629E+03  0.44195143493E+03  0.12500000000E+03 0.  0.
         25    1    1    2    0    0  0.97922496651E+02 -0.25147671766E+01 -0.10265947285E+04  0.10388055044E+04  0.12500000000E+03 0.  0.
         25    1    1    2    0    0 -0.15412040379E+03 -0.19409331008E+02 -0.56054412251E+03  0.59494918630E+03  0.12500000000E+03 0.  0.
</event>
<event>
 5    0  0.5561624E-005  0.3276493E+03  0.7546771E-02  0.1072182E+00
         21   -1    0    0  502  501  0.00000000000E+00  0.00000000000E+00  0.39066289178E+03  0.39066289178E+03  0.00000000000E+00 0.  1.
         21   -1    0    0  501  502 -0.00000000000E+00 -0.00000000000E+00 -0.27479967316E+03  0.27479967316E+03  0.00000000000E+00 0.  1.
         25    1    1    2    0    0  0.70717899739E+02 -0.89553886476E+02  0.22554277328E+03  0.28198486219E+03  0.12500000000E+03 0.  0.
         25    1    1    2    0    0  0.28286527589E+02 -0.64519428198E+02 -0.63889849263E+02  0.15706621883E+03  0.12500000000E+03 0.  0.
         25    1    1    2    0    0 -0.99004427328E+02  0.15407331467E+03 -0.45789705399E+02  0.22641148391E+03  0.12500000000E+03 0.  0.
</event>
<event>
 5    0  0.5561624E-005  0.3313739E+03  0.7546771E-02  0.1070531E+00
         21   -1    0    0  502  501  0.00000000000E+00  0.00000000000E+00  0.66629220920E+03  0.66629220920E+03  0.00000000000E+00 0.  1.
         21   -1    0    0  501  502 -0.00000000000E+00 -0.00000000000E+00 -0.16480553169E+03  0.16480553169E+03  0.00000000000E+00 0.  1.
         25    1    1    2    0    0  0.79798390557E+02  0.48815924498E+02 -0.30757165500E+02  0.15912818999E+03  0.12500000000E+03 0.  0.
         25    1    1    2    0    0 -0.14807476827E+03 -0.10608058233E+03  0.17069165862E+03  0.27917712884E+03  0.12500000000E+03 0.  0.
         25    1    1    2    0    0  0.68276377711E+02  0.57264657830E+02  0.36155218439E+03  0.39279242205E+03  0.12500000000E+03 0.  0.
</event>
<event>
 5    0  0.5561624E-005  0.6170651E+03  0.7546771E-02  0.9870621E-01
         21   -1    0    0  502  501  0.00000000000E+00  0.00000000000E+00  0.61318517774E+03  0.61318517774E+03  0.00000000000E+00 0. -1.
         21   -1    0    0  501  502 -0.00000000000E+00 -0.00000000000E+00 -0.62096947577E+03  0.62096947577E+03  0.00000000000E+00 0. -1.
         25    1    1    2    0    0  0.27930478800E+03  0.23107986362E+03 -0.28983927860E+03  0.48066711494E+03  0.12500000000E+03 0.  0.
         25    1    1    2    0    0 -0.16594517618E+03 -0.19422640201E+03  0.43703447283E+03  0.52142672273E+03  0.12500000000E+03 0.  0.
         25    1    1    2    0    0 -0.11335961181E+03 -0.36853461619E+02 -0.15497949226E+03  0.23206081583E+03  0.12500000000E+03 0.  0.
</event>
<event>
 5    0  0.6541371E-005  0.2947188E+03  0.7546771E-02  0.1087911E+00
         21   -1    0    0  502  501  0.00000000000E+00  0.00000000000E+00  0.10978052961E+04  0.10978052961E+04  0.00000000000E+00 0. -1.
         21   -1    0    0  501  502 -0.00000000000E+00 -0.00000000000E+00 -0.79120753937E+02  0.79120753937E+02  0.00000000000E+00 0. -1.
         25    1    1    2    0    0  0.12692141081E+02 -0.48384582952E+00  0.48491724075E+03  0.50093018967E+03  0.12500000000E+03 0.  0.
         25    1    1    2    0    0  0.72071718794E+02 -0.10733982286E+03  0.10368091463E+03  0.20758348268E+03  0.12500000000E+03 0.  0.
         25    1    1    2    0    0 -0.84763859875E+02  0.10782366869E+03  0.43008638683E+03  0.46841237772E+03  0.12500000000E+03 0.  0.
</event>
<event>
 5    0  0.5561624E-005  0.3088823E+03  0.7546771E-02  0.1080883E+00
         21   -1    0    0  502  501  0.00000000000E+00  0.00000000000E+00  0.13196632816E+03  0.13196632816E+03  0.00000000000E+00 0. -1.
         21   -1    0    0  501  502 -0.00000000000E+00 -0.00000000000E+00 -0.72297434629E+03  0.72297434629E+03  0.00000000000E+00 0. -1.
         25    1    1    2    0    0  0.44845665190E+02 -0.11892399189E+03 -0.37158232376E+03  0.41213162080E+03  0.12500000000E+03 0.  0.
         25    1    1    2    0    0  0.47779352279E+02  0.11873330169E+03 -0.22460384554E+03  0.28714517385E+03  0.12500000000E+03 0.  0.
         25    1    1    2    0    0 -0.92625017469E+02  0.19069020055E+00  0.51781511621E+01  0.15566387980E+03  0.12500000000E+03 0.  0.
</event>
<event>
 5    0  0.5913097E-005  0.3110325E+03  0.7546771E-02  0.1079852E+00
         21   -1    0    0  502  501  0.00000000000E+00  0.00000000000E+00  0.40622001985E+03  0.40622001985E+03  0.00000000000E+00 0.  1.
         21   -1    0    0  501  502 -0.00000000000E+00 -0.00000000000E+00 -0.23814984447E+03  0.23814984447E+03  0.00000000000E+00 0.  1.
         25    1    1    2    0    0 -0.27823344825E+02 -0.34284978133E+02  0.16279186474E+03  0.20994234797E+03  0.12500000000E+03 0.  0.
         25    1    1    2    0    0  0.14601832822E+03  0.48319116487E+02 -0.11018599281E+03  0.22676428777E+03  0.12500000000E+03 0.  0.
         25    1    1    2    0    0 -0.11819498340E+03 -0.14034138354E+02  0.11546430344E+03  0.20766322859E+03  0.12500000000E+03 0.  0.
</event>
<event>
 5    0  0.5561624E-005  0.3216860E+03  0.7546771E-02  0.1074876E+00
         21   -1    0    0  502  501  0.00000000000E+00  0.00000000000E+00  0.68751311217E+02  0.68751311217E+02  0.00000000000E+00 0. -1.
         21   -1    0    0  501  502 -0.00000000000E+00 -0.00000000000E+00 -0.15051623247E+04  0.15051623247E+04  0.00000000000E+00 0. -1.
         25    1    1    2    0    0 -0.67753659714E+02  0.59569673755E+02 -0.49379238973E+03  0.51729588109E+03  0.12500000000E+03 0.  0.
         25    1    1    2    0    0  0.12301026417E+03  0.79889103226E+02 -0.77710927737E+03  0.80064825165E+03  0.12500000000E+03 0.  0.
         25    1    1    2    0    0 -0.55256604455E+02 -0.13945877698E+03 -0.16550934638E+03  0.25596950317E+03  0.12500000000E+03 0.  0.
</event>
<event>
 5    0  0.5561624E-005  0.2099632E+03  0.7546771E-02  0.1141595E+00
         21   -1    0    0  502  501  0.00000000000E+00  0.00000000000E+00  0.17504773946E+04  0.17504773946E+04  0.00000000000E+00 0.  1.
         21   -1    0    0  501  502 -0.00000000000E+00 -0.00000000000E+00 -0.25184297406E+02  0.25184297406E+02  0.00000000000E+00 0.  1.
         25    1    1    2    0    0  0.22597831170E+02  0.62786983438E+01  0.34026604288E+03  0.36325757248E+03  0.12500000000E+03 0.  0.
         25    1    1    2    0    0 -0.14686888088E+01  0.60109295898E+01  0.97636952755E+03  0.98435803581E+03  0.12500000000E+03 0.  0.
         25    1    1    2    0    0 -0.21129142361E+02 -0.12289627934E+02  0.40865752680E+03  0.42804608376E+03  0.12500000000E+03 0.  0.
</event>
<event>
 5    0  0.6544714E-005  0.2752495E+03  0.7546771E-02  0.1098312E+00
         21   -1    0    0  502  501  0.00000000000E+00  0.00000000000E+00  0.15145669764E+03  0.15145669764E+03  0.00000000000E+00 0.  1.
         21   -1    0    0  501  502 -0.00000000000E+00 -0.00000000000E+00 -0.50022420327E+03  0.50022420327E+03  0.00000000000E+00 0.  1.
         25    1    1    2    0    0  0.14800228214E+03 -0.44184975929E+02 -0.25104717985E+03  0.32016663494E+03  0.12500000000E+03 0.  0.
         25    1    1    2    0    0 -0.24735731251E+02  0.36418198596E+02 -0.45234656044E+01  0.13260317994E+03  0.12500000000E+03 0.  0.
         25    1    1    2    0    0 -0.12326655089E+03  0.77667773331E+01 -0.93196860167E+02  0.19891108603E+03  0.12500000000E+03 0.  0.
</event>
<event>
 5    0  0.5561624E-005  0.5240559E+03  0.7546771E-02  0.1007684E+00
         21   -1    0    0  502  501  0.00000000000E+00  0.00000000000E+00  0.53942845763E+03  0.53942845763E+03  0.00000000000E+00 0. -1.
         21   -1    0    0  501  502 -0.00000000000E+00 -0.00000000000E+00 -0.50912149979E+03  0.50912149979E+03  0.00000000000E+00 0. -1.
         25    1    1    2    0    0  0.32833589330E+03 -0.30148348015E+03 -0.33410493298E+02  0.46415300138E+03  0.12500000000E+03 0.  0.
         25    1    1    2    0    0 -0.51380808193E+02 -0.16698938233E+02  0.47193802814E+02  0.14412181311E+03  0.12500000000E+03 0.  0.
         25    1    1    2    0    0 -0.27695508510E+03  0.31818241838E+03  0.16523648322E+02  0.44027514294E+03  0.12500000000E+03 0.  0.
</event>
<event>
 5    0  0.5561624E-005  0.3367227E+03  0.7546771E-02  0.1068200E+00
         21   -1    0    0  502  501  0.00000000000E+00  0.00000000000E+00  0.89024911854E+03  0.89024911854E+03  0.00000000000E+00 0.  1.
         21   -1    0    0  501  502 -0.00000000000E+00 -0.00000000000E+00 -0.12736002576E+03  0.12736002576E+03  0.00000000000E+00 0.  1.
         25    1    1    2    0    0 -0.29838500988E+02  0.10363632750E+03  0.90737865619E+02  0.18838573400E+03  0.12500000000E+03 0.  0.
         25    1    1    2    0    0 -0.38081833517E+02  0.70633538289E+02  0.55707060053E+03  0.57653445409E+03  0.12500000000E+03 0.  0.
         25    1    1    2    0    0  0.67920334505E+02 -0.17426986579E+03  0.11508062663E+03  0.25268895620E+03  0.12500000000E+03 0.  0.
</event>
<event>
 5    0  0.5561624E-005  0.3906174E+03  0.7546771E-02  0.1047078E+00
         21   -1    0    0  502  501  0.00000000000E+00  0.00000000000E+00  0.64076481142E+03  0.64076481142E+03  0.00000000000E+00 0. -1.
         21   -1    0    0  501  502 -0.00000000000E+00 -0.00000000000E+00 -0.23812478351E+03  0.23812478351E+03  0.00000000000E+00 0. -1.
         25    1    1    2    0    0  0.16381779152E+03  0.13402837900E+03  0.24060895768E+03  0.34397317586E+03  0.12500000000E+03 0.  0.
         25    1    1    2    0    0 -0.21494557799E+03  0.44877505791E+02  0.17971733422E+03  0.31006275533E+03  0.12500000000E+03 0.  0.
         25    1    1    2    0    0  0.51127786471E+02 -0.17890588479E+03 -0.17686263997E+02  0.22485366374E+03  0.12500000000E+03 0.  0.
</event>
<event>
 5    0  0.5561624E-005  0.2738589E+03  0.7546771E-02  0.1099091E+00
         21   -1    0    0  502  501  0.00000000000E+00  0.00000000000E+00  0.15285695502E+03  0.15285695502E+03  0.00000000000E+00 0. -1.
         21   -1    0    0  501  502 -0.00000000000E+00 -0.00000000000E+00 -0.49064638597E+03  0.49064638597E+03  0.00000000000E+00 0. -1.
         25    1    1    2    0    0 -0.18875199765E+02 -0.16408030268E+03 -0.24955922234E+03  0.32431994134E+03  0.12500000000E+03 0.  0.
         25    1    1    2    0    0 -0.16434545717E+02  0.80726403582E+02 -0.64598489691E+02  0.16304849401E+03  0.12500000000E+03 0.  0.
         25    1    1    2    0    0  0.35309745482E+02  0.83353899102E+02 -0.23631718912E+02  0.15613490564E+03  0.12500000000E+03 0.  0.
</event>
<event>
 5    0  0.5561624E-005  0.3467026E+03  0.7546771E-02  0.1063977E+00
         21   -1    0    0  502  501  0.00000000000E+00  0.00000000000E+00  0.12119266027E+03  0.12119266027E+03  0.00000000000E+00 0. -1.
         21   -1    0    0  501  502 -0.00000000000E+00 -0.00000000000E+00 -0.99183121165E+03  0.99183121165E+03  0.00000000000E+00 0. -1.
         25    1    1    2    0    0  0.89163726094E+02 -0.15689365294E+03 -0.18023281934E+03  0.28403284591E+03  0.12500000000E+03 0.  0.
         25    1    1    2    0    0  0.11706557347E+03  0.42890727444E+02 -0.38466855214E+03  0.42324798641E+03  0.12500000000E+03 0.  0.
         25    1    1    2    0    0 -0.20622929956E+03  0.11400292550E+03 -0.30573717989E+03  0.40574303961E+03  0.12500000000E+03 0.  0.
</event>
<event>
 5    0  0.5561624E-005  0.2957472E+03  0.7546771E-02  0.1087386E+00
         21   -1    0    0  502  501  0.00000000000E+00  0.00000000000E+00  0.86807624669E+03  0.86807624669E+03  0.00000000000E+00 0.  1.
         21   -1    0    0  501  502 -0.00000000000E+00 -0.00000000000E+00 -0.10075890213E+03  0.10075890213E+03  0.00000000000E+00 0.  1.
         25    1    1    2    0    0  0.14416083978E+03 -0.64102564379E+02  0.46464663121E+03  0.50637237127E+03  0.12500000000E+03 0.  0.
         25    1    1    2    0    0 -0.95337955753E+02 -0.42096693401E+02  0.21652855417E+03  0.27087095115E+03  0.12500000000E+03 0.  0.
         25    1    1    2    0    0 -0.48822884027E+02  0.10619925778E+03  0.86142159173E+02  0.19159182640E+03  0.12500000000E+03 0.  0.
</event>
<event>
 5    0  0.5561624E-005  0.2484474E+03  0.7546771E-02  0.1114290E+00
         21   -1    0    0  502  501  0.00000000000E+00  0.00000000000E+00  0.65636260420E+02  0.65636260420E+02  0.00000000000E+00 0. -1.
         21   -1    0    0  501  502 -0.00000000000E+00 -0.00000000000E+00 -0.94042681714E+03  0.94042681714E+03  0.00000000000E+00 0. -1.
         25    1    1    2    0    0 -0.78068046579E+02  0.25670447513E+02 -0.48809981431E+03  0.51050956945E+03  0.12500000000E+03 0.  0.
         25    1    1    2    0    0  0.57983354962E+01  0.18193911428E+02 -0.28989509313E+03  0.31627330607E+03  0.12500000000E+03 0.  0.
         25    1    1    2    0    0  0.72269711083E+02 -0.43864358941E+02 -0.96795649279E+02  0.17928020204E+03  0.12500000000E+03 0.  0.
</event>
<event>
 5    0  0.5561624E-005  0.2061104E+03  0.7546771E-02  0.1144684E+00
         21   -1    0    0  502  501  0.00000000000E+00  0.00000000000E+00  0.26561828582E+03  0.26561828582E+03  0.00000000000E+00 0. -1.
         21   -1    0    0  501  502 -0.00000000000E+00 -0.00000000000E+00 -0.15993439449E+03  0.15993439449E+03  0.00000000000E+00 0. -1.
         25    1    1    2    0    0  0.17820646682E+02 -0.20789209643E+02  0.34597398723E+02  0.13255846515E+03  0.12500000000E+03 0.  0.
         25    1    1    2    0    0 -0.66129631551E+02  0.44176968009E+02  0.39794067439E+02  0.15340567289E+03  0.12500000000E+03 0.  0.
         25    1    1    2    0    0  0.48308984869E+02 -0.23387758366E+02  0.31292425167E+02  0.13958854227E+03  0.12500000000E+03 0.  0.
</event>
<event>
 5    0  0.5561624E-005  0.2404536E+03  0.7546771E-02  0.1119491E+00
         21   -1    0    0  502  501  0.00000000000E+00  0.00000000000E+00  0.17160272373E+02  0.17160272373E+02  0.00000000000E+00 0.  1.
         21   -1    0    0  501  502 -0.00000000000E+00 -0.00000000000E+00 -0.33692906798E+04  0.33692906798E+04  0.00000000000E+00 0.  1.
         25    1    1    2    0    0  0.58480645155E+02  0.88718919896E+02 -0.96757338975E+03  0.98138386840E+03  0.12500000000E+03 0.  0.
         25    1    1    2    0    0  0.59148141718E+01 -0.98335659272E+02 -0.91221538023E+03  0.92599502528E+03  0.12500000000E+03 0.  0.
         25    1    1    2    0    0 -0.64395459327E+02  0.96167393759E+01 -0.14723416375E+04  0.14790720585E+04  0.12500000000E+03 0.  0.
</event>
<event>
 5    0  0.5561624E-005  0.3280844E+03  0.7546771E-02  0.1071988E+00
         21   -1    0    0  502  501  0.00000000000E+00  0.00000000000E+00  0.66744412501E+02  0.66744412501E+02  0.00000000000E+00 0.  1.
         21   -1    0    0  501  502 -0.00000000000E+00 -0.00000000000E+00 -0.16127102923E+04  0.16127102923E+04  0.00000000000E+00 0.  1.
         25    1    1    2    0    0  0.16598536392E+03 -0.14015342220E+03 -0.84847361400E+03  0.88471837126E+03  0.12500000000E+03 0.  0.
         25    1    1    2    0    0  0.11929045836E+02  0.91499478089E+02 -0.33436772371E+03  0.36870209015E+03  0.12500000000E+03 0.  0.
         25    1    1    2    0    0 -0.17791440976E+03  0.48653944108E+02 -0.36312454214E+03  0.42603424344E+03  0.12500000000E+03 0.  0.
</event>
<event>
 5    0  0.5561624E-005  0.3455192E+03  0.7546771E-02  0.1064469E+00
         21   -1    0    0  502  501  0.00000000000E+00  0.00000000000E+00  0.90332816396E+02  0.90332816396E+02  0.00000000000E+00 0.  1.
         21   -1    0    0  501  502 -0.00000000000E+00 -0.00000000000E+00 -0.13215961285E+04  0.13215961285E+04  0.00000000000E+00 0.  1.
         25    1    1    2    0    0 -0.71412755704E+02  0.23612781223E+03 -0.50243142854E+03  0.57351413738E+03  0.12500000000E+03 0.  0.
         25    1    1    2    0    0 -0.16214201290E+02 -0.18301220157E+03 -0.25744461552E+03  0.34008689523E+03  0.12500000000E+03 0.  0.
         25    1    1    2    0    0  0.87626956994E+02 -0.53115610657E+02 -0.47138726802E+03  0.49832791226E+03  0.12500000000E+03 0.  0.
</event>
<event>
 5    0  0.5561624E-005  0.2752215E+03  0.7546771E-02  0.1098328E+00
         21   -1    0    0  502  501  0.00000000000E+00  0.00000000000E+00  0.22556430153E+03  0.22556430153E+03  0.00000000000E+00 0.  1.
         21   -1    0    0  501  502 -0.00000000000E+00 -0.00000000000E+00 -0.33581067020E+03  0.33581067020E+03  0.00000000000E+00 0.  1.
         25    1    1    2    0    0  0.65427564902E+02 -0.57874087979E+02 -0.21150866438E+03  0.26075101421E+03  0.12500000000E+03 0.  0.
         25    1    1    2    0    0  0.53628502753E+01 -0.61046073474E+00  0.24211717940E+02  0.12743759301E+03  0.12500000000E+03 0.  0.
         25    1    1    2    0    0 -0.70790415177E+02  0.58484548713E+02  0.77050577758E+02  0.17318636451E+03  0.12500000000E+03 0.  0.
</event>
<event>
 5    0  0.5561624E-005  0.3472553E+03  0.7546771E-02  0.1063747E+00
         21   -1    0    0  502  501  0.00000000000E+00  0.00000000000E+00  0.23987639209E+03  0.23987639209E+03  0.00000000000E+00 0.  1.
         21   -1    0    0  501  502 -0.00000000000E+00 -0.00000000000E+00 -0.50270150875E+03  0.50270150875E+03  0.00000000000E+00 0.  1.
         25    1    1    2    0    0 -0.11457674735E+03 -0.14307605799E+03 -0.30873040931E+02  0.22400163852E+03  0.12500000000E+03 0.  0.
         25    1    1    2    0    0 -0.17183510699E+00  0.44289784294E+02  0.76378829633E+02  0.15303705478E+03  0.12500000000E+03 0.  0.
         25    1    1    2    0    0  0.11474858246E+03  0.98786273693E+02 -0.30833090536E+03  0.36553920754E+03  0.12500000000E+03 0.  0.
</event>
<event>
 5    0  0.5561624E-005  0.2789071E+03  0.7546771E-02  0.1096287E+00
         21   -1    0    0  502  501  0.00000000000E+00  0.00000000000E+00  0.90643068489E+02  0.90643068489E+02  0.00000000000E+00 0.  1.
         21   -1    0    0  501  502 -0.00000000000E+00 -0.00000000000E+00 -0.85819241102E+03  0.85819241102E+03  0.00000000000E+00 0.  1.
         25    1    1    2    0    0  0.62593412563E+02  0.11850856769E+03 -0.13873104157E+03  0.22985542806E+03  0.12500000000E+03 0.  0.
         25    1    1    2    0    0 -0.13227027126E+03 -0.53422542658E+02 -0.30808332275E+03  0.36178685228E+03  0.12500000000E+03 0.  0.
         25    1    1    2    0    0  0.69676858692E+02 -0.65086025033E+02 -0.32073497820E+03  0.35719319917E+03  0.12500000000E+03 0.  0.
</event>
<event>
 5    0  0.5561624E-005  0.4291502E+03  0.7546771E-02  0.1034129E+00
         21   -1    0    0  502  501  0.00000000000E+00  0.00000000000E+00  0.75054714183E+02  0.75054714183E+02  0.00000000000E+00 0.  1.
         21   -1    0    0  501  502 -0.00000000000E+00 -0.00000000000E+00 -0.24538087960E+04  0.24538087960E+04  0.00000000000E+00 0.  1.
         25    1    1    2    0    0  0.17705537219E+03 -0.24880137670E+02 -0.37423111891E+03  0.43317612634E+03  0.12500000000E+03 0.  0.
         25    1    1    2    0    0 -0.47175659688E+02  0.13823439229E+03 -0.19554919378E+03  0.27422395458E+03  0.12500000000E+03 0.  0.
         25    1    1    2    0    0 -0.12987971250E+03 -0.11335425462E+03 -0.18089737691E+04  0.18214634293E+04  0.12500000000E+03 0.  0.
</event>
<event>
 5    0  0.5561624E-005  0.5359415E+03  0.7546771E-02  0.1004801E+00
         21   -1    0    0  502  501  0.00000000000E+00  0.00000000000E+00  0.18118949794E+03  0.18118949794E+03  0.00000000000E+00 0.  1.
         21   -1    0    0  501  502 -0.00000000000E+00 -0.00000000000E+00 -0.15852647211E+04  0.15852647211E+04  0.00000000000E+00 0.  1.
         25    1    1    2    0    0  0.25926080547E+02 -0.19701522367E+03 -0.24957652399E+03  0.34263771150E+03  0.12500000000E+03 0.  0.
         25    1    1    2    0    0 -0.22751929947E+03  0.42901299260E+03 -0.70336155630E+03  0.86380533590E+03  0.12500000000E+03 0.  0.
         25    1    1    2    0    0  0.20159321892E+03 -0.23199776893E+03 -0.45113714288E+03  0.56001117166E+03  0.12500000000E+03 0.  0.
</event>
<event>
 5    0  0.5561624E-005  0.2991669E+03  0.7546771E-02  0.1085658E+00
         21   -1    0    0  502  501  0.00000000000E+00  0.00000000000E+00  0.57920637442E+03  0.57920637442E+03  0.00000000000E+00 0. -1.
         21   -1    0    0  501  502 -0.00000000000E+00 -0.00000000000E+00 -0.15452320302E+03  0.15452320302E+03  0.00000000000E+00 0. -1.
         25    1    1    2    0    0  0.85777064958E+02  0.34476726591E+02  0.29393124705E+03  0.33251605607E+03  0.12500000000E+03 0.  0.
         25    1    1    2    0    0  0.17319132258E+02  0.75073420559E+02  0.14336510222E+03  0.20521823347E+03  0.12500000000E+03 0.  0.
         25    1    1    2    0    0 -0.10309619722E+03 -0.10955014715E+03 -0.12613177871E+02  0.19599528790E+03  0.12500000000E+03 0.  0.
</event>
<event>
 5    0  0.5561624E-005  0.5156092E+03  0.7546771E-02  0.1009783E+00
         21   -1    0    0  502  501  0.00000000000E+00  0.00000000000E+00  0.26288531266E+03  0.26288531266E+03  0.00000000000E+00 0.  1.
         21   -1    0    0  501  502 -0.00000000000E+00 -0.00000000000E+00 -0.10112882271E+04  0.10112882271E+04  0.00000000000E+00 0.  1.
         25    1    1    2    0    0  0.80245417413E+02  0.33692774208E+02  0.14200267623E+03  0.20824094244E+03  0.12500000000E+03 0.  0.
         25    1    1    2    0    0 -0.17065936576E+03  0.53296761571E+02 -0.73731072168E+02  0.23027469448E+03  0.12500000000E+03 0.  0.
         25    1    1    2    0    0  0.90413948350E+02 -0.86989535778E+02 -0.81667451853E+03  0.83565790285E+03  0.12500000000E+03 0.  0.
</event>
<event>
 5    0  0.5561624E-005  0.3081095E+03  0.7546771E-02  0.1081256E+00
         21   -1    0    0  502  501  0.00000000000E+00  0.00000000000E+00  0.98274907915E+03  0.98274907915E+03  0.00000000000E+00 0.  1.
         21   -1    0    0  501  502 -0.00000000000E+00 -0.00000000000E+00 -0.96597889623E+02  0.96597889623E+02  0.00000000000E+00 0.  1.
         25    1    1    2    0    0  0.14935475325E+02  0.28519129090E+02  0.26699300069E+03  0.29655804080E+03  0.12500000000E+03 0.  0.
         25    1    1    2    0    0  0.15422969043E+03 -0.12616921912E+03  0.39814314605E+03  0.46243749200E+03  0.12500000000E+03 0.  0.
         25    1    1    2    0    0 -0.16916516576E+03  0.97650090026E+02  0.22101504279E+03  0.32035143597E+03  0.12500000000E+03 0.  0.
</event>
<event>
 5    0  0.5561624E-005  0.3299222E+03  0.7546771E-02  0.1071171E+00
         21   -1    0    0  502  501  0.00000000000E+00  0.00000000000E+00  0.95558530943E+02  0.95558530943E+02  0.00000000000E+00 0. -1.
         21   -1    0    0  501  502 -0.00000000000E+00 -0.00000000000E+00 -0.11390786151E+04  0.11390786151E+04  0.00000000000E+00 0. -1.
         25    1    1    2    0    0 -0.69748059863E+02 -0.95969468567E+02 -0.18391346388E+03  0.25203986381E+03  0.12500000000E+03 0.  0.
         25    1    1    2    0    0 -0.81660916565E+02  0.68314244587E+02 -0.88745819241E+02  0.18664447953E+03  0.12500000000E+03 0.  0.
         25    1    1    2    0    0  0.15140897643E+03  0.27655223980E+02 -0.77086080104E+03  0.79595280271E+03  0.12500000000E+03 0.  0.
</event>
<event>
 5    0  0.5561624E-005  0.2671806E+03  0.7546771E-02  0.1102904E+00
         21   -1    0    0  502  501  0.00000000000E+00  0.00000000000E+00  0.39060832321E+03  0.39060832321E+03  0.00000000000E+00 0.  1.
         21   -1    0    0  501  502 -0.00000000000E+00 -0.00000000000E+00 -0.18275465444E+03  0.18275465444E+03  0.00000000000E+00 0.  1.
         25    1    1    2    0    0 -0.12089847955E+03 -0.62414939381E+02  0.14218182279E+03  0.23313673616E+03  0.12500000000E+03 0.  0.
         25    1    1    2    0    0  0.58655537816E+02  0.10103521035E+03  0.89989987539E+02  0.19331783080E+03  0.12500000000E+03 0.  0.
         25    1    1    2    0    0  0.62242941733E+02 -0.38620270966E+02 -0.24318141562E+02  0.14690841070E+03  0.12500000000E+03 0.  0.
</event>
<event>
 5    0  0.5561624E-005  0.3448654E+03  0.7546771E-02  0.1064742E+00
         21   -1    0    0  502  501  0.00000000000E+00  0.00000000000E+00  0.23256241723E+03  0.23256241723E+03  0.00000000000E+00 0.  1.
         21   -1    0    0  501  502 -0.00000000000E+00 -0.00000000000E+00 -0.51139876316E+03  0.51139876316E+03  0.00000000000E+00 0.  1.
         25    1    1    2    0    0  0.60630918293E+02 -0.15815175197E+02 -0.11557087613E+03  0.18140522437E+03  0.12500000000E+03 0.  0.
         25    1    1    2    0    0 -0.89219667360E+02 -0.15544874526E+03  0.85317532696E+02  0.23458163362E+03  0.12500000000E+03 0.  0.
         25    1    1    2    0    0  0.28588749067E+02  0.17126392046E+03 -0.24858300250E+03  0.32797432240E+03  0.12500000000E+03 0.  0.
</event>
<event>
 5    0  0.5561624E-005  0.3888408E+03  0.7546771E-02  0.1047714E+00
         21   -1    0    0  502  501  0.00000000000E+00  0.00000000000E+00  0.89399420534E+02  0.89399420534E+02  0.00000000000E+00 0.  1.
         21   -1    0    0  501  502 -0.00000000000E+00 -0.00000000000E+00 -0.16912545233E+04  0.16912545233E+04  0.00000000000E+00 0.  1.
         25    1    1    2    0    0 -0.25328301686E+02 -0.13734783004E+03 -0.20304596026E+03  0.27633061948E+03  0.12500000000E+03 0.  0.
         25    1    1    2    0    0  0.17051119346E+03 -0.83973943573E+02 -0.87691946541E+03  0.90594615685E+03  0.12500000000E+03 0.  0.
         25    1    1    2    0    0 -0.14518289177E+03  0.22132177361E+03 -0.52188967709E+03  0.59837716751E+03  0.12500000000E+03 0.  0.
</event>
<event>
 5    0  0.5561624E-005  0.3895522E+03  0.7546771E-02  0.1047459E+00
         21   -1    0    0  502  501  0.00000000000E+00  0.00000000000E+00  0.12294557516E+03  0.12294557516E+03  0.00000000000E+00 0. -1.
         21   -1    0    0  501  502 -0.00000000000E+00 -0.00000000000E+00 -0.12342936138E+04  0.12342936138E+04  0.00000000000E+00 0.  1.
         25    1    1    2    0    0  0.59919102600E+02  0.59030099938E+02 -0.10044583922E+03  0.18107793397E+03  0.12500000000E+03 0.  0.
         25    1    1    2    0    0 -0.65469915467E+02  0.21814299598E+03 -0.26719501306E+03  0.37268062940E+03  0.12500000000E+03 0.  0.
         25    1    1    2    0    0  0.55508128673E+01 -0.27717309592E+03 -0.74370718635E+03  0.80348062557E+03  0.12500000000E+03 0.  0.
</event>
<event>
 5    0  0.5826775E-005  0.2928213E+03  0.7546771E-02  0.1088885E+00
         21   -1    0    0  502  501  0.00000000000E+00  0.00000000000E+00  0.29135866253E+03  0.29135866253E+03  0.00000000000E+00 0. -1.
         21   -1    0    0  501  502 -0.00000000000E+00 -0.00000000000E+00 -0.29429118808E+03  0.29429118808E+03  0.00000000000E+00 0. -1.
         25    1    1    2    0    0  0.89063603067E+02 -0.72630317595E+02 -0.77215683743E+02  0.18653350970E+03  0.12500000000E+03 0.  0.
         25    1    1    2    0    0 -0.16535080315E+03  0.10026135255E+03  0.94173283149E+02  0.24877064573E+03  0.12500000000E+03 0.  0.
         25    1    1    2    0    0  0.76287200083E+02 -0.27631034958E+02 -0.19890124956E+02  0.15034569518E+03  0.12500000000E+03 0.  0.
</event>
<event>
 5    0  0.5561624E-005  0.2034404E+03  0.7546771E-02  0.1146868E+00
         21   -1    0    0  502  501  0.00000000000E+00  0.00000000000E+00  0.16319574712E+03  0.16319574712E+03  0.00000000000E+00 0. -1.
         21   -1    0    0  501  502 -0.00000000000E+00 -0.00000000000E+00 -0.25360950099E+03  0.25360950099E+03  0.00000000000E+00 0. -1.
         25    1    1    2    0    0  0.45632292781E+02  0.35563281536E+02 -0.70376125803E+02  0.15467660528E+03  0.12500000000E+03 0.  0.
         25    1    1    2    0    0 -0.29804854431E+02 -0.98378290107E+01 -0.32540617826E+02  0.13292480595E+03  0.12500000000E+03 0.  0.
         25    1    1    2    0    0 -0.15827438350E+02 -0.25725452525E+02  0.12502989754E+02  0.12920383688E+03  0.12500000000E+03 0.  0.
</event>
<event>
 5    0  0.5561624E-005  0.2801091E+03  0.7546771E-02  0.1095629E+00
         21   -1    0    0  502  501  0.00000000000E+00  0.00000000000E+00  0.91347677654E+02  0.91347677654E+02  0.00000000000E+00 0.  1.
         21   -1    0    0  501  502 -0.00000000000E+00 -0.00000000000E+00 -0.85892835568E+03  0.85892835568E+03  0.00000000000E+00 0.  1.
         25    1    1    2    0    0  0.58617083804E+02 -0.33730852331E+02 -0.87506453911E+02  0.16690150505E+03  0.12500000000E+03 0.  0.
         25    1    1    2    0    0 -0.45771859437E+02  0.32300447280E+02 -0.63540958024E+03  0.65000670510E+03  0.12500000000E+03 0.  0.
         25    1    1    2    0    0 -0.12845224368E+02  0.14304050510E+01 -0.44664643869E+02  0.13336782318E+03  0.12500000000E+03 0.  0.
</event>
<event>
 5    0  0.5561624E-005  0.3168268E+03  0.7546771E-02  0.1077119E+00
         21   -1    0    0  502  501  0.00000000000E+00  0.00000000000E+00  0.43439322126E+03  0.43439322126E+03  0.00000000000E+00 0.  1.
         21   -1    0    0  501  502 -0.00000000000E+00 -0.00000000000E+00 -0.23107921304E+03  0.23107921304E+03  0.00000000000E+00 0.  1.
         25    1    1    2    0    0 -0.15156207212E+03 -0.18044831756E+03  0.11044235215E+03  0.28871295462E+03  0.12500000000E+03 0.  0.
         25    1    1    2    0    0  0.36918196517E+02  0.11526524994E+03  0.88014390101E+02  0.19498862516E+03  0.12500000000E+03 0.  0.
         25    1    1    2    0    0  0.11464387560E+03  0.65183067615E+02  0.48572659639E+01  0.18177085451E+03  0.12500000000E+03 0.  0.
</event>
<event>
 5    0  0.5561624E-005  0.2212921E+03  0.7546771E-02  0.1132923E+00
         21   -1    0    0  502  501  0.00000000000E+00  0.00000000000E+00  0.63275856132E+02  0.63275856132E+02  0.00000000000E+00 0. -1.
         21   -1    0    0  501  502 -0.00000000000E+00 -0.00000000000E+00 -0.77391565542E+03  0.77391565542E+03  0.00000000000E+00 0. -1.
         25    1    1    2    0    0 -0.19465996765E+02  0.59013251820E+01 -0.17667654611E+03  0.21737836280E+03  0.12500000000E+03 0.  0.
         25    1    1    2    0    0 -0.20840575294E+01 -0.76204801750E+02 -0.38506490882E+03  0.41196055528E+03  0.12500000000E+03 0.  0.
         25    1    1    2    0    0  0.21550054294E+02  0.70303476568E+02 -0.14889834436E+03  0.20785259346E+03  0.12500000000E+03 0.  0.
</event>
<event>
 5    0  0.5561624E-005  0.2169215E+03  0.7546771E-02  0.1136199E+00
         21   -1    0    0  502  501  0.00000000000E+00  0.00000000000E+00  0.25075443372E+02  0.25075443372E+02  0.00000000000E+00 0. -1.
         21   -1    0    0  501  502 -0.00000000000E+00 -0.00000000000E+00 -0.18765352952E+04  0.18765352952E+04  0.00000000000E+00 0. -1.
         25    1    1    2    0    0  0.28579033663E+02  0.43601012360E+02 -0.90019628333E+03  0.91032750039E+03  0.12500000000E+03 0.  0.
         25    1    1    2    0    0 -0.68454335821E+02 -0.19351632714E+02 -0.54569542448E+03  0.56433055746E+03  0.12500000000E+03 0.  0.
         25    1    1    2    0    0  0.39875302157E+02 -0.24249379646E+02 -0.40556814398E+03  0.42695268068E+03  0.12500000000E+03 0.  0.
</event>
<event>
 5    0  0.5692779E-005  0.3111054E+03  0.7546771E-02  0.1079817E+00
         21   -1    0    0  502  501  0.00000000000E+00  0.00000000000E+00  0.45813492450E+03  0.45813492450E+03  0.00000000000E+00 0. -1.
         21   -1    0    0  501  502 -0.00000000000E+00 -0.00000000000E+00 -0.21126221229E+03  0.21126221229E+03  0.00000000000E+00 0. -1.
         25    1    1    2    0    0  0.12220945054E+03  0.78802665791E+02 -0.74328693971E+02  0.20565691013E+03  0.12500000000E+03 0.  0.
         25    1    1    2    0    0 -0.10623991278E+03 -0.91373106058E+02  0.11041479180E+03  0.21783569457E+03  0.12500000000E+03 0.  0.
         25    1    1    2    0    0 -0.15969537764E+02  0.12570440267E+02  0.21078661437E+03  0.24590453209E+03  0.12500000000E+03 0.  0.
</event>
<event>
 5    0  0.5561624E-005  0.2281089E+03  0.7546771E-02  0.1127978E+00
         21   -1    0    0  502  501  0.00000000000E+00  0.00000000000E+00  0.43557795946E+02  0.43557795946E+02  0.00000000000E+00 0.  1.
         21   -1    0    0  501  502 -0.00000000000E+00 -0.00000000000E+00 -0.11945887367E+04  0.11945887367E+04  0.00000000000E+00 0.  1.
         25    1    1    2    0    0  0.50726663256E+02  0.71297780644E+02 -0.38819261028E+03  0.41710318935E+03  0.12500000000E+03 0.  0.
         25    1    1    2    0    0  0.11437068947E+02 -0.57949423370E+02 -0.21559009053E+03  0.25611136122E+03  0.12500000000E+03 0.  0.
         25    1    1    2    0    0 -0.62163732203E+02 -0.13348357274E+02 -0.54724823998E+03  0.56493198211E+03  0.12500000000E+03 0.  0.
</event>
<event>
 5    0  0.5561624E-005  0.5469347E+03  0.7546771E-02  0.1002206E+00
         21   -1    0    0  502  501  0.00000000000E+00  0.00000000000E+00  0.33897141266E+03  0.33897141266E+03  0.00000000000E+00 0. -1.
         21   -1    0    0  501  502 -0.00000000000E+00 -0.00000000000E+00 -0.88248615543E+03  0.88248615543E+03  0.00000000000E+00 0. -1.
         25    1    1    2    0    0 -0.15758527290E+03  0.75177629407E+01  0.20337523078E+02  0.20230731534E+03  0.12500000000E+03 0.  0.
         25    1    1    2    0    0 -0.22975974122E+02 -0.23885790960E+02  0.19221337249E+03  0.23166658577E+03  0.12500000000E+03 0.  0.
         25    1    1    2    0    0  0.18056124702E+03  0.16368028020E+02 -0.75606563834E+03  0.78748366697E+03  0.12500000000E+03 0.  0.
</event>
<event>
 5    0  0.5561624E-005  0.3124074E+03  0.7546771E-02  0.1079198E+00
         21   -1    0    0  502  501  0.00000000000E+00  0.00000000000E+00  0.26718075387E+03  0.26718075387E+03  0.00000000000E+00 0. -1.
         21   -1    0    0  501  502 -0.00000000000E+00 -0.00000000000E+00 -0.36528967577E+03  0.36528967577E+03  0.00000000000E+00 0. -1.
         25    1    1    2    0    0 -0.35696650815E+02  0.27744710347E+02  0.78765781748E+02  0.15450912014E+03  0.12500000000E+03 0.  0.
         25    1    1    2    0    0 -0.72644594682E+02 -0.45724076485E+02 -0.25301717892E+03  0.29497562803E+03  0.12500000000E+03 0.  0.
         25    1    1    2    0    0  0.10834124550E+03  0.17979366138E+02  0.76142475266E+02  0.18298568147E+03  0.12500000000E+03 0.  0.
</event>
<event>
 5    0  0.5561624E-005  0.2207486E+03  0.7546771E-02  0.1133326E+00
         21   -1    0    0  502  501  0.00000000000E+00  0.00000000000E+00  0.97481038589E+02  0.97481038589E+02  0.00000000000E+00 0.  1.
         21   -1    0    0  501  502 -0.00000000000E+00 -0.00000000000E+00 -0.49989147354E+03  0.49989147354E+03  0.00000000000E+00 0.  1.
         25    1    1    2    0    0  0.65060977578E+01 -0.39632338592E+01 -0.13745746303E+03  0.18595050598E+03  0.12500000000E+03 0.  0.
         25    1    1    2    0    0  0.77870513847E+02 -0.42342403686E+02 -0.16225998080E+03  0.22318153473E+03  0.12500000000E+03 0.  0.
         25    1    1    2    0    0 -0.84376611605E+02  0.46305637546E+02 -0.10269299112E+03  0.18824047142E+03  0.12500000000E+03 0.  0.
</event>
<event>
 5    0  0.5561624E-005  0.4386399E+03  0.7546771E-02  0.1031165E+00
         21   -1    0    0  502  501  0.00000000000E+00  0.00000000000E+00  0.46345126475E+03  0.46345126475E+03  0.00000000000E+00 0.  1.
         21   -1    0    0  501  502 -0.00000000000E+00 -0.00000000000E+00 -0.41515679149E+03  0.41515679149E+03  0.00000000000E+00 0.  1.
         25    1    1    2    0    0  0.63453559227E+02 -0.49250885861E+02 -0.10387490444E+03  0.18129258040E+03  0.12500000000E+03 0.  0.
         25    1    1    2    0    0  0.26204841577E+03  0.35093158086E+01  0.18473987498E+03  0.34414460465E+03  0.12500000000E+03 0.  0.
         25    1    1    2    0    0 -0.32550197500E+03  0.45741570052E+02 -0.32570497274E+02  0.35317087118E+03  0.12500000000E+03 0.  0.
</event>
<event>
 5    0  0.5561624E-005  0.4922000E+03  0.7546771E-02  0.1015835E+00
         21   -1    0    0  502  501  0.00000000000E+00  0.00000000000E+00  0.63317551621E+03  0.63317551621E+03  0.00000000000E+00 0.  1.
         21   -1    0    0  501  502 -0.00000000000E+00 -0.00000000000E+00 -0.38261239179E+03  0.38261239179E+03  0.00000000000E+00 0.  1.
         25    1    1    2    0    0  0.15426032929E+03  0.32341033424E+02  0.44354573081E+03  0.48703183362E+03  0.12500000000E+03 0.  0.
         25    1    1    2    0    0 -0.14333491745E+03 -0.15998781676E+03  0.21432340295E+02  0.24945008576E+03  0.12500000000E+03 0.  0.
         25    1    1    2    0    0 -0.10925411847E+02  0.12764678334E+03 -0.21441494669E+03  0.27930598863E+03  0.12500000000E+03 0.  0.
</event>
<event>
 5    0  0.5561624E-005  0.3690049E+03  0.7546771E-02  0.1055074E+00
         21   -1    0    0  502  501  0.00000000000E+00  0.00000000000E+00  0.10655214320E+03  0.10655214320E+03  0.00000000000E+00 0. -1.
         21   -1    0    0  501  502 -0.00000000000E+00 -0.00000000000E+00 -0.12779153356E+04  0.12779153356E+04  0.00000000000E+00 0. -1.
         25    1    1    2    0    0  0.10327119498E+03  0.32511544960E+02 -0.62417515324E+03  0.64571012242E+03  0.12500000000E+03 0.  0.
         25    1    1    2    0    0  0.72458318573E+02 -0.13633655379E+03 -0.42696444559E+03  0.47091559926E+03  0.12500000000E+03 0.  0.
         25    1    1    2    0    0 -0.17572951356E+03  0.10382500883E+03 -0.12022359351E+03  0.26784175707E+03  0.12500000000E+03 0.  0.
</event>
<event>
 5    0  0.5561624E-005  0.2680783E+03  0.7546771E-02  0.1102385E+00
         21   -1    0    0  502  501  0.00000000000E+00  0.00000000000E+00  0.47029707075E+02  0.47029707075E+02  0.00000000000E+00 0. -1.
         21   -1    0    0  501  502 -0.00000000000E+00 -0.00000000000E+00 -0.15280974777E+04  0.15280974777E+04  0.00000000000E+00 0. -1.
         25    1    1    2    0    0  0.40535491200E+02 -0.12511384209E+03 -0.48991767560E+03  0.52243748755E+03  0.12500000000E+03 0.  0.
         25    1    1    2    0    0 -0.70976414506E+02  0.22205488075E+02 -0.21722590266E+03  0.26142461228E+03  0.12500000000E+03 0.  0.
         25    1    1    2    0    0  0.30440923305E+02  0.10290835402E+03 -0.77392419231E+03  0.79126508490E+03  0.12500000000E+03 0.  0.
</event>
<event>
 5    0  0.5561624E-005  0.4236689E+03  0.7546771E-02  0.1035879E+00
         21   -1    0    0  502  501  0.00000000000E+00  0.00000000000E+00  0.12233033481E+03  0.12233033481E+03  0.00000000000E+00 0. -1.
         21   -1    0    0  501  502 -0.00000000000E+00 -0.00000000000E+00 -0.14673002867E+04  0.14673002867E+04  0.00000000000E+00 0. -1.
         25    1    1    2    0    0  0.66185169385E+02  0.78126480945E+02 -0.18061491050E+03  0.24234473290E+03  0.12500000000E+03 0.  0.
         25    1    1    2    0    0 -0.31396386852E+03  0.68687718497E+02 -0.76627153213E+03  0.84029064874E+03  0.12500000000E+03 0.  0.
         25    1    1    2    0    0  0.24777869913E+03 -0.14681419944E+03 -0.39808350924E+03  0.50699523985E+03  0.12500000000E+03 0.  0.
</event>
<event>
 5    0  0.5897697E-005  0.3259094E+03  0.7546771E-02  0.1072961E+00
         21   -1    0    0  502  501  0.00000000000E+00  0.00000000000E+00  0.18237358639E+03  0.18237358639E+03  0.00000000000E+00 0.  1.
         21   -1    0    0  501  502 -0.00000000000E+00 -0.00000000000E+00 -0.58241403462E+03  0.58241403462E+03  0.00000000000E+00 0.  1.
         25    1    1    2    0    0  0.12402805849E+03 -0.17699549562E+03 -0.52015974552E+02  0.25503142233E+03  0.12500000000E+03 0.  0.
         25    1    1    2    0    0 -0.51871730038E+02  0.10133936220E+02 -0.20829838877E+03  0.24860931560E+03  0.12500000000E+03 0.  0.
         25    1    1    2    0    0 -0.72156328456E+02  0.16686155940E+03 -0.13972608491E+03  0.26114688309E+03  0.12500000000E+03 0.  0.
</event>
<event>
 5    0  0.5561624E-005  0.2792030E+03  0.7546771E-02  0.1096125E+00
         21   -1    0    0  502  501  0.00000000000E+00  0.00000000000E+00  0.29343992725E+03  0.29343992725E+03  0.00000000000E+00 0. -1.
         21   -1    0    0  501  502 -0.00000000000E+00 -0.00000000000E+00 -0.26565676948E+03  0.26565676948E+03  0.00000000000E+00 0. -1.
         25    1    1    2    0    0 -0.39187215782E+02 -0.87685984819E+02 -0.89966387656E+02  0.18150322510E+03  0.12500000000E+03 0.  0.
         25    1    1    2    0    0 -0.40597325594E+02 -0.64378204418E+02  0.46297784738E+02  0.15349651762E+03  0.12500000000E+03 0.  0.
         25    1    1    2    0    0  0.79784541376E+02  0.15206418924E+03  0.71451760686E+02  0.22409695401E+03  0.12500000000E+03 0.  0.
</event>
<event>
 5    0  0.5567915E-005  0.2897646E+03  0.7546771E-02  0.1090472E+00
         21   -1    0    0  502  501  0.00000000000E+00  0.00000000000E+00  0.20336991701E+03  0.20336991701E+03  0.00000000000E+00 0.  1.
         21   -1    0    0  501  502 -0.00000000000E+00 -0.00000000000E+00 -0.41286112317E+03  0.41286112317E+03  0.00000000000E+00 0.  1.
         25    1    1    2    0    0  0.73992868711E+02  0.89410703070E+01  0.34502520301E+02  0.14956707948E+03  0.12500000000E+03 0.  0.
         25    1    1    2    0    0 -0.62871730215E+02  0.37015217217E+02  0.42236423535E+02  0.15077100596E+03  0.12500000000E+03 0.  0.
         25    1    1    2    0    0 -0.11121138496E+02 -0.45956287524E+02 -0.28623015000E+03  0.31589295474E+03  0.12500000000E+03 0.  0.
</event>
<event>
 5    0  0.5561624E-005  0.3444870E+03  0.7546771E-02  0.1064901E+00
         21   -1    0    0  502  501  0.00000000000E+00  0.00000000000E+00  0.46774055867E+03  0.46774055867E+03  0.00000000000E+00 0. -1.
         21   -1    0    0  501  502 -0.00000000000E+00 -0.00000000000E+00 -0.25371181825E+03  0.25371181825E+03  0.00000000000E+00 0. -1.
         25    1    1    2    0    0  0.24982777371E+03 -0.83598226902E+02  0.28766733577E+02  0.29301041794E+03  0.12500000000E+03 0.  0.
         25    1    1    2    0    0 -0.87956309901E+02  0.89520041835E+02  0.53305106161E+02  0.18497725451E+03  0.12500000000E+03 0.  0.
         25    1    1    2    0    0 -0.16187146381E+03 -0.59218149329E+01  0.13195690068E+03  0.24346470448E+03  0.12500000000E+03 0.  0.
</event>
<event>
 5    0  0.5561624E-005  0.4247074E+03  0.7546771E-02  0.1035545E+00
         21   -1    0    0  502  501  0.00000000000E+00  0.00000000000E+00  0.95105023910E+03  0.95105023910E+03  0.00000000000E+00 0. -1.
         21   -1    0    0  501  502 -0.00000000000E+00 -0.00000000000E+00 -0.18966015397E+03  0.18966015397E+03  0.00000000000E+00 0. -1.
         25    1    1    2    0    0 -0.58661004713E+01 -0.42742960981E+02 -0.14662181963E+03  0.19744449812E+03  0.12500000000E+03 0.  0.
         25    1    1    2    0    0 -0.68429265915E+01  0.22162309010E+02  0.41162811486E+03  0.43081399528E+03  0.12500000000E+03 0.  0.
         25    1    1    2    0    0  0.12709027063E+02  0.20580651972E+02  0.49638378990E+03  0.51245189967E+03  0.12500000000E+03 0.  0.
</event>
<event>
 5    0  0.5561624E-005  0.3255719E+03  0.7546771E-02  0.1073113E+00
         21   -1    0    0  502  501  0.00000000000E+00  0.00000000000E+00  0.48162052170E+03  0.48162052170E+03  0.00000000000E+00 0.  1.
         21   -1    0    0  501  502 -0.00000000000E+00 -0.00000000000E+00 -0.22008417402E+03  0.22008417402E+03  0.00000000000E+00 0.  1.
         25    1    1    2    0    0  0.22585056179E+02 -0.21371659838E+03 -0.16458162288E+02  0.24916006961E+03  0.12500000000E+03 0.  0.
         25    1    1    2    0    0  0.44263397151E+02  0.77928806631E+02  0.78552171202E+02  0.17270666122E+03  0.12500000000E+03 0.  0.
         25    1    1    2    0    0 -0.66848453331E+02  0.13578779175E+03  0.19944233877E+03  0.27983796489E+03  0.12500000000E+03 0.  0.
</event>
<event>
 5    0  0.5561624E-005  0.5979299E+03  0.7546771E-02  0.9909710E-01
         21   -1    0    0  502  501  0.00000000000E+00  0.00000000000E+00  0.22662892117E+03  0.22662892117E+03  0.00000000000E+00 0. -1.
         21   -1    0    0  501  502 -0.00000000000E+00 -0.00000000000E+00 -0.15775575912E+04  0.15775575912E+04  0.00000000000E+00 0. -1.
         25    1    1    2    0    0 -0.36441372253E+03  0.14483624525E+03 -0.77575224526E+03  0.87817506520E+03  0.12500000000E+03 0.  0.
         25    1    1    2    0    0  0.23111797355E+03  0.12932376355E+03 -0.37270619053E+02  0.29521899085E+03  0.12500000000E+03 0.  0.
         25    1    1    2    0    0  0.13329574898E+03 -0.27416000880E+03 -0.53790580570E+03  0.63079245630E+03  0.12500000000E+03 0.  0.
</event>
<event>
 5    0  0.6913767E-005  0.2584158E+03  0.7546771E-02  0.1108099E+00
         21   -1    0    0  502  501  0.00000000000E+00  0.00000000000E+00  0.28865144359E+03  0.28865144359E+03  0.00000000000E+00 0.  1.
         21   -1    0    0  501  502 -0.00000000000E+00 -0.00000000000E+00 -0.23134724244E+03  0.23134724244E+03  0.00000000000E+00 0.  1.
         25    1    1    2    0    0  0.63351197715E+02 -0.42354516051E+02  0.10525028646E+02  0.14677552763E+03  0.12500000000E+03 0.  0.
         25    1    1    2    0    0 -0.70245062405E+02  0.85757411063E+02 -0.84043915812E+02  0.18702160872E+03  0.12500000000E+03 0.  0.
         25    1    1    2    0    0  0.68938646909E+01 -0.43402895013E+02  0.13082308832E+03  0.18620154968E+03  0.12500000000E+03 0.  0.
</event>
<event>
 5    0  0.5561624E-005  0.2539185E+03  0.7546771E-02  0.1110853E+00
         21   -1    0    0  502  501  0.00000000000E+00  0.00000000000E+00  0.78856987745E+02  0.78856987745E+02  0.00000000000E+00 0.  1.
         21   -1    0    0  501  502 -0.00000000000E+00 -0.00000000000E+00 -0.81761429199E+03  0.81761429199E+03  0.00000000000E+00 0.  1.
         25    1    1    2    0    0 -0.29537613520E+02 -0.96628130541E+02 -0.31204902376E+03  0.35101148052E+03  0.12500000000E+03 0.  0.
         25    1    1    2    0    0 -0.16213434350E+02 -0.53075895648E+02 -0.14014653970E+03  0.19582129287E+03  0.12500000000E+03 0.  0.
         25    1    1    2    0    0  0.45751047870E+02  0.14970402619E+03 -0.28656174079E+03  0.34963850635E+03  0.12500000000E+03 0.  0.
</event>
<event>
 5    0  0.5561624E-005  0.3020484E+03  0.7546771E-02  0.1084221E+00
         21   -1    0    0  502  501  0.00000000000E+00  0.00000000000E+00  0.64666761885E+03  0.64666761885E+03  0.00000000000E+00 0.  1.
         21   -1    0    0  501  502 -0.00000000000E+00 -0.00000000000E+00 -0.14108207858E+03  0.14108207858E+03  0.00000000000E+00 0.  1.
         25    1    1    2    0    0 -0.19842096276E+01 -0.26931507699E+02  0.41401428988E+03  0.43331521485E+03  0.12500000000E+03 0.  0.
         25    1    1    2    0    0 -0.10823828142E+03  0.49980122752E+02  0.62512536790E+02  0.18370181134E+03  0.12500000000E+03 0.  0.
         25    1    1    2    0    0  0.11022249105E+03 -0.23048615053E+02  0.29058713597E+02  0.17073267123E+03  0.12500000000E+03 0.  0.
</event>
<event>
 5    0  0.5561624E-005  0.2051095E+03  0.7546771E-02  0.1145498E+00
         21   -1    0    0  502  501  0.00000000000E+00  0.00000000000E+00  0.55873028331E+03  0.55873028331E+03  0.00000000000E+00 0.  1.
         21   -1    0    0  501  502 -0.00000000000E+00 -0.00000000000E+00 -0.75295576527E+02  0.75295576527E+02  0.00000000000E+00 0.  1.
         25    1    1    2    0    0 -0.84180834439E+01 -0.56423114518E+02  0.21157744437E+03  0.25227851067E+03  0.12500000000E+03 0.  0.
         25    1    1    2    0    0 -0.27314915622E+02  0.25549886685E+02  0.16681008897E+03  0.21177702215E+03  0.12500000000E+03 0.  0.
         25    1    1    2    0    0  0.35732999066E+02  0.30873227834E+02  0.10504717343E+03  0.16997032701E+03  0.12500000000E+03 0.  0.
</event>
<event>
 5    0  0.5561624E-005  0.3511313E+03  0.7546771E-02  0.1062152E+00
         21   -1    0    0  502  501  0.00000000000E+00  0.00000000000E+00  0.19410211686E+03  0.19410211686E+03  0.00000000000E+00 0. -1.
         21   -1    0    0  501  502 -0.00000000000E+00 -0.00000000000E+00 -0.63519737949E+03  0.63519737949E+03  0.00000000000E+00 0. -1.
         25    1    1    2    0    0  0.18088627144E+03 -0.52023516727E+02 -0.96978628171E+00  0.22594740533E+03  0.12500000000E+03 0.  0.
         25    1    1    2    0    0  0.12438376014E+02 -0.33562589594E+02 -0.44008610740E+02  0.13726951023E+03  0.12500000000E+03 0.  0.
         25    1    1    2    0    0 -0.19332464746E+03  0.85586106321E+02 -0.39611686561E+03  0.46608258080E+03  0.12500000000E+03 0.  0.
</event>
<event>
 5    0  0.5634710E-005  0.4915932E+03  0.7546771E-02  0.1015997E+00
         21   -1    0    0  502  501  0.00000000000E+00  0.00000000000E+00  0.82166332713E+03  0.82166332713E+03  0.00000000000E+00 0.  1.
         21   -1    0    0  501  502 -0.00000000000E+00 -0.00000000000E+00 -0.29411542513E+03  0.29411542513E+03  0.00000000000E+00 0.  1.
         25    1    1    2    0    0 -0.27786810463E+01  0.12717954091E+03  0.55102193027E+03  0.57916536873E+03  0.12500000000E+03 0.  0.
         25    1    1    2    0    0  0.20758062799E+03 -0.39177708566E+02  0.83911232312E+02  0.25940451976E+03  0.12500000000E+03 0.  0.
         25    1    1    2    0    0 -0.20480194694E+03 -0.88001832344E+02 -0.10738526057E+03  0.27720886377E+03  0.12500000000E+03 0.  0.
</event>
<event>
 5    0  0.5561624E-005  0.3120949E+03  0.7546771E-02  0.1079346E+00
         21   -1    0    0  502  501  0.00000000000E+00  0.00000000000E+00  0.14347077949E+04  0.14347077949E+04  0.00000000000E+00 0. -1.
         21   -1    0    0  501  502 -0.00000000000E+00 -0.00000000000E+00 -0.67890620662E+02  0.67890620662E+02  0.00000000000E+00 0. -1.
         25    1    1    2    0    0  0.67038997703E+02 -0.86073434761E+02  0.88090407758E+02  0.18785042806E+03  0.12500000000E+03 0.  0.
         25    1    1    2    0    0 -0.99084349332E+02  0.33347034264E+02  0.78405002332E+03  0.80080532718E+03  0.12500000000E+03 0.  0.
         25    1    1    2    0    0  0.32045351629E+02  0.52726400498E+02  0.49467674318E+03  0.51394266034E+03  0.12500000000E+03 0.  0.
</event>
<event>
 5    0  0.5561624E-005  0.2470717E+03  0.7546771E-02  0.1115170E+00
         21   -1    0    0  502  501  0.00000000000E+00  0.00000000000E+00  0.50655726541E+03  0.50655726541E+03  0.00000000000E+00 0.  1.
         21   -1    0    0  501  502 -0.00000000000E+00 -0.00000000000E+00 -0.12050845131E+03  0.12050845131E+03  0.00000000000E+00 0.  1.
         25    1    1    2    0    0 -0.61373253569E+02 -0.34387025682E+01  0.10032027737E+03  0.17166146621E+03  0.12500000000E+03 0.  0.
         25    1    1    2    0    0 -0.10829331400E+02 -0.41132403840E+02  0.27365470508E+03  0.30384378663E+03  0.12500000000E+03 0.  0.
         25    1    1    2    0    0  0.72202584969E+02  0.44571106408E+02  0.12073831659E+02  0.15156046389E+03  0.12500000000E+03 0.  0.
</event>
<event>
 5    0  0.5561624E-005  0.3925770E+03  0.7546771E-02  0.1046381E+00
         21   -1    0    0  502  501  0.00000000000E+00  0.00000000000E+00  0.12736501700E+04  0.12736501700E+04  0.00000000000E+00 0.  1.
         21   -1    0    0  501  502 -0.00000000000E+00 -0.00000000000E+00 -0.12100394524E+03  0.12100394524E+03  0.00000000000E+00 0.  1.
         25    1    1    2    0    0  0.11848906109E+03 -0.11250612410E+03  0.24915385939E+03  0.32310978198E+03  0.12500000000E+03 0.  0.
         25    1    1    2    0    0  0.86596258506E+02  0.21190827972E+03  0.68153524027E+03  0.72973921009E+03  0.12500000000E+03 0.  0.
         25    1    1    2    0    0 -0.20508531960E+03 -0.99402155620E+02  0.22195712513E+03  0.34180512321E+03  0.12500000000E+03 0.  0.
</event>
<event>
 5    0  0.5561624E-005  0.4179575E+03  0.7546771E-02  0.1037733E+00
         21   -1    0    0  502  501  0.00000000000E+00  0.00000000000E+00  0.44657519469E+03  0.44657519469E+03  0.00000000000E+00 0.  1.
         21   -1    0    0  501  502 -0.00000000000E+00 -0.00000000000E+00 -0.39117371431E+03  0.39117371431E+03  0.00000000000E+00 0.  1.
         25    1    1    2    0    0  0.61321806429E+01  0.42148932616E+02 -0.17275878009E+03  0.21745052830E+03  0.12500000000E+03 0.  0.
         25    1    1    2    0    0  0.16625223336E+03 -0.11201640989E+03 -0.70836727828E+02  0.24663804084E+03  0.12500000000E+03 0.  0.
         25    1    1    2    0    0 -0.17238441400E+03  0.69867477278E+02  0.29899698830E+03  0.37366033986E+03  0.12500000000E+03 0.  0.
</event>
<event>
 5    0  0.5561624E-005  0.3698217E+03  0.7546771E-02  0.1054761E+00
         21   -1    0    0  502  501  0.00000000000E+00  0.00000000000E+00  0.29770459843E+03  0.29770459843E+03  0.00000000000E+00 0. -1.
         21   -1    0    0  501  502 -0.00000000000E+00 -0.00000000000E+00 -0.45940878511E+03  0.45940878511E+03  0.00000000000E+00 0. -1.
         25    1    1    2    0    0  0.24933344536E+02  0.17321925435E+03 -0.13763576075E+02  0.21550178137E+03  0.12500000000E+03 0.  0.
         25    1    1    2    0    0 -0.59967983584E+02 -0.29428489070E+02 -0.27539282061E+03  0.30972310322E+03  0.12500000000E+03 0.  0.
         25    1    1    2    0    0  0.35034639047E+02 -0.14379076528E+03  0.12745221000E+03  0.23188849895E+03  0.12500000000E+03 0.  0.
</event>
<event>
 5    0  0.5561624E-005  0.2660080E+03  0.7546771E-02  0.1103586E+00
         21   -1    0    0  502  501  0.00000000000E+00  0.00000000000E+00  0.43654784391E+03  0.43654784391E+03  0.00000000000E+00 0. -1.
         21   -1    0    0  501  502 -0.00000000000E+00 -0.00000000000E+00 -0.16209050720E+03  0.16209050720E+03  0.00000000000E+00 0. -1.
         25    1    1    2    0    0  0.60415986797E+02  0.62185106019E+01  0.51306095019E+02  0.14814208288E+03  0.12500000000E+03 0.  0.
         25    1    1    2    0    0 -0.16243492719E+03  0.51860605769E+02  0.16900136509E+03  0.27066785809E+03  0.12500000000E+03 0.  0.
         25    1    1    2    0    0  0.10201894039E+03 -0.58079116370E+02  0.54149876600E+02  0.17982841014E+03  0.12500000000E+03 0.  0.
</event>
<event>
 5    0  0.5561624E-005  0.2804849E+03  0.7546771E-02  0.1095424E+00
         21   -1    0    0  502  501  0.00000000000E+00  0.00000000000E+00  0.30307726246E+03  0.30307726246E+03  0.00000000000E+00 0. -1.
         21   -1    0    0  501  502 -0.00000000000E+00 -0.00000000000E+00 -0.25957673058E+03  0.25957673058E+03  0.00000000000E+00 0. -1.
         25    1    1    2    0    0 -0.41324227366E+02  0.84142724162E+02  0.79264976589E+02  0.17520167325E+03  0.12500000000E+03 0.  0.
         25    1    1    2    0    0 -0.89809092695E+02 -0.38167590694E+02 -0.10268824603E+03  0.18892409582E+03  0.12500000000E+03 0.  0.
         25    1    1    2    0    0  0.13113332006E+03 -0.45975133467E+02  0.66923801316E+02  0.19852822396E+03  0.12500000000E+03 0.  0.
</event>
<event>
 5    0  0.6017233E-005  0.3499464E+03  0.7546771E-02  0.1062637E+00
         21   -1    0    0  502  501  0.00000000000E+00  0.00000000000E+00  0.77851150590E+03  0.77851150590E+03  0.00000000000E+00 0.  1.
         21   -1    0    0  501  502 -0.00000000000E+00 -0.00000000000E+00 -0.15730340697E+03  0.15730340697E+03  0.00000000000E+00 0.  1.
         25    1    1    2    0    0 -0.69247218679E+02 -0.70157311525E+02  0.54107822303E+03  0.56401052215E+03  0.12500000000E+03 0.  0.
         25    1    1    2    0    0 -0.87421482342E+02  0.70880223861E+01  0.40568334027E+02  0.15799856127E+03  0.12500000000E+03 0.  0.
         25    1    1    2    0    0  0.15666870102E+03  0.63069289139E+02  0.39561541873E+02  0.21380582945E+03  0.12500000000E+03 0.  0.
</event>
<event>
 5    0  0.5561624E-005  0.2730273E+03  0.7546771E-02  0.1099559E+00
         21   -1    0    0  502  501  0.00000000000E+00  0.00000000000E+00  0.23914159410E+03  0.23914159410E+03  0.00000000000E+00 0. -1.
         21   -1    0    0  501  502 -0.00000000000E+00 -0.00000000000E+00 -0.31171458912E+03  0.31171458912E+03  0.00000000000E+00 0. -1.
         25    1    1    2    0    0  0.84694886331E+02  0.12999404440E+03 -0.42736584616E+00  0.19924070365E+03  0.12500000000E+03 0.  0.
         25    1    1    2    0    0 -0.47206398580E+01 -0.13018787941E+03  0.12145808209E+02  0.18095217336E+03  0.12500000000E+03 0.  0.
         25    1    1    2    0    0 -0.79974246473E+02  0.19383501638E+00 -0.84291437379E+02  0.17066330621E+03  0.12500000000E+03 0.  0.
</event>
<event>
 5    0  0.5561624E-005  0.2337231E+03  0.7546771E-02  0.1124046E+00
         21   -1    0    0  502  501  0.00000000000E+00  0.00000000000E+00  0.93127075582E+02  0.93127075582E+02  0.00000000000E+00 0.  1.
         21   -1    0    0  501  502 -0.00000000000E+00 -0.00000000000E+00 -0.58657994653E+03  0.58657994653E+03  0.00000000000E+00 0.  1.
         25    1    1    2    0    0  0.54667345294E+02  0.98977769432E+02 -0.19310478797E+03  0.25631928647E+03  0.12500000000E+03 0.  0.
         25    1    1    2    0    0 -0.35552756724E+02 -0.66248792824E+02 -0.23681719422E+03  0.27813716857E+03  0.12500000000E+03 0.  0.
         25    1    1    2    0    0 -0.19114588570E+02 -0.32728976608E+02 -0.63530888755E+02  0.14525056706E+03  0.12500000000E+03 0.  0.
</event>
<event>
 5    0  0.5818972E-005  0.2854065E+03  0.7546771E-02  0.1092772E+00
         21   -1    0    0  502  501  0.00000000000E+00  0.00000000000E+00  0.13614778764E+03  0.13614778764E+03  0.00000000000E+00 0. -1.
         21   -1    0    0  501  502 -0.00000000000E+00 -0.00000000000E+00 -0.59829729852E+03  0.59829729852E+03  0.00000000000E+00 0. -1.
         25    1    1    2    0    0 -0.91766008974E+02  0.22834049380E+02 -0.16869836253E+03  0.23027490470E+03  0.12500000000E+03 0.  0.
         25    1    1    2    0    0  0.10418919234E+03  0.28552740103E+02 -0.32522228449E+03  0.36478100430E+03  0.12500000000E+03 0.  0.
         25    1    1    2    0    0 -0.12423183368E+02 -0.51386789483E+02  0.31771136142E+02  0.13938917716E+03  0.12500000000E+03 0.  0.
</event>
<event>
 5    0  0.5561624E-005  0.3608201E+03  0.7546771E-02  0.1058260E+00
         21   -1    0    0  502  501  0.00000000000E+00  0.00000000000E+00  0.10292503026E+03  0.10292503026E+03  0.00000000000E+00 0.  1.
         21   -1    0    0  501  502 -0.00000000000E+00 -0.00000000000E+00 -0.12649126568E+04  0.12649126568E+04  0.00000000000E+00 0.  1.
         25    1    1    2    0    0 -0.97253742575E+02 -0.70010475255E+02 -0.10280614720E+04  0.10425426358E+04  0.12500000000E+03 0.  0.
         25    1    1    2    0    0  0.38121660410E+01  0.59536334389E+02 -0.79378221099E+02  0.15964025090E+03  0.12500000000E+03 0.  0.
         25    1    1    2    0    0  0.93441576534E+02  0.10474140866E+02 -0.54547933387E+02  0.16565480038E+03  0.12500000000E+03 0.  0.
</event>
<event>
 5    0  0.5584399E-005  0.3859209E+03  0.7546771E-02  0.1048767E+00
         21   -1    0    0  502  501  0.00000000000E+00  0.00000000000E+00  0.43717480677E+03  0.43717480677E+03  0.00000000000E+00 0.  1.
         21   -1    0    0  501  502 -0.00000000000E+00 -0.00000000000E+00 -0.34067597508E+03  0.34067597508E+03  0.00000000000E+00 0.  1.
         25    1    1    2    0    0 -0.16982596626E+03  0.13294488325E+03  0.40882945702E+02  0.25260961195E+03  0.12500000000E+03 0.  0.
         25    1    1    2    0    0 -0.18861028456E+02 -0.21548968132E+03  0.11811711956E+03  0.27634796016E+03  0.12500000000E+03 0.  0.
         25    1    1    2    0    0  0.18868699471E+03  0.82544798070E+02 -0.62501233570E+02  0.24889320975E+03  0.12500000000E+03 0.  0.
</event>
<event>
 5    0  0.5561624E-005  0.2182330E+03  0.7546771E-02  0.1135207E+00
         21   -1    0    0  502  501  0.00000000000E+00  0.00000000000E+00  0.20290832009E+03  0.20290832009E+03  0.00000000000E+00 0.  1.
         21   -1    0    0  501  502 -0.00000000000E+00 -0.00000000000E+00 -0.23471511338E+03  0.23471511338E+03  0.00000000000E+00 0.  1.
         25    1    1    2    0    0  0.15608005859E+02 -0.25966752091E+02 -0.75139776196E+02  0.14895928312E+03  0.12500000000E+03 0.  0.
         25    1    1    2    0    0 -0.47815419790E+02 -0.39819708163E+02  0.32605107719E+02  0.14338764444E+03  0.12500000000E+03 0.  0.
         25    1    1    2    0    0  0.32207413931E+02  0.65786460254E+02  0.10727875180E+02  0.14527650591E+03  0.12500000000E+03 0.  0.
</event>
<event>
 5    0  0.5561624E-005  0.3266253E+03  0.7546771E-02  0.1072640E+00
         21   -1    0    0  502  501  0.00000000000E+00  0.00000000000E+00  0.87287863319E+03  0.87287863319E+03  0.00000000000E+00 0.  1.
         21   -1    0    0  501  502 -0.00000000000E+00 -0.00000000000E+00 -0.12222097092E+03  0.12222097092E+03  0.00000000000E+00 0.  1.
         25    1    1    2    0    0 -0.11621075914E+01  0.23136815286E+03  0.44421956915E+03  0.51622533671E+03  0.12500000000E+03 0.  0.
         25    1    1    2    0    0  0.50088098628E+01 -0.98571276356E+02  0.23299934668E+03  0.28223231610E+03  0.12500000000E+03 0.  0.
         25    1    1    2    0    0 -0.38467022714E+01 -0.13279687650E+03  0.73438746441E+02  0.19664195129E+03  0.12500000000E+03 0.  0.
</event>
<event>
 5    0  0.5561624E-005  0.2233703E+03  0.7546771E-02  0.1131395E+00
         21   -1    0    0  502  501  0.00000000000E+00  0.00000000000E+00  0.63973207208E+02  0.63973207208E+02  0.00000000000E+00 0. -1.
         21   -1    0    0  501  502 -0.00000000000E+00 -0.00000000000E+00 -0.77992496066E+03  0.77992496066E+03  0.00000000000E+00 0. -1.
         25    1    1    2    0    0 -0.50584794260E+02  0.41248476943E+02 -0.33718026175E+03  0.36548021448E+03  0.12500000000E+03 0.  0.
         25    1    1    2    0    0 -0.53049847371E+01  0.94026146118E+01 -0.88619118960E+02  0.15360631585E+03  0.12500000000E+03 0.  0.
         25    1    1    2    0    0  0.55889778997E+02 -0.50651091555E+02 -0.29015237274E+03  0.32481163753E+03  0.12500000000E+03 0.  0.
</event>
<event>
 5    0  0.5561624E-005  0.2925418E+03  0.7546771E-02  0.1089029E+00
         21   -1    0    0  502  501  0.00000000000E+00  0.00000000000E+00  0.67667489559E+03  0.67667489559E+03  0.00000000000E+00 0. -1.
         21   -1    0    0  501  502 -0.00000000000E+00 -0.00000000000E+00 -0.12647245017E+03  0.12647245017E+03  0.00000000000E+00 0. -1.
         25    1    1    2    0    0  0.13648126777E+03  0.61600511041E+02  0.22744350947E+03  0.29962861915E+03  0.12500000000E+03 0.  0.
         25    1    1    2    0    0  0.48489935785E+02 -0.13626157760E+02  0.41031937220E+02  0.14087429120E+03  0.12500000000E+03 0.  0.
         25    1    1    2    0    0 -0.18497120356E+03 -0.47974353280E+02  0.28172699874E+03  0.36264443541E+03  0.12500000000E+03 0.  0.
</event>
<event>
 5    0  0.5561624E-005  0.2790702E+03  0.7546771E-02  0.1096198E+00
         21   -1    0    0  502  501  0.00000000000E+00  0.00000000000E+00  0.20292351888E+03  0.20292351888E+03  0.00000000000E+00 0.  1.
         21   -1    0    0  501  502 -0.00000000000E+00 -0.00000000000E+00 -0.38379087167E+03  0.38379087167E+03  0.00000000000E+00 0.  1.
         25    1    1    2    0    0 -0.72869141230E+02  0.32341367043E+02 -0.19819977050E+03  0.24751570615E+03  0.12500000000E+03 0.  0.
         25    1    1    2    0    0 -0.12133516042E+02  0.40691962286E+02 -0.70572853733E+02  0.14969497550E+03  0.12500000000E+03 0.  0.
         25    1    1    2    0    0  0.85002657272E+02 -0.73033329329E+02  0.87905271443E+02  0.18950370889E+03  0.12500000000E+03 0.  0.
</event>
<event>
 5    0  0.5561624E-005  0.3439190E+03  0.7546771E-02  0.1065139E+00
         21   -1    0    0  502  501  0.00000000000E+00  0.00000000000E+00  0.23971315977E+03  0.23971315977E+03  0.00000000000E+00 0. -1.
         21   -1    0    0  501  502 -0.00000000000E+00 -0.00000000000E+00 -0.49342423082E+03  0.49342423082E+03  0.00000000000E+00 0. -1.
         25    1    1    2    0    0 -0.19598690059E+03  0.62483057476E+02 -0.24723604830E+03  0.34505892432E+03  0.12500000000E+03 0.  0.
         25    1    1    2    0    0  0.50450912561E+02 -0.66530455090E+02  0.88006311053E+02  0.17418871036E+03  0.12500000000E+03 0.  0.
         25    1    1    2    0    0  0.14553598803E+03  0.40473976142E+01 -0.94481333803E+02  0.21388975590E+03  0.12500000000E+03 0.  0.
</event>
<event>
 5    0  0.5561624E-005  0.4417026E+03  0.7546771E-02  0.1030226E+00
         21   -1    0    0  502  501  0.00000000000E+00  0.00000000000E+00  0.13862872084E+04  0.13862872084E+04  0.00000000000E+00 0. -1.
         21   -1    0    0  501  502 -0.00000000000E+00 -0.00000000000E+00 -0.14073650583E+03  0.14073650583E+03  0.00000000000E+00 0. -1.
         25    1    1    2    0    0  0.13767090562E+03 -0.12100827900E+03  0.59695960585E+03  0.63685324279E+03  0.12500000000E+03 0.  0.
         25    1    1    2    0    0 -0.23276271004E+02  0.24805962942E+03  0.90220761475E+02  0.29298489780E+03  0.12500000000E+03 0.  0.
         25    1    1    2    0    0 -0.11439463462E+03 -0.12705135042E+03  0.55837033521E+03  0.59718557360E+03  0.12500000000E+03 0.  0.
</event>
<event>
 5    0  0.5561624E-005  0.2615545E+03  0.7546771E-02  0.1106213E+00
         21   -1    0    0  502  501  0.00000000000E+00  0.00000000000E+00  0.50759515904E+03  0.50759515904E+03  0.00000000000E+00 0.  1.
         21   -1    0    0  501  502 -0.00000000000E+00 -0.00000000000E+00 -0.13477429318E+03  0.13477429318E+03  0.00000000000E+00 0.  1.
         25    1    1    2    0    0 -0.87600146444E+01  0.12302221453E+03  0.55639649149E+02  0.18420633453E+03  0.12500000000E+03 0.  0.
         25    1    1    2    0    0  0.34119321194E+02 -0.14263731262E+03  0.24002947236E+03  0.30781273306E+03  0.12500000000E+03 0.  0.
         25    1    1    2    0    0 -0.25359306550E+02  0.19615098091E+02  0.77151744347E+02  0.15035038463E+03  0.12500000000E+03 0.  0.
</event>
<event>
 5    0  0.5561624E-005  0.2732049E+03  0.7546771E-02  0.1099459E+00
         21   -1    0    0  502  501  0.00000000000E+00  0.00000000000E+00  0.29901972344E+03  0.29901972344E+03  0.00000000000E+00 0.  1.
         21   -1    0    0  501  502 -0.00000000000E+00 -0.00000000000E+00 -0.24961879047E+03  0.24961879047E+03  0.00000000000E+00 0.  1.
         25    1    1    2    0    0 -0.35306776417E+02  0.14283711586E+03  0.92641188497E+02  0.21414107484E+03  0.12500000000E+03 0.  0.
         25    1    1    2    0    0  0.94740778214E+02 -0.48747315079E+02 -0.17721887152E+02  0.16520042696E+03  0.12500000000E+03 0.  0.
         25    1    1    2    0    0 -0.59434001797E+02 -0.94089800786E+02 -0.25518368380E+02  0.16929701210E+03  0.12500000000E+03 0.  0.
</event>
<event>
 5    0  0.5561624E-005  0.3306362E+03  0.7546771E-02  0.1070856E+00
         21   -1    0    0  502  501  0.00000000000E+00  0.00000000000E+00  0.49170196359E+03  0.49170196359E+03  0.00000000000E+00 0. -1.
         21   -1    0    0  501  502 -0.00000000000E+00 -0.00000000000E+00 -0.22233041451E+03  0.22233041451E+03  0.00000000000E+00 0. -1.
         25    1    1    2    0    0 -0.14285417785E+02 -0.93050431978E+01 -0.54284166888E+02  0.13734055397E+03  0.12500000000E+03 0.  0.
         25    1    1    2    0    0 -0.13505373048E+03  0.25241684374E+01  0.33421696128E+03  0.38153880373E+03  0.12500000000E+03 0.  0.
         25    1    1    2    0    0  0.14933914827E+03  0.67808747604E+01 -0.10561245316E+02  0.19515302040E+03  0.12500000000E+03 0.  0.
</event>
<event>
 5    0  0.5561624E-005  0.6370210E+03  0.7546771E-02  0.9831443E-01
         21   -1    0    0  502  501  0.00000000000E+00  0.00000000000E+00  0.16223694276E+04  0.16223694276E+04  0.00000000000E+00 0. -1.
         21   -1    0    0  501  502 -0.00000000000E+00 -0.00000000000E+00 -0.25012539177E+03  0.25012539177E+03  0.00000000000E+00 0. -1.
         25    1    1    2    0    0 -0.16874438795E+03  0.40420222391E+03  0.35758916659E+03  0.57909335892E+03  0.12500000000E+03 0.  0.
         25    1    1    2    0    0 -0.23710506571E+02  0.37380897746E+02 -0.30273775607E+02  0.13601845878E+03  0.12500000000E+03 0.  0.
         25    1    1    2    0    0  0.19245489452E+03 -0.44158312166E+03  0.10449286448E+04  0.11573830017E+04  0.12500000000E+03 0.  0.
</event>
<event>
 5    0  0.5561624E-005  0.2605912E+03  0.7546771E-02  0.1106789E+00
         21   -1    0    0  502  501  0.00000000000E+00  0.00000000000E+00  0.10984512039E+04  0.10984512039E+04  0.00000000000E+00 0.  1.
         21   -1    0    0  501  502 -0.00000000000E+00 -0.00000000000E+00 -0.61821370099E+02  0.61821370099E+02  0.00000000000E+00 0.  1.
         25    1    1    2    0    0 -0.89046826395E+01 -0.31422059365E+02  0.30818706857E+03  0.33417197432E+03  0.12500000000E+03 0.  0.
         25    1    1    2    0    0  0.67178014687E+02  0.11478457705E+03  0.57616360962E+03  0.60438223819E+03  0.12500000000E+03 0.  0.
         25    1    1    2    0    0 -0.58273332047E+02 -0.83362517685E+02  0.15227915557E+03  0.22171836145E+03  0.12500000000E+03 0.  0.
</event>
<event>
 5    0  0.6215905E-005  0.3346461E+03  0.7546771E-02  0.1069099E+00
         21   -1    0    0  502  501  0.00000000000E+00  0.00000000000E+00  0.16630245012E+03  0.16630245012E+03  0.00000000000E+00 0. -1.
         21   -1    0    0  501  502 -0.00000000000E+00 -0.00000000000E+00 -0.67339949505E+03  0.67339949505E+03  0.00000000000E+00 0. -1.
         25    1    1    2    0    0  0.23709200474E+02 -0.80059754929E+02 -0.29343797960E+03  0.32970068004E+03  0.12500000000E+03 0.  0.
         25    1    1    2    0    0 -0.19850622867E+03  0.78002909588E+02 -0.13074867177E+03  0.27965942126E+03  0.12500000000E+03 0.  0.
         25    1    1    2    0    0  0.17479702820E+03  0.20568453419E+01 -0.82910393551E+02  0.23034184387E+03  0.12500000000E+03 0.  0.
</event>
<event>
 5    0  0.5561624E-005  0.2489416E+03  0.7546771E-02  0.1113976E+00
         21   -1    0    0  502  501  0.00000000000E+00  0.00000000000E+00  0.31146649438E+03  0.31146649438E+03  0.00000000000E+00 0.  1.
         21   -1    0    0  501  502 -0.00000000000E+00 -0.00000000000E+00 -0.19896812693E+03  0.19896812693E+03  0.00000000000E+00 0.  1.
         25    1    1    2    0    0  0.73423327524E+02  0.90131988842E+02  0.10540199505E+03  0.20062238409E+03  0.12500000000E+03 0.  0.
         25    1    1    2    0    0  0.19983142076E+02 -0.80896188521E+02 -0.18676183570E+02  0.15138467266E+03  0.12500000000E+03 0.  0.
         25    1    1    2    0    0 -0.93406469600E+02 -0.92358003216E+01  0.25772555960E+02  0.15842756456E+03  0.12500000000E+03 0.  0.
</event>
<event>
 5    0  0.5561624E-005  0.4405013E+03  0.7546771E-02  0.1030593E+00
         21   -1    0    0  502  501  0.00000000000E+00  0.00000000000E+00  0.92710734391E+03  0.92710734391E+03  0.00000000000E+00 0. -1.
         21   -1    0    0  501  502 -0.00000000000E+00 -0.00000000000E+00 -0.20929766271E+03  0.20929766271E+03  0.00000000000E+00 0. -1.
         25    1    1    2    0    0  0.67574724892E+02  0.55216240625E+02  0.17690506326E+03  0.23352853804E+03  0.12500000000E+03 0.  0.
         25    1    1    2    0    0  0.21342750175E+03  0.73991905167E+02  0.50524914095E+03  0.56738681247E+03  0.12500000000E+03 0.  0.
         25    1    1    2    0    0 -0.28100222664E+03 -0.12920814579E+03  0.35655476991E+02  0.33548965611E+03  0.12500000000E+03 0.  0.
</event>
<event>
 5    0  0.5561624E-005  0.4356526E+03  0.7546771E-02  0.1032089E+00
         21   -1    0    0  502  501  0.00000000000E+00  0.00000000000E+00  0.36617172183E+03  0.36617172183E+03  0.00000000000E+00 0.  1.
         21   -1    0    0  501  502 -0.00000000000E+00 -0.00000000000E+00 -0.51831741188E+03  0.51831741188E+03  0.00000000000E+00 0.  1.
         25    1    1    2    0    0 -0.27294169650E+02  0.16450981180E+02  0.39517335415E+02  0.13491562651E+03  0.12500000000E+03 0.  0.
         25    1    1    2    0    0 -0.27158615685E+03 -0.19270760899E+03 -0.10168812175E+03  0.36994693844E+03  0.12500000000E+03 0.  0.
         25    1    1    2    0    0  0.29888032650E+03  0.17625662781E+03 -0.89974903715E+02  0.37962656876E+03  0.12500000000E+03 0.  0.
</event>
<event>
 5    0  0.5561624E-005  0.3216940E+03  0.7546771E-02  0.1074872E+00
         21   -1    0    0  502  501  0.00000000000E+00  0.00000000000E+00  0.12440985373E+03  0.12440985373E+03  0.00000000000E+00 0. -1.
         21   -1    0    0  501  502 -0.00000000000E+00 -0.00000000000E+00 -0.83182360914E+03  0.83182360914E+03  0.00000000000E+00 0. -1.
         25    1    1    2    0    0 -0.24359905389E+02 -0.91110592544E+02 -0.45516740823E+03  0.48134905690E+03  0.12500000000E+03 0.  0.
         25    1    1    2    0    0 -0.10232172416E+03 -0.16359040366E+02 -0.20668573310E+02  0.16367511527E+03  0.12500000000E+03 0.  0.
         25    1    1    2    0    0  0.12668162955E+03  0.10746963291E+03 -0.23157777388E+03  0.31120929070E+03  0.12500000000E+03 0.  0.
</event>
<event>
 5    0  0.5561624E-005  0.2816687E+03  0.7546771E-02  0.1094781E+00
         21   -1    0    0  502  501  0.00000000000E+00  0.00000000000E+00  0.20208105667E+03  0.20208105667E+03  0.00000000000E+00 0. -1.
         21   -1    0    0  501  502 -0.00000000000E+00 -0.00000000000E+00 -0.39260118145E+03  0.39260118145E+03  0.00000000000E+00 0. -1.
         25    1    1    2    0    0 -0.11816208230E+03  0.97088814960E+02 -0.14248943799E+02  0.19803168454E+03  0.12500000000E+03 0.  0.
         25    1    1    2    0    0  0.10510033062E+03 -0.81836056192E+02 -0.38109239820E+01  0.18270944894E+03  0.12500000000E+03 0.  0.
         25    1    1    2    0    0  0.13061751684E+02 -0.15252758768E+02 -0.17246025700E+03  0.21394110463E+03  0.12500000000E+03 0.  0.
</event>
<event>
 5    0  0.5561624E-005  0.4187678E+03  0.7546771E-02  0.1037468E+00
         21   -1    0    0  502  501  0.00000000000E+00  0.00000000000E+00  0.29246709161E+03  0.29246709161E+03  0.00000000000E+00 0. -1.
         21   -1    0    0  501  502 -0.00000000000E+00 -0.00000000000E+00 -0.59961105355E+03  0.59961105355E+03  0.00000000000E+00 0. -1.
         25    1    1    2    0    0  0.66084946539E+02  0.83879036742E+02 -0.23892629199E+02  0.16612877744E+03  0.12500000000E+03 0.  0.
         25    1    1    2    0    0 -0.86182518776E+02  0.24075235829E+03 -0.24473938158E+03  0.37538179159E+03  0.12500000000E+03 0.  0.
         25    1    1    2    0    0  0.20097572237E+02 -0.32463139503E+03 -0.38511951159E+02  0.35056757613E+03  0.12500000000E+03 0.  0.
</event>
<event>
 5    0  0.5561624E-005  0.4097010E+03  0.7546771E-02  0.1040471E+00
         21   -1    0    0  502  501  0.00000000000E+00  0.00000000000E+00  0.14936994514E+03  0.14936994514E+03  0.00000000000E+00 0. -1.
         21   -1    0    0  501  502 -0.00000000000E+00 -0.00000000000E+00 -0.11237526661E+04  0.11237526661E+04  0.00000000000E+00 0. -1.
         25    1    1    2    0    0  0.22093289200E+02  0.20257632420E+03 -0.53855712827E+03  0.58923175489E+03  0.12500000000E+03 0.  0.
         25    1    1    2    0    0  0.12293858935E+03  0.21924286188E+01 -0.34874068324E+03  0.39033801716E+03  0.12500000000E+03 0.  0.
         25    1    1    2    0    0 -0.14503187855E+03 -0.20476875282E+03 -0.87084909406E+02  0.29355283915E+03  0.12500000000E+03 0.  0.
</event>
<event>
 5    0  0.5561624E-005  0.2800896E+03  0.7546771E-02  0.1095640E+00
         21   -1    0    0  502  501  0.00000000000E+00  0.00000000000E+00  0.22691738781E+03  0.22691738781E+03  0.00000000000E+00 0.  1.
         21   -1    0    0  501  502 -0.00000000000E+00 -0.00000000000E+00 -0.34572130134E+03  0.34572130134E+03  0.00000000000E+00 0.  1.
         25    1    1    2    0    0  0.72612434733E+02  0.14795998830E+03  0.18238595433E+02  0.20765926461E+03  0.12500000000E+03 0.  0.
         25    1    1    2    0    0 -0.89992772298E+02 -0.14551906098E+03 -0.80559040299E+02  0.22669198298E+03  0.12500000000E+03 0.  0.
         25    1    1    2    0    0  0.17380337565E+02 -0.24409273212E+01 -0.56483468666E+02  0.13828744156E+03  0.12500000000E+03 0.  0.
</event>
<event>
 5    0  0.5561624E-005  0.2299945E+03  0.7546771E-02  0.1126644E+00
         21   -1    0    0  502  501  0.00000000000E+00  0.00000000000E+00  0.74053822802E+02  0.74053822802E+02  0.00000000000E+00 0. -1.
         21   -1    0    0  501  502 -0.00000000000E+00 -0.00000000000E+00 -0.71431108271E+03  0.71431108271E+03  0.00000000000E+00 0. -1.
         25    1    1    2    0    0 -0.10482758430E+02  0.74435656828E+02 -0.32706346347E+03  0.35811459670E+03  0.12500000000E+03 0.  0.
         25    1    1    2    0    0 -0.50167493448E+02 -0.39274524001E+02 -0.21423520196E+03  0.25608785093E+03  0.12500000000E+03 0.  0.
         25    1    1    2    0    0  0.60650251878E+02 -0.35161132826E+02 -0.98958594472E+02  0.17416245788E+03  0.12500000000E+03 0.  0.
</event>
<event>
 5    0  0.5561624E-005  0.3237691E+03  0.7546771E-02  0.1073928E+00
         21   -1    0    0  502  501  0.00000000000E+00  0.00000000000E+00  0.16490194097E+03  0.16490194097E+03  0.00000000000E+00 0.  1.
         21   -1    0    0  501  502 -0.00000000000E+00 -0.00000000000E+00 -0.63568955488E+03  0.63568955488E+03  0.00000000000E+00 0.  1.
         25    1    1    2    0    0 -0.90192030509E+02  0.88970271448E+02 -0.36091261995E+02  0.18159815737E+03  0.12500000000E+03 0.  0.
         25    1    1    2    0    0 -0.38094046405E+02  0.11136302907E+03 -0.15932775091E+03  0.23422897521E+03  0.12500000000E+03 0.  0.
         25    1    1    2    0    0  0.12828607691E+03 -0.20033330052E+03 -0.27536860101E+03  0.38476436328E+03  0.12500000000E+03 0.  0.
</event>
<event>
 5    0  0.7353724E-005  0.2862824E+03  0.7546771E-02  0.1092306E+00
         21   -1    0    0  502  501  0.00000000000E+00  0.00000000000E+00  0.62674326697E+03  0.62674326697E+03  0.00000000000E+00 0.  1.
         21   -1    0    0  501  502 -0.00000000000E+00 -0.00000000000E+00 -0.13076741571E+03  0.13076741571E+03  0.00000000000E+00 0.  1.
         25    1    1    2    0    0 -0.88484497228E+02 -0.10472321867E+03  0.14635496637E+03  0.23630750086E+03  0.12500000000E+03 0.  0.
         25    1    1    2    0    0  0.10317312417E+03  0.15032281709E+03  0.11044350514E+03  0.24711214199E+03  0.12500000000E+03 0.  0.
         25    1    1    2    0    0 -0.14688626945E+02 -0.45599598414E+02  0.23917737975E+03  0.27409103984E+03  0.12500000000E+03 0.  0.
</event>
<event>
 5    0  0.5561624E-005  0.2712302E+03  0.7546771E-02  0.1100578E+00
         21   -1    0    0  502  501  0.00000000000E+00  0.00000000000E+00  0.20898369794E+03  0.20898369794E+03  0.00000000000E+00 0.  1.
         21   -1    0    0  501  502 -0.00000000000E+00 -0.00000000000E+00 -0.35201693118E+03  0.35201693118E+03  0.00000000000E+00 0.  1.
         25    1    1    2    0    0  0.48763042127E+02 -0.71367481685E+02 -0.62350620178E+00  0.15197546012E+03  0.12500000000E+03 0.  0.
         25    1    1    2    0    0 -0.14493695436E+01 -0.13894026359E+02  0.70024212170E+02  0.14395671200E+03  0.12500000000E+03 0.  0.
         25    1    1    2    0    0 -0.47313672583E+02  0.85261508044E+02 -0.21243393920E+03  0.26506845699E+03  0.12500000000E+03 0.  0.
</event>
<event>
 5    0  0.5561624E-005  0.2734989E+03  0.7546771E-02  0.1099294E+00
         21   -1    0    0  502  501  0.00000000000E+00  0.00000000000E+00  0.25116091632E+03  0.25116091632E+03  0.00000000000E+00 0.  1.
         21   -1    0    0  501  502 -0.00000000000E+00 -0.00000000000E+00 -0.29782355096E+03  0.29782355096E+03  0.00000000000E+00 0.  1.
         25    1    1    2    0    0 -0.30848201941E+01  0.32538984646E+01 -0.14157157456E+03  0.18891165844E+03  0.12500000000E+03 0.  0.
         25    1    1    2    0    0 -0.18618981074E+01 -0.57155492735E+02  0.15844980183E+03  0.20976548027E+03  0.12500000000E+03 0.  0.
         25    1    1    2    0    0  0.49467183015E+01  0.53901594271E+02 -0.63540861914E+02  0.15030732856E+03  0.12500000000E+03 0.  0.
</event>
<event>
 5    0  0.5561624E-005  0.3167833E+03  0.7546771E-02  0.1077139E+00
         21   -1    0    0  502  501  0.00000000000E+00  0.00000000000E+00  0.56102173113E+03  0.56102173113E+03  0.00000000000E+00 0.  1.
         21   -1    0    0  501  502 -0.00000000000E+00 -0.00000000000E+00 -0.17887302378E+03  0.17887302378E+03  0.00000000000E+00 0.  1.
         25    1    1    2    0    0 -0.63911441311E+02 -0.22303348496E+03  0.16546824440E+03  0.31118057081E+03  0.12500000000E+03 0.  0.
         25    1    1    2    0    0 -0.84395594562E+01  0.45751544677E+02  0.12355659620E+03  0.18181216260E+03  0.12500000000E+03 0.  0.
         25    1    1    2    0    0  0.72351000767E+02  0.17728194029E+03  0.93123866744E+02  0.24690202150E+03  0.12500000000E+03 0.  0.
</event>
<event>
 5    0  0.5561624E-005  0.3633321E+03  0.7546771E-02  0.1057272E+00
         21   -1    0    0  502  501  0.00000000000E+00  0.00000000000E+00  0.23839680126E+03  0.23839680126E+03  0.00000000000E+00 0.  1.
         21   -1    0    0  501  502 -0.00000000000E+00 -0.00000000000E+00 -0.55374150524E+03  0.55374150524E+03  0.00000000000E+00 0.  1.
         25    1    1    2    0    0  0.22393432460E+02 -0.16358863191E+03 -0.30305455321E+03  0.36705553875E+03  0.12500000000E+03 0.  0.
         25    1    1    2    0    0  0.12752954113E+03  0.74956354744E+02  0.53349625594E+02  0.20088161073E+03  0.12500000000E+03 0.  0.
         25    1    1    2    0    0 -0.14992297359E+03  0.88632277166E+02 -0.65639776367E+02  0.22420115702E+03  0.12500000000E+03 0.  0.
</event>
<event>
 5    0  0.5561624E-005  0.2886764E+03  0.7546771E-02  0.1091042E+00
         21   -1    0    0  502  501  0.00000000000E+00  0.00000000000E+00  0.38484007294E+03  0.38484007294E+03  0.00000000000E+00 0.  1.
         21   -1    0    0  501  502 -0.00000000000E+00 -0.00000000000E+00 -0.21654206550E+03  0.21654206550E+03  0.00000000000E+00 0.  1.
         25    1    1    2    0    0  0.45788900585E+02  0.97270966158E+02 -0.58619727462E+02  0.17498438994E+03  0.12500000000E+03 0.  0.
         25    1    1    2    0    0  0.64213075048E+02  0.25372077970E+01  0.17687609395E+03  0.22592013863E+03  0.12500000000E+03 0.  0.
         25    1    1    2    0    0 -0.11000197563E+03 -0.99808173955E+02  0.50041640951E+02  0.20047760987E+03  0.12500000000E+03 0.  0.
</event>
<event>
 5    0  0.5561624E-005  0.3074688E+03  0.7546771E-02  0.1081566E+00
         21   -1    0    0  502  501  0.00000000000E+00  0.00000000000E+00  0.27883603100E+04  0.27883603100E+04  0.00000000000E+00 0. -1.
         21   -1    0    0  501  502 -0.00000000000E+00 -0.00000000000E+00 -0.33904178070E+02  0.33904178070E+02  0.00000000000E+00 0. -1.
         25    1    1    2    0    0  0.80294437016E+01 -0.77460552329E+01  0.15399663234E+03  0.19865657832E+03  0.12500000000E+03 0.  0.
         25    1    1    2    0    0 -0.10441491389E+03 -0.58339585301E+02  0.14960212369E+04  0.15059915414E+04  0.12500000000E+03 0.  0.
         25    1    1    2    0    0  0.96385470190E+02  0.66085640534E+02  0.11044382627E+04  0.11176163683E+04  0.12500000000E+03 0.  0.
</event>
<event>
 5    0  0.5752644E-005  0.2568891E+03  0.7546771E-02  0.1109027E+00
         21   -1    0    0  502  501  0.00000000000E+00  0.00000000000E+00  0.44420464669E+03  0.44420464669E+03  0.00000000000E+00 0. -1.
         21   -1    0    0  501  502 -0.00000000000E+00 -0.00000000000E+00 -0.14856212037E+03  0.14856212037E+03  0.00000000000E+00 0. -1.
         25    1    1    2    0    0  0.20730830195E+02  0.13396467509E+03  0.20608872756E+03  0.27653908425E+03  0.12500000000E+03 0.  0.
         25    1    1    2    0    0 -0.34418431051E+01 -0.12006471359E+03  0.29737090915E+02  0.17588824949E+03  0.12500000000E+03 0.  0.
         25    1    1    2    0    0 -0.17288987090E+02 -0.13899961507E+02  0.59816707854E+02  0.14033943331E+03  0.12500000000E+03 0.  0.
</event>
<event>
 5    0  0.5561624E-005  0.2976542E+03  0.7546771E-02  0.1086419E+00
         21   -1    0    0  502  501  0.00000000000E+00  0.00000000000E+00  0.18570658483E+03  0.18570658483E+03  0.00000000000E+00 0. -1.
         21   -1    0    0  501  502 -0.00000000000E+00 -0.00000000000E+00 -0.47708593307E+03  0.47708593307E+03  0.00000000000E+00 0. -1.
         25    1    1    2    0    0  0.72877309684E+02 -0.31507403632E+02  0.66185099502E+02  0.16220137529E+03  0.12500000000E+03 0.  0.
         25    1    1    2    0    0 -0.11743502792E+03 -0.58485952888E+02 -0.24478651360E+03  0.30456038762E+03  0.12500000000E+03 0.  0.
         25    1    1    2    0    0  0.44557718232E+02  0.89993356519E+02 -0.11277793414E+03  0.19603075498E+03  0.12500000000E+03 0.  0.
</event>
<event>
 5    0  0.5561624E-005  0.5293831E+03  0.7546771E-02  0.1006382E+00
         21   -1    0    0  502  501  0.00000000000E+00  0.00000000000E+00  0.68203305557E+03  0.68203305557E+03  0.00000000000E+00 0.  1.
         21   -1    0    0  501  502 -0.00000000000E+00 -0.00000000000E+00 -0.41089866365E+03  0.41089866365E+03  0.00000000000E+00 0.  1.
         25    1    1    2    0    0  0.54051656025E+02 -0.37992641621E+02  0.33273369775E+03  0.36152695053E+03  0.12500000000E+03 0.  0.
         25    1    1    2    0    0  0.21063805741E+03  0.13083869769E+03 -0.24787830445E+03  0.37223085560E+03  0.12500000000E+03 0.  0.
         25    1    1    2    0    0 -0.26468971343E+03 -0.92846056067E+02  0.18627899862E+03  0.35917391310E+03  0.12500000000E+03 0.  0.
</event>
<event>
 5    0  0.5561624E-005  0.2467175E+03  0.7546771E-02  0.1115397E+00
         21   -1    0    0  502  501  0.00000000000E+00  0.00000000000E+00  0.27637717005E+04  0.27637717005E+04  0.00000000000E+00 0.  1.
         21   -1    0    0  501  502 -0.00000000000E+00 -0.00000000000E+00 -0.22024071970E+02  0.22024071970E+02  0.00000000000E+00 0.  1.
         25    1    1    2    0    0  0.71605810650E+02  0.15231519501E+02  0.18183577604E+04  0.18241187835E+04  0.12500000000E+03 0.  0.
         25    1    1    2    0    0 -0.55569549935E+02 -0.18767641110E+02  0.39441576216E+03  0.41788633942E+03  0.12500000000E+03 0.  0.
         25    1    1    2    0    0 -0.16036260714E+02  0.35361216094E+01  0.52897410600E+03  0.54379064964E+03  0.12500000000E+03 0.  0.
</event>
<event>
 5    0  0.5561624E-005  0.3525955E+03  0.7546771E-02  0.1061555E+00
         21   -1    0    0  502  501  0.00000000000E+00  0.00000000000E+00  0.11363022254E+03  0.11363022254E+03  0.00000000000E+00 0.  1.
         21   -1    0    0  501  502 -0.00000000000E+00 -0.00000000000E+00 -0.10941067547E+04  0.10941067547E+04  0.00000000000E+00 0.  1.
         25    1    1    2    0    0 -0.10937234293E+03  0.83953168882E+02 -0.83823941198E+03  0.85865054345E+03  0.12500000000E+03 0.  0.
         25    1    1    2    0    0  0.10977349667E+03  0.24875067726E+01 -0.65171407699E+02  0.17868609527E+03  0.12500000000E+03 0.  0.
         25    1    1    2    0    0 -0.40115373634E+00 -0.86440675655E+02 -0.77065712481E+02  0.17040033853E+03  0.12500000000E+03 0.  0.
</event>
<event>
 5    0  0.5561624E-005  0.3040844E+03  0.7546771E-02  0.1083217E+00
         21   -1    0    0  502  501  0.00000000000E+00  0.00000000000E+00  0.27539754602E+03  0.27539754602E+03  0.00000000000E+00 0. -1.
         21   -1    0    0  501  502 -0.00000000000E+00 -0.00000000000E+00 -0.33575932383E+03  0.33575932383E+03  0.00000000000E+00 0. -1.
         25    1    1    2    0    0 -0.11812768026E+03  0.41263448404E+02 -0.18858922162E+03  0.25854925165E+03  0.12500000000E+03 0.  0.
         25    1    1    2    0    0  0.73743208936E+02  0.64411292819E+02  0.57892833352E+02  0.16900726511E+03  0.12500000000E+03 0.  0.
         25    1    1    2    0    0  0.44384471324E+02 -0.10567474122E+03  0.70334610463E+02  0.18360035309E+03  0.12500000000E+03 0.  0.
</event>
<event>
 5    0  0.5561624E-005  0.2465708E+03  0.7546771E-02  0.1115491E+00
         21   -1    0    0  502  501  0.00000000000E+00  0.00000000000E+00  0.16250680715E+03  0.16250680715E+03  0.00000000000E+00 0. -1.
         21   -1    0    0  501  502 -0.00000000000E+00 -0.00000000000E+00 -0.37412071015E+03  0.37412071015E+03  0.00000000000E+00 0. -1.
         25    1    1    2    0    0  0.14053788357E+02  0.81594685558E+02 -0.16901161851E+03  0.22593169071E+03  0.12500000000E+03 0.  0.
         25    1    1    2    0    0  0.40037864459E+02  0.26290923215E+02 -0.23270894383E+02  0.13587044476E+03  0.12500000000E+03 0.  0.
         25    1    1    2    0    0 -0.54091652817E+02 -0.10788560877E+03 -0.19331390109E+02  0.17482538182E+03  0.12500000000E+03 0.  0.
</event>
<event>
 5    0  0.6045213E-005  0.2694326E+03  0.7546771E-02  0.1101605E+00
         21   -1    0    0  502  501  0.00000000000E+00  0.00000000000E+00  0.26752098830E+03  0.26752098830E+03  0.00000000000E+00 0. -1.
         21   -1    0    0  501  502 -0.00000000000E+00 -0.00000000000E+00 -0.27135787503E+03  0.27135787503E+03  0.00000000000E+00 0. -1.
         25    1    1    2    0    0 -0.14546454386E+03 -0.57795117983E+02 -0.92840788218E+02  0.22078184061E+03  0.12500000000E+03 0.  0.
         25    1    1    2    0    0  0.81377431550E+02  0.59496197216E+02  0.74009166801E+02  0.17681753482E+03  0.12500000000E+03 0.  0.
         25    1    1    2    0    0  0.64087112315E+02 -0.17010792326E+01  0.14994734691E+02  0.14127948791E+03  0.12500000000E+03 0.  0.
</event>
<event>
 5    0  0.5561624E-005  0.2463557E+03  0.7546771E-02  0.1115630E+00
         21   -1    0    0  502  501  0.00000000000E+00  0.00000000000E+00  0.73595272899E+03  0.73595272899E+03  0.00000000000E+00 0.  1.
         21   -1    0    0  501  502 -0.00000000000E+00 -0.00000000000E+00 -0.82466098224E+02  0.82466098224E+02  0.00000000000E+00 0.  1.
         25    1    1    2    0    0  0.69001436567E+02 -0.55747566569E+02  0.23352535214E+03  0.27933506676E+03  0.12500000000E+03 0.  0.
         25    1    1    2    0    0 -0.83681764293E+00 -0.24120156530E+02  0.53857949553E+02  0.13823227172E+03  0.12500000000E+03 0.  0.
         25    1    1    2    0    0 -0.68164618924E+02  0.79867723099E+02  0.36610332907E+03  0.40085148873E+03  0.12500000000E+03 0.  0.
</event>
<event>
 5    0  0.5561624E-005  0.3821367E+03  0.7546771E-02  0.1050147E+00
         21   -1    0    0  502  501  0.00000000000E+00  0.00000000000E+00  0.11031412132E+04  0.11031412132E+04  0.00000000000E+00 0.  1.
         21   -1    0    0  501  502 -0.00000000000E+00 -0.00000000000E+00 -0.13237511144E+03  0.13237511144E+03  0.00000000000E+00 0.  1.
         25    1    1    2    0    0  0.18488338813E+03 -0.20341562120E+03  0.66054598494E+03  0.72629593168E+03  0.12500000000E+03 0.  0.
         25    1    1    2    0    0 -0.89066218714E+02  0.36595574817E+02  0.19984572233E+03  0.25462784637E+03  0.12500000000E+03 0.  0.
         25    1    1    2    0    0 -0.95817169415E+02  0.16682004639E+03  0.11037439451E+03  0.25459254662E+03  0.12500000000E+03 0.  0.
</event>
<event>
 5    0  0.5561624E-005  0.2347380E+03  0.7546771E-02  0.1123349E+00
         21   -1    0    0  502  501  0.00000000000E+00  0.00000000000E+00  0.31226305135E+03  0.31226305135E+03  0.00000000000E+00 0. -1.
         21   -1    0    0  501  502 -0.00000000000E+00 -0.00000000000E+00 -0.17646003951E+03  0.17646003951E+03  0.00000000000E+00 0. -1.
         25    1    1    2    0    0  0.43775857982E+02  0.37359593859E+02  0.40882719926E+02  0.14355647594E+03  0.12500000000E+03 0.  0.
         25    1    1    2    0    0 -0.91144292043E+02  0.55088677857E+02  0.77878279688E+02  0.18174727191E+03  0.12500000000E+03 0.  0.
         25    1    1    2    0    0  0.47368434061E+02 -0.92448271715E+02  0.17042012231E+02  0.16341934301E+03  0.12500000000E+03 0.  0.
</event>
<event>
 5    0  0.6540126E-005  0.4102936E+03  0.7546771E-02  0.1040273E+00
         21   -1    0    0  502  501  0.00000000000E+00  0.00000000000E+00  0.67366080656E+03  0.67366080656E+03  0.00000000000E+00 0. -1.
         21   -1    0    0  501  502 -0.00000000000E+00 -0.00000000000E+00 -0.24988962618E+03  0.24988962618E+03  0.00000000000E+00 0. -1.
         25    1    1    2    0    0  0.10132439031E+03 -0.59647816107E+02  0.47651629414E+03  0.50647534255E+03  0.12500000000E+03 0.  0.
         25    1    1    2    0    0 -0.15316919828E+03 -0.83923238262E+02 -0.88678733558E+01  0.21495942035E+03  0.12500000000E+03 0.  0.
         25    1    1    2    0    0  0.51844807967E+02  0.14357105437E+03 -0.43877240398E+02  0.20211566983E+03  0.12500000000E+03 0.  0.
</event>
<event>
 5    0  0.5561624E-005  0.3374637E+03  0.7546771E-02  0.1067881E+00
         21   -1    0    0  502  501  0.00000000000E+00  0.00000000000E+00  0.20972635068E+03  0.20972635068E+03  0.00000000000E+00 0. -1.
         21   -1    0    0  501  502 -0.00000000000E+00 -0.00000000000E+00 -0.54300161297E+03  0.54300161297E+03  0.00000000000E+00 0. -1.
         25    1    1    2    0    0 -0.80354159584E+02  0.14093680187E+03 -0.97235250182E+02  0.22671494649E+03  0.12500000000E+03 0.  0.
         25    1    1    2    0    0 -0.55875169941E+01  0.70103851229E+02  0.37951922199E+02  0.14836144614E+03  0.12500000000E+03 0.  0.
         25    1    1    2    0    0  0.85941676578E+02 -0.21104065310E+03 -0.27399193431E+03  0.37765157102E+03  0.12500000000E+03 0.  0.
</event>
<event>
 5    0  0.5561624E-005  0.3097223E+03  0.7546771E-02  0.1080479E+00
         21   -1    0    0  502  501  0.00000000000E+00  0.00000000000E+00  0.89701272061E+02  0.89701272061E+02  0.00000000000E+00 0.  1.
         21   -1    0    0  501  502 -0.00000000000E+00 -0.00000000000E+00 -0.10694148939E+04  0.10694148939E+04  0.00000000000E+00 0.  1.
         25    1    1    2    0    0  0.17958864254E+03 -0.91478315126E+01 -0.30279350800E+03  0.37369060978E+03  0.12500000000E+03 0.  0.
         25    1    1    2    0    0 -0.11492939485E+03  0.87971495029E+02 -0.17867487992E+03  0.26172019878E+03  0.12500000000E+03 0.  0.
         25    1    1    2    0    0 -0.64659247697E+02 -0.78823663517E+02 -0.49824523393E+03  0.52370535741E+03  0.12500000000E+03 0.  0.
</event>
<event>
 5    0  0.5561624E-005  0.3059517E+03  0.7546771E-02  0.1082303E+00
         21   -1    0    0  502  501  0.00000000000E+00  0.00000000000E+00  0.10362076199E+04  0.10362076199E+04  0.00000000000E+00 0. -1.
         21   -1    0    0  501  502 -0.00000000000E+00 -0.00000000000E+00 -0.90335583503E+02  0.90335583503E+02  0.00000000000E+00 0. -1.
         25    1    1    2    0    0  0.20038196668E+03 -0.27116343853E+02  0.24620352346E+03  0.34224173275E+03  0.12500000000E+03 0.  0.
         25    1    1    2    0    0 -0.73315499703E+02 -0.16984499288E+02  0.45870208211E+03  0.48134835187E+03  0.12500000000E+03 0.  0.
         25    1    1    2    0    0 -0.12706646697E+03  0.44100843141E+02  0.24096643082E+03  0.30295311878E+03  0.12500000000E+03 0.  0.
</event>
<event>
 5    0  0.5561624E-005  0.3629916E+03  0.7546771E-02  0.1057406E+00
         21   -1    0    0  502  501  0.00000000000E+00  0.00000000000E+00  0.11070644648E+03  0.11070644648E+03  0.00000000000E+00 0.  1.
         21   -1    0    0  501  502 -0.00000000000E+00 -0.00000000000E+00 -0.11902008204E+04  0.11902008204E+04  0.00000000000E+00 0.  1.
         25    1    1    2    0    0  0.13628155738E+03 -0.21040101199E+02 -0.15244151794E+03  0.24058005972E+03  0.12500000000E+03 0.  0.
         25    1    1    2    0    0 -0.14578726358E+02  0.68321101773E+02 -0.85309195581E+03  0.86502670322E+03  0.12500000000E+03 0.  0.
         25    1    1    2    0    0 -0.12170283102E+03 -0.47281000574E+02 -0.73960900197E+02  0.19530050397E+03  0.12500000000E+03 0.  0.
</event>
<event>
 5    0  0.5561624E-005  0.3382019E+03  0.7546771E-02  0.1067564E+00
         21   -1    0    0  502  501  0.00000000000E+00  0.00000000000E+00  0.71711208194E+03  0.71711208194E+03  0.00000000000E+00 0. -1.
         21   -1    0    0  501  502 -0.00000000000E+00 -0.00000000000E+00 -0.15950159970E+03  0.15950159970E+03  0.00000000000E+00 0. -1.
         25    1    1    2    0    0  0.43930335188E+02  0.17197059421E+02  0.25749899579E+03  0.29009713207E+03  0.12500000000E+03 0.  0.
         25    1    1    2    0    0 -0.50390670967E+02  0.19803927222E+03  0.75432569628E+02  0.25114506888E+03  0.12500000000E+03 0.  0.
         25    1    1    2    0    0  0.64603357792E+01 -0.21523633164E+03  0.22467891683E+03  0.33537148070E+03  0.12500000000E+03 0.  0.
</event>
<event>
 5    0  0.5561624E-005  0.2738189E+03  0.7546771E-02  0.1099114E+00
         21   -1    0    0  502  501  0.00000000000E+00  0.00000000000E+00  0.81770672697E+03  0.81770672697E+03  0.00000000000E+00 0. -1.
         21   -1    0    0  501  502 -0.00000000000E+00 -0.00000000000E+00 -0.91691572079E+02  0.91691572079E+02  0.00000000000E+00 0. -1.
         25    1    1    2    0    0 -0.94048594566E+02 -0.96483548313E+02  0.29957561937E+03  0.35146090103E+03  0.12500000000E+03 0.  0.
         25    1    1    2    0    0  0.13795852433E+03  0.32283241378E+02  0.33505439548E+03  0.38465726308E+03  0.12500000000E+03 0.  0.
         25    1    1    2    0    0 -0.43909929766E+02  0.64200306934E+02  0.91385140040E+02  0.17328013493E+03  0.12500000000E+03 0.  0.
</event>
<event>
 5    0  0.5561624E-005  0.5131985E+03  0.7546771E-02  0.1010390E+00
         21   -1    0    0  502  501  0.00000000000E+00  0.00000000000E+00  0.31638071058E+03  0.31638071058E+03  0.00000000000E+00 0. -1.
         21   -1    0    0  501  502 -0.00000000000E+00 -0.00000000000E+00 -0.83245484948E+03  0.83245484948E+03  0.00000000000E+00 0. -1.
         25    1    1    2    0    0 -0.99006640450E+02  0.15970405198E+03  0.20246052942E+03  0.30318800281E+03  0.12500000000E+03 0.  0.
         25    1    1    2    0    0  0.10994403887E+03 -0.18736488943E+03 -0.65699784244E+03  0.70318166816E+03  0.12500000000E+03 0.  0.
         25    1    1    2    0    0 -0.10937398421E+02  0.27660837453E+02 -0.61536825887E+02  0.14246588909E+03  0.12500000000E+03 0.  0.
</event>
<event>
 5    0  0.5561624E-005  0.3878437E+03  0.7546771E-02  0.1048072E+00
         21   -1    0    0  502  501  0.00000000000E+00  0.00000000000E+00  0.22492878495E+03  0.22492878495E+03  0.00000000000E+00 0. -1.
         21   -1    0    0  501  502 -0.00000000000E+00 -0.00000000000E+00 -0.66875716478E+03  0.66875716478E+03  0.00000000000E+00 0. -1.
         25    1    1    2    0    0  0.13305023123E+03 -0.86541977943E+02 -0.24041482456E+01  0.20204617766E+03  0.12500000000E+03 0.  0.
         25    1    1    2    0    0 -0.22377742866E+03 -0.12504186824E+02 -0.43856752529E+03  0.50813302048E+03  0.12500000000E+03 0.  0.
         25    1    1    2    0    0  0.90727197429E+02  0.99046164767E+02 -0.28567062883E+01  0.18350675159E+03  0.12500000000E+03 0.  0.
</event>
<event>
 5    0  0.5561624E-005  0.3490244E+03  0.7546771E-02  0.1063016E+00
         21   -1    0    0  502  501  0.00000000000E+00  0.00000000000E+00  0.70804533667E+03  0.70804533667E+03  0.00000000000E+00 0.  1.
         21   -1    0    0  501  502 -0.00000000000E+00 -0.00000000000E+00 -0.17204830894E+03  0.17204830894E+03  0.00000000000E+00 0.  1.
         25    1    1    2    0    0 -0.13736862854E+03  0.20469397779E+03  0.12129936160E+03  0.30184151433E+03  0.12500000000E+03 0.  0.
         25    1    1    2    0    0 -0.35600627614E+02 -0.53019960618E+02  0.12758107041E+03  0.18968513499E+03  0.12500000000E+03 0.  0.
         25    1    1    2    0    0  0.17296925615E+03 -0.15167401717E+03  0.28711659573E+03  0.38856699628E+03  0.12500000000E+03 0.  0.
</event>
<event>
 5    0  0.5561624E-005  0.3556994E+03  0.7546771E-02  0.1060300E+00
         21   -1    0    0  502  501  0.00000000000E+00  0.00000000000E+00  0.21962148971E+03  0.21962148971E+03  0.00000000000E+00 0. -1.
         21   -1    0    0  501  502 -0.00000000000E+00 -0.00000000000E+00 -0.57609139456E+03  0.57609139456E+03  0.00000000000E+00 0. -1.
         25    1    1    2    0    0 -0.22383116465E+02 -0.14330412667E+02 -0.24037307203E+02  0.13003521357E+03  0.12500000000E+03 0.  0.
         25    1    1    2    0    0 -0.29213112062E+02  0.17840008301E+03 -0.38799498894E+03  0.44592051643E+03  0.12500000000E+03 0.  0.
         25    1    1    2    0    0  0.51596228527E+02 -0.16406967034E+03  0.55562391298E+02  0.21975715426E+03  0.12500000000E+03 0.  0.
</event>
<event>
 5    0  0.5561624E-005  0.2420487E+03  0.7546771E-02  0.1118435E+00
         21   -1    0    0  502  501  0.00000000000E+00  0.00000000000E+00  0.88725712117E+03  0.88725712117E+03  0.00000000000E+00 0.  1.
         21   -1    0    0  501  502 -0.00000000000E+00 -0.00000000000E+00 -0.66032263404E+02  0.66032263404E+02  0.00000000000E+00 0.  1.
         25    1    1    2    0    0  0.76328558036E+02 -0.59593846174E+02  0.36386181990E+03  0.39673404096E+03  0.12500000000E+03 0.  0.
         25    1    1    2    0    0 -0.87425742859E+02  0.95840121520E+02  0.20889861641E+03  0.27584818532E+03  0.12500000000E+03 0.  0.
         25    1    1    2    0    0  0.11097184824E+02 -0.36246275347E+02  0.24846442145E+03  0.28070715828E+03  0.12500000000E+03 0.  0.
</event>
<event>
 5    0  0.5561624E-005  0.4260553E+03  0.7546771E-02  0.1035113E+00
         21   -1    0    0  502  501  0.00000000000E+00  0.00000000000E+00  0.15923019653E+03  0.15923019653E+03  0.00000000000E+00 0.  1.
         21   -1    0    0  501  502 -0.00000000000E+00 -0.00000000000E+00 -0.11400046074E+04  0.11400046074E+04  0.00000000000E+00 0.  1.
         25    1    1    2    0    0 -0.56229021971E+02 -0.86151293370E+02  0.36505593195E+02  0.16595603814E+03  0.12500000000E+03 0.  0.
         25    1    1    2    0    0 -0.89634584031E+02 -0.11072789894E+03 -0.22267852996E+03  0.29241366925E+03  0.12500000000E+03 0.  0.
         25    1    1    2    0    0  0.14586360600E+03  0.19687919231E+03 -0.79460147410E+03  0.84086509653E+03  0.12500000000E+03 0.  0.
</event>
<event>
 5    0  0.5561624E-005  0.3702373E+03  0.7546771E-02  0.1054602E+00
         21   -1    0    0  502  501  0.00000000000E+00  0.00000000000E+00  0.11759343361E+03  0.11759343361E+03  0.00000000000E+00 0. -1.
         21   -1    0    0  501  502 -0.00000000000E+00 -0.00000000000E+00 -0.11656743712E+04  0.11656743712E+04  0.00000000000E+00 0. -1.
         25    1    1    2    0    0 -0.12799237812E+03  0.13774596018E+03 -0.32944537640E+03  0.39939360840E+03  0.12500000000E+03 0.  0.
         25    1    1    2    0    0  0.18365752671E+03 -0.30384444110E+02 -0.10786717712E+03  0.24882449530E+03  0.12500000000E+03 0.  0.
         25    1    1    2    0    0 -0.55665148593E+02 -0.10736151607E+03 -0.61076838402E+03  0.63504970106E+03  0.12500000000E+03 0.  0.
</event>
<event>
 5    0  0.5561624E-005  0.9854038E+03  0.7546771E-02  0.9324700E-01
         21   -1    0    0  502  501  0.00000000000E+00  0.00000000000E+00  0.10021125105E+04  0.10021125105E+04  0.00000000000E+00 0.  1.
         21   -1    0    0  501  502 -0.00000000000E+00 -0.00000000000E+00 -0.96897359073E+03  0.96897359073E+03  0.00000000000E+00 0.  1.
         25    1    1    2    0    0 -0.51025883385E+03 -0.27870729909E+03  0.73960832232E+02  0.59928043585E+03  0.12500000000E+03 0.  0.
         25    1    1    2    0    0  0.57538703823E+02 -0.43402538558E+03 -0.21037065336E+03  0.50156709378E+03  0.12500000000E+03 0.  0.
         25    1    1    2    0    0  0.45272013003E+03  0.71273268467E+03  0.16954874088E+03  0.87023857158E+03  0.12500000000E+03 0.  0.
</event>
<event>
 5    0  0.5684292E-005  0.2892729E+03  0.7546771E-02  0.1090729E+00
         21   -1    0    0  502  501  0.00000000000E+00  0.00000000000E+00  0.14164041772E+03  0.14164041772E+03  0.00000000000E+00 0. -1.
         21   -1    0    0  501  502 -0.00000000000E+00 -0.00000000000E+00 -0.59078321898E+03  0.59078321898E+03  0.00000000000E+00 0. -1.
         25    1    1    2    0    0  0.95006119010E+02 -0.22726036843E+02 -0.28350252357E+03  0.32487123029E+03  0.12500000000E+03 0.  0.
         25    1    1    2    0    0 -0.80068434573E+02  0.27415667184E+02  0.48969845185E+02  0.15869977555E+03  0.12500000000E+03 0.  0.
         25    1    1    2    0    0 -0.14937684437E+02 -0.46896303414E+01 -0.21461012287E+03  0.24885263086E+03  0.12500000000E+03 0.  0.
</event>
<event>
 5    0  0.5561624E-005  0.2265627E+03  0.7546771E-02  0.1129083E+00
         21   -1    0    0  502  501  0.00000000000E+00  0.00000000000E+00  0.11133103627E+03  0.11133103627E+03  0.00000000000E+00 0.  1.
         21   -1    0    0  501  502 -0.00000000000E+00 -0.00000000000E+00 -0.46106334794E+03  0.46106334794E+03  0.00000000000E+00 0.  1.
         25    1    1    2    0    0  0.49588665941E+02 -0.15680191391E+02 -0.33484648155E+02  0.13946729313E+03  0.12500000000E+03 0.  0.
         25    1    1    2    0    0  0.41605375906E+02  0.13920759238E+02 -0.95345137497E+02  0.16321914743E+03  0.12500000000E+03 0.  0.
         25    1    1    2    0    0 -0.91194041847E+02  0.17594321526E+01 -0.22090252601E+03  0.26970794365E+03  0.12500000000E+03 0.  0.
</event>
<event>
 5    0  0.5561624E-005  0.2802137E+03  0.7546771E-02  0.1095572E+00
         21   -1    0    0  502  501  0.00000000000E+00  0.00000000000E+00  0.56556653313E+03  0.56556653313E+03  0.00000000000E+00 0. -1.
         21   -1    0    0  501  502 -0.00000000000E+00 -0.00000000000E+00 -0.13883372607E+03  0.13883372607E+03  0.00000000000E+00 0. -1.
         25    1    1    2    0    0 -0.69509850246E+02  0.28061911506E+02  0.36073513000E+03  0.38906801998E+03  0.12500000000E+03 0.  0.
         25    1    1    2    0    0  0.81423822380E+02  0.52666611366E+02  0.22150340873E+02  0.15974745195E+03  0.12500000000E+03 0.  0.
         25    1    1    2    0    0 -0.11913972134E+02 -0.80728522872E+02  0.43847336191E+02  0.15558478726E+03  0.12500000000E+03 0.  0.
</event>
<event>
 5    0  0.5561624E-005  0.2604194E+03  0.7546771E-02  0.1106891E+00
         21   -1    0    0  502  501  0.00000000000E+00  0.00000000000E+00  0.54834529090E+02  0.54834529090E+02  0.00000000000E+00 0.  1.
         21   -1    0    0  501  502 -0.00000000000E+00 -0.00000000000E+00 -0.12367804815E+04  0.12367804815E+04  0.00000000000E+00 0.  1.
         25    1    1    2    0    0 -0.77633083320E+01 -0.55398827090E+02 -0.10515235375E+03  0.17265953926E+03  0.12500000000E+03 0.  0.
         25    1    1    2    0    0 -0.23463483183E+02 -0.30397517722E+02 -0.69103094147E+03  0.70329460839E+03  0.12500000000E+03 0.  0.
         25    1    1    2    0    0  0.31226791515E+02  0.85796344813E+02 -0.38576265719E+03  0.41566086293E+03  0.12500000000E+03 0.  0.
</event>
<event>
 5    0  0.5561624E-005  0.3213577E+03  0.7546771E-02  0.1075026E+00
         21   -1    0    0  502  501  0.00000000000E+00  0.00000000000E+00  0.16224820770E+03  0.16224820770E+03  0.00000000000E+00 0. -1.
         21   -1    0    0  501  502 -0.00000000000E+00 -0.00000000000E+00 -0.63649856707E+03  0.63649856707E+03  0.00000000000E+00 0. -1.
         25    1    1    2    0    0  0.47660650551E+02 -0.34460002491E+02  0.28411906945E+02  0.14103639899E+03  0.12500000000E+03 0.  0.
         25    1    1    2    0    0  0.45448602124E+01 -0.12220420797E+03 -0.91570600393E+02  0.19739477971E+03  0.12500000000E+03 0.  0.
         25    1    1    2    0    0 -0.52205510763E+02  0.15666421046E+03 -0.41109166592E+03  0.46031559607E+03  0.12500000000E+03 0.  0.
</event>
<event>
 5    0  0.5630883E-005  0.4013757E+03  0.7546771E-02  0.1043304E+00
         21   -1    0    0  502  501  0.00000000000E+00  0.00000000000E+00  0.15362674350E+03  0.15362674350E+03  0.00000000000E+00 0. -1.
         21   -1    0    0  501  502 -0.00000000000E+00 -0.00000000000E+00 -0.10486614236E+04  0.10486614236E+04  0.00000000000E+00 0. -1.
         25    1    1    2    0    0 -0.22692844619E+03  0.15195045624E+02 -0.23567958616E+03  0.35056707836E+03  0.12500000000E+03 0.  0.
         25    1    1    2    0    0  0.76534959213E+02  0.13572817235E+03 -0.54316798501E+03  0.57873672485E+03  0.12500000000E+03 0.  0.
         25    1    1    2    0    0  0.15039348697E+03 -0.15092321798E+03 -0.11618710894E+03  0.27298436390E+03  0.12500000000E+03 0.  0.
</event>
<event>
 5    0  0.5561624E-005  0.5762241E+03  0.7546771E-02  0.9955999E-01
         21   -1    0    0  502  501  0.00000000000E+00  0.00000000000E+00  0.17315731979E+04  0.17315731979E+04  0.00000000000E+00 0. -1.
         21   -1    0    0  501  502 -0.00000000000E+00 -0.00000000000E+00 -0.19175294477E+03  0.19175294477E+03  0.00000000000E+00 0. -1.
         25    1    1    2    0    0 -0.19391513758E+03 -0.43954908082E+02  0.85304337268E+03  0.88478421674E+03  0.12500000000E+03 0.  0.
         25    1    1    2    0    0  0.54083898431E+02  0.25647626639E+03  0.69682629433E+03  0.75491524542E+03  0.12500000000E+03 0.  0.
         25    1    1    2    0    0  0.13983123915E+03 -0.21252135831E+03 -0.10049413874E+02  0.28362668051E+03  0.12500000000E+03 0.  0.
</event>
<event>
 5    0  0.5561624E-005  0.2485651E+03  0.7546771E-02  0.1114215E+00
         21   -1    0    0  502  501  0.00000000000E+00  0.00000000000E+00  0.57105332141E+02  0.57105332141E+02  0.00000000000E+00 0.  1.
         21   -1    0    0  501  502 -0.00000000000E+00 -0.00000000000E+00 -0.10819412721E+04  0.10819412721E+04  0.00000000000E+00 0.  1.
         25    1    1    2    0    0 -0.21058806966E+02  0.99642756006E+02 -0.16269719907E+03  0.22905792010E+03  0.12500000000E+03 0.  0.
         25    1    1    2    0    0 -0.22342301295E+02 -0.35613152721E+01 -0.40713121423E+03  0.42648878883E+03  0.12500000000E+03 0.  0.
         25    1    1    2    0    0  0.43401108260E+02 -0.96081440734E+02 -0.45500752666E+03  0.48349989531E+03  0.12500000000E+03 0.  0.
</event>
<event>
 5    0  0.5561624E-005  0.3384238E+03  0.7546771E-02  0.1067469E+00
         21   -1    0    0  502  501  0.00000000000E+00  0.00000000000E+00  0.61955160773E+03  0.61955160773E+03  0.00000000000E+00 0.  1.
         21   -1    0    0  501  502 -0.00000000000E+00 -0.00000000000E+00 -0.18486054332E+03  0.18486054332E+03  0.00000000000E+00 0.  1.
         25    1    1    2    0    0 -0.21612739126E+02 -0.75373746546E+02  0.23985949909E+03  0.28161301722E+03  0.12500000000E+03 0.  0.
         25    1    1    2    0    0  0.40944919977E+01 -0.92252063904E+02  0.26014893930E+03  0.30303412148E+03  0.12500000000E+03 0.  0.
         25    1    1    2    0    0  0.17518247128E+02  0.16762581045E+03 -0.65317373984E+02  0.21976501236E+03  0.12500000000E+03 0.  0.
</event>
<event>
 5    0  0.5561624E-005  0.2281052E+03  0.7546771E-02  0.1127981E+00
         21   -1    0    0  502  501  0.00000000000E+00  0.00000000000E+00  0.87779585958E+02  0.87779585958E+02  0.00000000000E+00 0.  1.
         21   -1    0    0  501  502 -0.00000000000E+00 -0.00000000000E+00 -0.59275731505E+03  0.59275731505E+03  0.00000000000E+00 0.  1.
         25    1    1    2    0    0 -0.27274876536E+02  0.83429024120E+02 -0.24710566717E+03  0.29050048486E+03  0.12500000000E+03 0.  0.
         25    1    1    2    0    0 -0.39293781640E+02 -0.15273047186E+02 -0.14808155499E+03  0.19831897079E+03  0.12500000000E+03 0.  0.
         25    1    1    2    0    0  0.66568658176E+02 -0.68155976934E+02 -0.10979050693E+03  0.19171744536E+03  0.12500000000E+03 0.  0.
</event>
<event>
 5    0  0.5561624E-005  0.3099194E+03  0.7546771E-02  0.1080385E+00
         21   -1    0    0  502  501  0.00000000000E+00  0.00000000000E+00  0.38528017194E+03  0.38528017194E+03  0.00000000000E+00 0. -1.
         21   -1    0    0  501  502 -0.00000000000E+00 -0.00000000000E+00 -0.24929921266E+03  0.24929921266E+03  0.00000000000E+00 0. -1.
         25    1    1    2    0    0  0.98005253595E+02 -0.13957942239E+02  0.17009491698E+02  0.16035640521E+03  0.12500000000E+03 0.  0.
         25    1    1    2    0    0  0.56282263638E+02  0.83163217584E+02 -0.84819570770E+02  0.18139231942E+03  0.12500000000E+03 0.  0.
         25    1    1    2    0    0 -0.15428751723E+03 -0.69205275345E+02  0.20379103835E+03  0.29283065997E+03  0.12500000000E+03 0.  0.
</event>
<event>
 5    0  0.5561624E-005  0.4463280E+03  0.7546771E-02  0.1028823E+00
         21   -1    0    0  502  501  0.00000000000E+00  0.00000000000E+00  0.42373348467E+03  0.42373348467E+03  0.00000000000E+00 0.  1.
         21   -1    0    0  501  502 -0.00000000000E+00 -0.00000000000E+00 -0.47012724172E+03  0.47012724172E+03  0.00000000000E+00 0.  1.
         25    1    1    2    0    0  0.37444269836E+02  0.38482298269E+03  0.40018625788E+02  0.40831028858E+03  0.12500000000E+03 0.  0.
         25    1    1    2    0    0  0.45086872285E+02 -0.17139717571E+03 -0.45895037393E+02  0.22167808271E+03  0.12500000000E+03 0.  0.
         25    1    1    2    0    0 -0.82531142122E+02 -0.21342580698E+03 -0.40517345441E+02  0.26387235510E+03  0.12500000000E+03 0.  0.
</event>
<event>
 5    0  0.5561624E-005  0.2611083E+03  0.7546771E-02  0.1106479E+00
         21   -1    0    0  502  501  0.00000000000E+00  0.00000000000E+00  0.10119435859E+04  0.10119435859E+04  0.00000000000E+00 0.  1.
         21   -1    0    0  501  502 -0.00000000000E+00 -0.00000000000E+00 -0.67372874755E+02  0.67372874755E+02  0.00000000000E+00 0.  1.
         25    1    1    2    0    0 -0.10583765380E+02 -0.14052232059E+03  0.27273001597E+03  0.33145919852E+03  0.12500000000E+03 0.  0.
         25    1    1    2    0    0  0.78674331523E+01 -0.94026420843E+01  0.18776709354E+03  0.22590216378E+03  0.12500000000E+03 0.  0.
         25    1    1    2    0    0  0.27163322282E+01  0.14992496268E+03  0.48407360159E+03  0.52195509831E+03  0.12500000000E+03 0.  0.
</event>
<event>
 5    0  0.5561624E-005  0.3200579E+03  0.7546771E-02  0.1075623E+00
         21   -1    0    0  502  501  0.00000000000E+00  0.00000000000E+00  0.10566202113E+04  0.10566202113E+04  0.00000000000E+00 0.  1.
         21   -1    0    0  501  502 -0.00000000000E+00 -0.00000000000E+00 -0.96947834333E+02  0.96947834333E+02  0.00000000000E+00 0.  1.
         25    1    1    2    0    0  0.61936190165E+01 -0.95225126103E+02  0.21200445139E+03  0.26396415091E+03  0.12500000000E+03 0.  0.
         25    1    1    2    0    0  0.68831315922E+02  0.18404166246E+03  0.65541797030E+03  0.69556221818E+03  0.12500000000E+03 0.  0.
         25    1    1    2    0    0 -0.75024934938E+02 -0.88816536354E+02  0.92249955316E+02  0.19404167658E+03  0.12500000000E+03 0.  0.
</event>
<event>
 5    0  0.5561624E-005  0.3719339E+03  0.7546771E-02  0.1053956E+00
         21   -1    0    0  502  501  0.00000000000E+00  0.00000000000E+00  0.11770051851E+03  0.11770051851E+03  0.00000000000E+00 0.  1.
         21   -1    0    0  501  502 -0.00000000000E+00 -0.00000000000E+00 -0.11753119677E+04  0.11753119677E+04  0.00000000000E+00 0.  1.
         25    1    1    2    0    0  0.33851157832E+02 -0.20362091796E+03 -0.18233396721E+03  0.30245339264E+03  0.12500000000E+03 0.  0.
         25    1    1    2    0    0 -0.11007179452E+03 -0.46493263633E+02 -0.29537365545E+03  0.34226892913E+03  0.12500000000E+03 0.  0.
         25    1    1    2    0    0  0.76220636690E+02  0.25011418159E+03 -0.57990382657E+03  0.64829016448E+03  0.12500000000E+03 0.  0.
</event>
<event>
 5    0  0.5561624E-005  0.3779729E+03  0.7546771E-02  0.1051686E+00
         21   -1    0    0  502  501  0.00000000000E+00  0.00000000000E+00  0.10146044068E+03  0.10146044068E+03  0.00000000000E+00 0. -1.
         21   -1    0    0  501  502 -0.00000000000E+00 -0.00000000000E+00 -0.14080713106E+04  0.14080713106E+04  0.00000000000E+00 0. -1.
         25    1    1    2    0    0 -0.11231292476E+03  0.67568301043E+02 -0.62749176172E+03  0.65310839789E+03  0.12500000000E+03 0.  0.
         25    1    1    2    0    0 -0.85457691171E+01  0.13735823033E+03 -0.85162215417E+02  0.20449429465E+03  0.12500000000E+03 0.  0.
         25    1    1    2    0    0  0.12085869388E+03 -0.20492653137E+03 -0.59395689283E+03  0.65192905878E+03  0.12500000000E+03 0.  0.
</event>
<event>
 5    0  0.5561624E-005  0.2830884E+03  0.7546771E-02  0.1094014E+00
         21   -1    0    0  502  501  0.00000000000E+00  0.00000000000E+00  0.47912899197E+03  0.47912899197E+03  0.00000000000E+00 0. -1.
         21   -1    0    0  501  502 -0.00000000000E+00 -0.00000000000E+00 -0.16725983273E+03  0.16725983273E+03  0.00000000000E+00 0. -1.
         25    1    1    2    0    0  0.82410048823E+02  0.12234922668E+03  0.16930338298E+03  0.25700074884E+03  0.12500000000E+03 0.  0.
         25    1    1    2    0    0 -0.39366751032E+02 -0.15427873148E+03  0.15187321844E+03  0.25306549064E+03  0.12500000000E+03 0.  0.
         25    1    1    2    0    0 -0.43043297791E+02  0.31929504799E+02 -0.93074421834E+01  0.13632258522E+03  0.12500000000E+03 0.  0.
</event>
<event>
 5    0  0.5561624E-005  0.2030613E+03  0.7546771E-02  0.1147182E+00
         21   -1    0    0  502  501  0.00000000000E+00  0.00000000000E+00  0.10096038499E+03  0.10096038499E+03  0.00000000000E+00 0.  1.
         21   -1    0    0  501  502 -0.00000000000E+00 -0.00000000000E+00 -0.40841637824E+03  0.40841637824E+03  0.00000000000E+00 0.  1.
         25    1    1    2    0    0 -0.32976041703E+02 -0.15683746591E+02 -0.36607261584E+02  0.13527191443E+03  0.12500000000E+03 0.  0.
         25    1    1    2    0    0  0.24104471581E+02  0.27154686243E+02 -0.16123736908E+03  0.20722184181E+03  0.12500000000E+03 0.  0.
         25    1    1    2    0    0  0.88715701220E+01 -0.11470939652E+02 -0.10961136259E+03  0.16688300699E+03  0.12500000000E+03 0.  0.
</event>
<event>
 5    0  0.5561624E-005  0.3494438E+03  0.7546771E-02  0.1062844E+00
         21   -1    0    0  502  501  0.00000000000E+00  0.00000000000E+00  0.58176619196E+03  0.58176619196E+03  0.00000000000E+00 0.  1.
         21   -1    0    0  501  502 -0.00000000000E+00 -0.00000000000E+00 -0.20989695322E+03  0.20989695322E+03  0.00000000000E+00 0.  1.
         25    1    1    2    0    0  0.52857897106E+02 -0.13132154467E+03  0.18391213331E+03  0.26360572482E+03  0.12500000000E+03 0.  0.
         25    1    1    2    0    0 -0.16139257932E+03  0.18477533183E+03  0.47044858255E+01  0.27538449502E+03  0.12500000000E+03 0.  0.
         25    1    1    2    0    0  0.10853468222E+03 -0.53453787157E+02  0.18325261961E+03  0.25267292534E+03  0.12500000000E+03 0.  0.
</event>
<event>
 5    0  0.5561624E-005  0.4104917E+03  0.7546771E-02  0.1040206E+00
         21   -1    0    0  502  501  0.00000000000E+00  0.00000000000E+00  0.55937611867E+03  0.55937611867E+03  0.00000000000E+00 0.  1.
         21   -1    0    0  501  502 -0.00000000000E+00 -0.00000000000E+00 -0.30123464060E+03  0.30123464060E+03  0.00000000000E+00 0.  1.
         25    1    1    2    0    0 -0.22032408082E+03  0.15581044306E+03  0.21558392979E+03  0.36731597507E+03  0.12500000000E+03 0.  0.
         25    1    1    2    0    0  0.69254015801E+02  0.40594414303E+02  0.13504207510E+03  0.20076201639E+03  0.12500000000E+03 0.  0.
         25    1    1    2    0    0  0.15107006502E+03 -0.19640485736E+03 -0.92484526829E+02  0.29253276781E+03  0.12500000000E+03 0.  0.
</event>
<event>
 5    0  0.5561624E-005  0.4753209E+03  0.7546771E-02  0.1020429E+00
         21   -1    0    0  502  501  0.00000000000E+00  0.00000000000E+00  0.43837078342E+03  0.43837078342E+03  0.00000000000E+00 0.  1.
         21   -1    0    0  501  502 -0.00000000000E+00 -0.00000000000E+00 -0.51538542688E+03  0.51538542688E+03  0.00000000000E+00 0.  1.
         25    1    1    2    0    0 -0.20021303626E+03  0.27810662230E+02  0.17719761468E+03  0.29645014331E+03  0.12500000000E+03 0.  0.
         25    1    1    2    0    0  0.15566404595E+03  0.23065371594E+03 -0.19117166267E+03  0.36000560619E+03  0.12500000000E+03 0.  0.
         25    1    1    2    0    0  0.44548990311E+02 -0.25846437817E+03 -0.63040595466E+02  0.29730046081E+03  0.12500000000E+03 0.  0.
</event>
<event>
 5    0  0.5561624E-005  0.3901395E+03  0.7546771E-02  0.1047249E+00
         21   -1    0    0  502  501  0.00000000000E+00  0.00000000000E+00  0.19031188413E+03  0.19031188413E+03  0.00000000000E+00 0.  1.
         21   -1    0    0  501  502 -0.00000000000E+00 -0.00000000000E+00 -0.79978628459E+03  0.79978628459E+03  0.00000000000E+00 0.  1.
         25    1    1    2    0    0  0.16089693847E+03  0.10667281862E+03 -0.12000352428E+03  0.25940848267E+03  0.12500000000E+03 0.  0.
         25    1    1    2    0    0 -0.21300152802E+03 -0.55583881188E+01 -0.50376780510E+03  0.56107713201E+03  0.12500000000E+03 0.  0.
         25    1    1    2    0    0  0.52104589541E+02 -0.10111443051E+03  0.14296928919E+02  0.16961255403E+03  0.12500000000E+03 0.  0.
</event>
<event>
 5    0  0.5561624E-005  0.3186558E+03  0.7546771E-02  0.1076270E+00
         21   -1    0    0  502  501  0.00000000000E+00  0.00000000000E+00  0.13588215684E+03  0.13588215684E+03  0.00000000000E+00 0.  1.
         21   -1    0    0  501  502 -0.00000000000E+00 -0.00000000000E+00 -0.74727616712E+03  0.74727616712E+03  0.00000000000E+00 0.  1.
         25    1    1    2    0    0  0.73804677820E+02 -0.16538246348E+02 -0.67537513654E+02  0.16095639102E+03  0.12500000000E+03 0.  0.
         25    1    1    2    0    0  0.11261190964E+03 -0.10563018544E+03 -0.34616906852E+03  0.39912053601E+03  0.12500000000E+03 0.  0.
         25    1    1    2    0    0 -0.18641658746E+03  0.12216843179E+03 -0.19768742811E+03  0.32308139692E+03  0.12500000000E+03 0.  0.
</event>
<event>
 5    0  0.5964826E-005  0.5927602E+03  0.7546771E-02  0.9920541E-01
         21   -1    0    0  502  501  0.00000000000E+00  0.00000000000E+00  0.27685885154E+03  0.27685885154E+03  0.00000000000E+00 0.  1.
         21   -1    0    0  501  502 -0.00000000000E+00 -0.00000000000E+00 -0.12691111915E+04  0.12691111915E+04  0.00000000000E+00 0.  1.
         25    1    1    2    0    0  0.15260238498E+03  0.25374403965E+03 -0.14044807720E+03  0.35074804055E+03  0.12500000000E+03 0.  0.
         25    1    1    2    0    0  0.15039427690E+03  0.22112688084E+02 -0.72087694154E+03  0.74725897408E+03  0.12500000000E+03 0.  0.
         25    1    1    2    0    0 -0.30299666188E+03 -0.27585672774E+03 -0.13092732117E+03  0.44796302836E+03  0.12500000000E+03 0.  0.
</event>
<event>
 5    0  0.5561624E-005  0.5855670E+03  0.7546771E-02  0.9935811E-01
         21   -1    0    0  502  501  0.00000000000E+00  0.00000000000E+00  0.12741914595E+04  0.12741914595E+04  0.00000000000E+00 0. -1.
         21   -1    0    0  501  502 -0.00000000000E+00 -0.00000000000E+00 -0.26910296695E+03  0.26910296695E+03  0.00000000000E+00 0. -1.
         25    1    1    2    0    0 -0.21982818907E+02  0.25991684624E+03  0.86873845983E+03  0.91562630089E+03  0.12500000000E+03 0.  0.
         25    1    1    2    0    0  0.31081058860E+02 -0.23010527054E+03 -0.15726280858E+03  0.30703592414E+03  0.12500000000E+03 0.  0.
         25    1    1    2    0    0 -0.90982399533E+01 -0.29811575700E+02  0.29361284131E+03  0.32063220144E+03  0.12500000000E+03 0.  0.
</event>
<event>
 5    0  0.5561624E-005  0.4050055E+03  0.7546771E-02  0.1042060E+00
         21   -1    0    0  502  501  0.00000000000E+00  0.00000000000E+00  0.57178269793E+03  0.57178269793E+03  0.00000000000E+00 0. -1.
         21   -1    0    0  501  502 -0.00000000000E+00 -0.00000000000E+00 -0.28687379480E+03  0.28687379480E+03  0.00000000000E+00 0. -1.
         25    1    1    2    0    0  0.48859113104E+02  0.64672916292E+02  0.74201779850E+02  0.16643528222E+03  0.12500000000E+03 0.  0.
         25    1    1    2    0    0  0.19990380304E+03 -0.21641771707E+03  0.19499266235E+03  0.37476031954E+03  0.12500000000E+03 0.  0.
         25    1    1    2    0    0 -0.24876291615E+03  0.15174480077E+03  0.15714460933E+02  0.31746089097E+03  0.12500000000E+03 0.  0.
</event>
<event>
 5    0  0.5561624E-005  0.3060581E+03  0.7546771E-02  0.1082251E+00
         21   -1    0    0  502  501  0.00000000000E+00  0.00000000000E+00  0.10521358200E+03  0.10521358200E+03  0.00000000000E+00 0. -1.
         21   -1    0    0  501  502 -0.00000000000E+00 -0.00000000000E+00 -0.89029916012E+03  0.89029916012E+03  0.00000000000E+00 0. -1.
         25    1    1    2    0    0 -0.79637061201E+01  0.74509777266E+02 -0.57346577094E+03  0.59169512248E+03  0.12500000000E+03 0.  0.
         25    1    1    2    0    0  0.29301492153E+02 -0.12288674025E+03 -0.20006832059E+03  0.26760429981E+03  0.12500000000E+03 0.  0.
         25    1    1    2    0    0 -0.21337786032E+02  0.48376962980E+02 -0.11551486589E+02  0.13621331984E+03  0.12500000000E+03 0.  0.
</event>
<event>
 5    0  0.5561624E-005  0.3115660E+03  0.7546771E-02  0.1079598E+00
         21   -1    0    0  502  501  0.00000000000E+00  0.00000000000E+00  0.19885797549E+03  0.19885797549E+03  0.00000000000E+00 0.  1.
         21   -1    0    0  501  502 -0.00000000000E+00 -0.00000000000E+00 -0.48815433988E+03  0.48815433988E+03  0.00000000000E+00 0.  1.
         25    1    1    2    0    0  0.91109845886E+02 -0.52048636915E+01  0.31047203240E+02  0.15785127004E+03  0.12500000000E+03 0.  0.
         25    1    1    2    0    0  0.56901417525E+02  0.11084161987E+03 -0.23193259542E+03  0.29144701891E+03  0.12500000000E+03 0.  0.
         25    1    1    2    0    0 -0.14801126341E+03 -0.10563675618E+03 -0.88410972215E+02  0.23771402643E+03  0.12500000000E+03 0.  0.
</event>
<event>
 5    0  0.5561624E-005  0.4280642E+03  0.7546771E-02  0.1034473E+00
         21   -1    0    0  502  501  0.00000000000E+00  0.00000000000E+00  0.33968901190E+03  0.33968901190E+03  0.00000000000E+00 0. -1.
         21   -1    0    0  501  502 -0.00000000000E+00 -0.00000000000E+00 -0.53943148585E+03  0.53943148585E+03  0.00000000000E+00 0.  1.
         25    1    1    2    0    0 -0.29127253477E+03  0.18530442647E+03 -0.81964568787E+02  0.37619225207E+03  0.12500000000E+03 0.  0.
         25    1    1    2    0    0  0.15610402313E+03 -0.17906401768E+03  0.25375099071E+02  0.26963175651E+03  0.12500000000E+03 0.  0.
         25    1    1    2    0    0  0.13516851163E+03 -0.62404087985E+01 -0.14315300423E+03  0.23329648917E+03  0.12500000000E+03 0.  0.
</event>
<event>
 5    0  0.5561624E-005  0.2756642E+03  0.7546771E-02  0.1098081E+00
         21   -1    0    0  502  501  0.00000000000E+00  0.00000000000E+00  0.36178891345E+03  0.36178891345E+03  0.00000000000E+00 0.  1.
         21   -1    0    0  501  502 -0.00000000000E+00 -0.00000000000E+00 -0.21004170481E+03  0.21004170481E+03  0.00000000000E+00 0.  1.
         25    1    1    2    0    0  0.12018827806E+03 -0.23235239512E+02  0.11896630001E+03  0.21157286943E+03  0.12500000000E+03 0.  0.
         25    1    1    2    0    0  0.28357265519E+02  0.48566351125E+02  0.80203802575E+02  0.15880955550E+03  0.12500000000E+03 0.  0.
         25    1    1    2    0    0 -0.14854554358E+03 -0.25331111613E+02 -0.47422893951E+02  0.20144819335E+03  0.12500000000E+03 0.  0.
</event>
<event>
 5    0  0.5561624E-005  0.2350324E+03  0.7546771E-02  0.1123147E+00
         21   -1    0    0  502  501  0.00000000000E+00  0.00000000000E+00  0.27207464214E+03  0.27207464214E+03  0.00000000000E+00 0.  1.
         21   -1    0    0  501  502 -0.00000000000E+00 -0.00000000000E+00 -0.20303341267E+03  0.20303341267E+03  0.00000000000E+00 0.  1.
         25    1    1    2    0    0 -0.50485828193E+02 -0.91251008769E+02 -0.55964179879E+02  0.17214109004E+03  0.12500000000E+03 0.  0.
         25    1    1    2    0    0  0.60227770517E+01  0.62645586509E+02  0.70584589952E+02  0.15674159528E+03  0.12500000000E+03 0.  0.
         25    1    1    2    0    0  0.44463051142E+02  0.28605422260E+02  0.54420819393E+02  0.14622536949E+03  0.12500000000E+03 0.  0.
</event>
<event>
 5    0  0.5561624E-005  0.3034351E+03  0.7546771E-02  0.1083536E+00
         21   -1    0    0  502  501  0.00000000000E+00  0.00000000000E+00  0.32243323788E+03  0.32243323788E+03  0.00000000000E+00 0. -1.
         21   -1    0    0  501  502 -0.00000000000E+00 -0.00000000000E+00 -0.28555631096E+03  0.28555631096E+03  0.00000000000E+00 0. -1.
         25    1    1    2    0    0  0.73949372377E+02  0.83058152393E+02 -0.14729013006E+03  0.22290479754E+03  0.12500000000E+03 0.  0.
         25    1    1    2    0    0 -0.93713352009E+02 -0.87002443389E+02  0.18659669168E+03  0.25844717612E+03  0.12500000000E+03 0.  0.
         25    1    1    2    0    0  0.19763979632E+02  0.39442909958E+01 -0.24296346921E+01  0.12663757518E+03  0.12500000000E+03 0.  0.
</event>
<event>
 5    0  0.5561624E-005  0.3454372E+03  0.7546771E-02  0.1064504E+00
         21   -1    0    0  502  501  0.00000000000E+00  0.00000000000E+00  0.17377788802E+04  0.17377788802E+04  0.00000000000E+00 0.  1.
         21   -1    0    0  501  502 -0.00000000000E+00 -0.00000000000E+00 -0.68666290636E+02  0.68666290636E+02  0.00000000000E+00 0.  1.
         25    1    1    2    0    0 -0.62276791588E+02  0.39777527864E+01  0.17848194586E+03  0.22666059712E+03  0.12500000000E+03 0.  0.
         25    1    1    2    0    0  0.25864219445E+03 -0.17360335048E+02  0.74997304575E+03  0.80329430182E+03  0.12500000000E+03 0.  0.
         25    1    1    2    0    0 -0.19636540286E+03  0.13382582261E+02  0.74065759796E+03  0.77649027191E+03  0.12500000000E+03 0.  0.
</event>
<event>
 5    0  0.5561624E-005  0.6761200E+03  0.7546771E-02  0.9758965E-01
         21   -1    0    0  502  501  0.00000000000E+00  0.00000000000E+00  0.63997995697E+03  0.63997995697E+03  0.00000000000E+00 0. -1.
         21   -1    0    0  501  502 -0.00000000000E+00 -0.00000000000E+00 -0.71430092657E+03  0.71430092657E+03  0.00000000000E+00 0. -1.
         25    1    1    2    0    0  0.27743104188E+02 -0.14053868199E+03  0.49010177810E+02  0.19633593277E+03  0.12500000000E+03 0.  0.
         25    1    1    2    0    0 -0.48837266511E+03  0.36570407095E+03 -0.88651678352E+02  0.62907189383E+03  0.12500000000E+03 0.  0.
         25    1    1    2    0    0  0.46062956092E+03 -0.22516538895E+03 -0.34679469054E+02  0.52887305694E+03  0.12500000000E+03 0.  0.
</event>
<event>
 5    0  0.5561624E-005  0.2796786E+03  0.7546771E-02  0.1095865E+00
         21   -1    0    0  502  501  0.00000000000E+00  0.00000000000E+00  0.16912854198E+03  0.16912854198E+03  0.00000000000E+00 0. -1.
         21   -1    0    0  501  502 -0.00000000000E+00 -0.00000000000E+00 -0.46248916625E+03  0.46248916625E+03  0.00000000000E+00 0. -1.
         25    1    1    2    0    0  0.50369567065E+02 -0.35420098829E+02 -0.19970407791E+02  0.14076751712E+03  0.12500000000E+03 0.  0.
         25    1    1    2    0    0  0.81625478102E+02  0.67982847375E+02 -0.38215613387E+01  0.16408531483E+03  0.12500000000E+03 0.  0.
         25    1    1    2    0    0 -0.13199504517E+03 -0.32562748546E+02 -0.26956865513E+03  0.32676487628E+03  0.12500000000E+03 0.  0.
</event>
<event>
 5    0  0.5561624E-005  0.4551884E+03  0.7546771E-02  0.1026186E+00
         21   -1    0    0  502  501  0.00000000000E+00  0.00000000000E+00  0.17300191050E+04  0.17300191050E+04  0.00000000000E+00 0.  1.
         21   -1    0    0  501  502 -0.00000000000E+00 -0.00000000000E+00 -0.11976543604E+03  0.11976543604E+03  0.00000000000E+00 0.  1.
         25    1    1    2    0    0  0.21239850093E+03 -0.30676934227E+03  0.45237142766E+03  0.59957106427E+03  0.12500000000E+03 0.  0.
         25    1    1    2    0    0 -0.14056934622E+03  0.12784189206E+03  0.42331093956E+03  0.48054182130E+03  0.12500000000E+03 0.  0.
         25    1    1    2    0    0 -0.71829154714E+02  0.17892745020E+03  0.73457130178E+03  0.76967165551E+03  0.12500000000E+03 0.  0.
</event>
<event>
 5    0  0.5561624E-005  0.4039582E+03  0.7546771E-02  0.1042418E+00
         21   -1    0    0  502  501  0.00000000000E+00  0.00000000000E+00  0.56114993523E+03  0.56114993523E+03  0.00000000000E+00 0.  1.
         21   -1    0    0  501  502 -0.00000000000E+00 -0.00000000000E+00 -0.29079963036E+03  0.29079963036E+03  0.00000000000E+00 0.  1.
         25    1    1    2    0    0  0.28190463564E+02  0.22230582951E+02  0.81211869900E+02  0.15332732590E+03  0.12500000000E+03 0.  0.
         25    1    1    2    0    0  0.16883966041E+03  0.84088540253E+02  0.33451594243E+03  0.40386090337E+03  0.12500000000E+03 0.  0.
         25    1    1    2    0    0 -0.19703012398E+03 -0.10631912320E+03 -0.14537750746E+03  0.29476133632E+03  0.12500000000E+03 0.  0.
</event>
<event>
 5    0  0.5561624E-005  0.4289746E+03  0.7546771E-02  0.1034184E+00
         21   -1    0    0  502  501  0.00000000000E+00  0.00000000000E+00  0.16771797126E+03  0.16771797126E+03  0.00000000000E+00 0.  1.
         21   -1    0    0  501  502 -0.00000000000E+00 -0.00000000000E+00 -0.10971941132E+04  0.10971941132E+04  0.00000000000E+00 0.  1.
         25    1    1    2    0    0 -0.11203784900E+03 -0.25784394495E+02 -0.73297721120E+03  0.75239478118E+03  0.12500000000E+03 0.  0.
         25    1    1    2    0    0  0.58353171735E+02  0.19811246498E+03 -0.16084827688E+03  0.29008758954E+03  0.12500000000E+03 0.  0.
         25    1    1    2    0    0  0.53684677263E+02 -0.17232807048E+03 -0.35650653893E+02  0.22242971378E+03  0.12500000000E+03 0.  0.
</event>
<event>
 5    0  0.5561624E-005  0.3241986E+03  0.7546771E-02  0.1073733E+00
         21   -1    0    0  502  501  0.00000000000E+00  0.00000000000E+00  0.99929562371E+03  0.99929562371E+03  0.00000000000E+00 0. -1.
         21   -1    0    0  501  502 -0.00000000000E+00 -0.00000000000E+00 -0.10517882295E+03  0.10517882295E+03  0.00000000000E+00 0. -1.
         25    1    1    2    0    0 -0.62836397626E+02  0.10020566715E+02 -0.24458563094E+02  0.14237993515E+03  0.12500000000E+03 0.  0.
         25    1    1    2    0    0  0.62971169090E+02 -0.21230382005E+02  0.31117456340E+03  0.34186357829E+03  0.12500000000E+03 0.  0.
         25    1    1    2    0    0 -0.13477146391E+00  0.11209815290E+02  0.60740080045E+03  0.62023093321E+03  0.12500000000E+03 0.  0.
</event>
<event>
 5    0  0.5561624E-005  0.2578116E+03  0.7546771E-02  0.1108465E+00
         21   -1    0    0  502  501  0.00000000000E+00  0.00000000000E+00  0.23198459164E+03  0.23198459164E+03  0.00000000000E+00 0.  1.
         21   -1    0    0  501  502 -0.00000000000E+00 -0.00000000000E+00 -0.28651389900E+03  0.28651389900E+03  0.00000000000E+00 0.  1.
         25    1    1    2    0    0 -0.36395408952E+02 -0.66686817992E+02  0.46377385418E+02  0.15345233581E+03  0.12500000000E+03 0.  0.
         25    1    1    2    0    0 -0.61441159878E+02  0.58761265412E+02  0.35861338493E+02  0.15536710732E+03  0.12500000000E+03 0.  0.
         25    1    1    2    0    0  0.97836568829E+02  0.79255525802E+01 -0.13676803128E+03  0.20967904751E+03  0.12500000000E+03 0.  0.
</event>
<event>
 5    0  0.5561624E-005  0.2494944E+03  0.7546771E-02  0.1113625E+00
         21   -1    0    0  502  501  0.00000000000E+00  0.00000000000E+00  0.61425508173E+02  0.61425508173E+02  0.00000000000E+00 0.  1.
         21   -1    0    0  501  502 -0.00000000000E+00 -0.00000000000E+00 -0.10133809711E+04  0.10133809711E+04  0.00000000000E+00 0.  1.
         25    1    1    2    0    0 -0.52628515540E+02  0.43404557665E+02 -0.68821267299E+03  0.70279114930E+03  0.12500000000E+03 0.  0.
         25    1    1    2    0    0  0.11126558063E+02 -0.35494431186E+02 -0.13142844143E+03  0.18515423343E+03  0.12500000000E+03 0.  0.
         25    1    1    2    0    0  0.41501957477E+02 -0.79101264783E+01 -0.13231434846E+03  0.18686109649E+03  0.12500000000E+03 0.  0.
</event>
<event>
 5    0  0.5561624E-005  0.3260366E+03  0.7546771E-02  0.1072904E+00
         21   -1    0    0  502  501  0.00000000000E+00  0.00000000000E+00  0.81154633442E+03  0.81154633442E+03  0.00000000000E+00 0. -1.
         21   -1    0    0  501  502 -0.00000000000E+00 -0.00000000000E+00 -0.13098433639E+03  0.13098433639E+03  0.00000000000E+00 0. -1.
         25    1    1    2    0    0  0.33215604563E+02  0.13601209169E+02 -0.18396388736E+02  0.13134571328E+03  0.12500000000E+03 0.  0.
         25    1    1    2    0    0 -0.14981610234E+01  0.97116478741E+02  0.58624075659E+03  0.60723725151E+03  0.12500000000E+03 0.  0.
         25    1    1    2    0    0 -0.31717443539E+02 -0.11071768791E+03  0.11271763018E+03  0.20394770603E+03  0.12500000000E+03 0.  0.
</event>
<event>
 5    0  0.5561624E-005  0.3824177E+03  0.7546771E-02  0.1050044E+00
         21   -1    0    0  502  501  0.00000000000E+00  0.00000000000E+00  0.52867369331E+03  0.52867369331E+03  0.00000000000E+00 0. -1.
         21   -1    0    0  501  502 -0.00000000000E+00 -0.00000000000E+00 -0.27662304628E+03  0.27662304628E+03  0.00000000000E+00 0. -1.
         25    1    1    2    0    0 -0.91573993472E+02  0.22069512919E+02  0.19592391231E+03  0.25076690191E+03  0.12500000000E+03 0.  0.
         25    1    1    2    0    0  0.13595991325E+03 -0.38681547476E+02 -0.19417942106E+03  0.27076190222E+03  0.12500000000E+03 0.  0.
         25    1    1    2    0    0 -0.44385919780E+02  0.16612034556E+02  0.25030615579E+03  0.28376793545E+03  0.12500000000E+03 0.  0.
</event>
<event>
 5    0  0.5561624E-005  0.3351448E+03  0.7546771E-02  0.1068883E+00
         21   -1    0    0  502  501  0.00000000000E+00  0.00000000000E+00  0.19278135665E+03  0.19278135665E+03  0.00000000000E+00 0.  1.
         21   -1    0    0  501  502 -0.00000000000E+00 -0.00000000000E+00 -0.58263938182E+03  0.58263938182E+03  0.00000000000E+00 0.  1.
         25    1    1    2    0    0 -0.88068975686E+02  0.58634323030E+02 -0.74326786624E+02  0.17984326378E+03  0.12500000000E+03 0.  0.
         25    1    1    2    0    0 -0.10382218297E+02 -0.22728829123E+03 -0.97514775348E+02  0.27731189877E+03  0.12500000000E+03 0.  0.
         25    1    1    2    0    0  0.98451193983E+02  0.16865396821E+03 -0.21801646320E+03  0.31826557592E+03  0.12500000000E+03 0.  0.
</event>
<event>
 5    0  0.5561624E-005  0.2613107E+03  0.7546771E-02  0.1106358E+00
         21   -1    0    0  502  501  0.00000000000E+00  0.00000000000E+00  0.25362606080E+03  0.25362606080E+03  0.00000000000E+00 0. -1.
         21   -1    0    0  501  502 -0.00000000000E+00 -0.00000000000E+00 -0.26922808943E+03  0.26922808943E+03  0.00000000000E+00 0. -1.
         25    1    1    2    0    0  0.62538355803E+01  0.79626186232E+02 -0.11933640580E+03  0.19038281893E+03  0.12500000000E+03 0.  0.
         25    1    1    2    0    0 -0.73640731004E+02 -0.11742199021E+02  0.97029725207E+02  0.17493028347E+03  0.12500000000E+03 0.  0.
         25    1    1    2    0    0  0.67386895424E+02 -0.67883987211E+02  0.67046519730E+01  0.15754104783E+03  0.12500000000E+03 0.  0.
</event>
<event>
 5    0  0.5561624E-005  0.2353672E+03  0.7546771E-02  0.1122918E+00
         21   -1    0    0  502  501  0.00000000000E+00  0.00000000000E+00  0.82326803487E+02  0.82326803487E+02  0.00000000000E+00 0.  1.
         21   -1    0    0  501  502 -0.00000000000E+00 -0.00000000000E+00 -0.67290022999E+03  0.67290022999E+03  0.00000000000E+00 0.  1.
         25    1    1    2    0    0 -0.69710984075E+02  0.94067022416E+02 -0.30754062592E+03  0.35201486133E+03  0.12500000000E+03 0.  0.
         25    1    1    2    0    0  0.74587308307E+02 -0.45336207482E+02 -0.13896654507E+03  0.20628945421E+03  0.12500000000E+03 0.  0.
         25    1    1    2    0    0 -0.48763242317E+01 -0.48730814934E+02 -0.14406625551E+03  0.19692271793E+03  0.12500000000E+03 0.  0.
</event>
<event>
 5    0  0.5561624E-005  0.3006280E+03  0.7546771E-02  0.1084927E+00
         21   -1    0    0  502  501  0.00000000000E+00  0.00000000000E+00  0.89003019136E+03  0.89003019136E+03  0.00000000000E+00 0.  1.
         21   -1    0    0  501  502 -0.00000000000E+00 -0.00000000000E+00 -0.10154395893E+03  0.10154395893E+03  0.00000000000E+00 0.  1.
         25    1    1    2    0    0  0.45950072802E+02  0.86335418072E+02  0.29791085215E+03  0.33755161003E+03  0.12500000000E+03 0.  0.
         25    1    1    2    0    0 -0.83353500364E+02 -0.12836213848E+03  0.47695375990E+03  0.51626982644E+03  0.12500000000E+03 0.  0.
         25    1    1    2    0    0  0.37403427563E+02  0.42026720410E+02  0.13621620389E+02  0.13775271382E+03  0.12500000000E+03 0.  0.
</event>
<event>
 5    0  0.5561624E-005  0.2626131E+03  0.7546771E-02  0.1105583E+00
         21   -1    0    0  502  501  0.00000000000E+00  0.00000000000E+00  0.12387772101E+04  0.12387772101E+04  0.00000000000E+00 0.  1.
         21   -1    0    0  501  502 -0.00000000000E+00 -0.00000000000E+00 -0.55672337666E+02  0.55672337666E+02  0.00000000000E+00 0.  1.
         25    1    1    2    0    0 -0.11651619983E+03  0.23746047391E+02  0.32261555966E+03  0.36584928444E+03  0.12500000000E+03 0.  0.
         25    1    1    2    0    0 -0.16836098004E+02  0.31332901602E+00  0.15717507747E+03  0.20152557492E+03  0.12500000000E+03 0.  0.
         25    1    1    2    0    0  0.13335229784E+03 -0.24059376407E+02  0.70331423528E+03  0.72707468838E+03  0.12500000000E+03 0.  0.
</event>
<event>
 5    0  0.5561624E-005  0.3585201E+03  0.7546771E-02  0.1059171E+00
         21   -1    0    0  502  501  0.00000000000E+00  0.00000000000E+00  0.10285652688E+03  0.10285652688E+03  0.00000000000E+00 0. -1.
         21   -1    0    0  501  502 -0.00000000000E+00 -0.00000000000E+00 -0.12496694458E+04  0.12496694458E+04  0.00000000000E+00 0. -1.
         25    1    1    2    0    0  0.12320510981E+03  0.24689297130E+03 -0.35646826108E+03  0.46779296652E+03  0.12500000000E+03 0.  0.
         25    1    1    2    0    0 -0.31288804216E+02 -0.19155962867E+03 -0.41650582740E+03  0.47621023179E+03  0.12500000000E+03 0.  0.
         25    1    1    2    0    0 -0.91916305593E+02 -0.55333342633E+02 -0.37383883041E+03  0.40852277436E+03  0.12500000000E+03 0.  0.
</event>
<event>
 5    0  0.5561624E-005  0.2463590E+03  0.7546771E-02  0.1115628E+00
         21   -1    0    0  502  501  0.00000000000E+00  0.00000000000E+00  0.18062831189E+03  0.18062831189E+03  0.00000000000E+00 0.  1.
         21   -1    0    0  501  502 -0.00000000000E+00 -0.00000000000E+00 -0.33600910073E+03  0.33600910073E+03  0.00000000000E+00 0.  1.
         25    1    1    2    0    0  0.24183846573E+02  0.62185351673E+02  0.14298852288E+02  0.14241254711E+03  0.12500000000E+03 0.  0.
         25    1    1    2    0    0 -0.76714755120E+02 -0.11350086055E+03 -0.12037808091E+03  0.22109609079E+03  0.12500000000E+03 0.  0.
         25    1    1    2    0    0  0.52530908547E+02  0.51315508881E+02 -0.49301560222E+02  0.15312877471E+03  0.12500000000E+03 0.  0.
</event>
<event>
 5    0  0.5561624E-005  0.5592973E+03  0.7546771E-02  0.9993646E-01
         21   -1    0    0  502  501  0.00000000000E+00  0.00000000000E+00  0.18311176492E+03  0.18311176492E+03  0.00000000000E+00 0. -1.
         21   -1    0    0  501  502 -0.00000000000E+00 -0.00000000000E+00 -0.17083199326E+04  0.17083199326E+04  0.00000000000E+00 0. -1.
         25    1    1    2    0    0  0.79525505004E+02  0.20809478807E+03 -0.18434109342E+03  0.31501489726E+03  0.12500000000E+03 0.  0.
         25    1    1    2    0    0 -0.23067017249E+02 -0.47748584705E+03 -0.10322214400E+04  0.11443910707E+04  0.12500000000E+03 0.  0.
         25    1    1    2    0    0 -0.56458487755E+02  0.26939105898E+03 -0.30864563424E+03  0.43202572960E+03  0.12500000000E+03 0.  0.
</event>
<event>
 5    0  0.5561624E-005  0.2714881E+03  0.7546771E-02  0.1100431E+00
         21   -1    0    0  502  501  0.00000000000E+00  0.00000000000E+00  0.21640257028E+03  0.21640257028E+03  0.00000000000E+00 0.  1.
         21   -1    0    0  501  502 -0.00000000000E+00 -0.00000000000E+00 -0.34059574801E+03  0.34059574801E+03  0.00000000000E+00 0.  1.
         25    1    1    2    0    0  0.11952430477E+03  0.52907456765E+02 -0.47992359922E+02  0.18711901299E+03  0.12500000000E+03 0.  0.
         25    1    1    2    0    0  0.48864982564E+02 -0.45709478378E+02  0.11935824244E+02  0.14228354380E+03  0.12500000000E+03 0.  0.
         25    1    1    2    0    0 -0.16838928734E+03 -0.71979783867E+01 -0.88136642055E+02  0.22759576151E+03  0.12500000000E+03 0.  0.
</event>
<event>
 5    0  0.5561624E-005  0.2305382E+03  0.7546771E-02  0.1126262E+00
         21   -1    0    0  502  501  0.00000000000E+00  0.00000000000E+00  0.74409676188E+03  0.74409676188E+03  0.00000000000E+00 0.  1.
         21   -1    0    0  501  502 -0.00000000000E+00 -0.00000000000E+00 -0.71426011565E+02  0.71426011565E+02  0.00000000000E+00 0.  1.
         25    1    1    2    0    0  0.32798121489E+02 -0.42336811957E+02  0.11077966381E+03  0.17540027461E+03  0.12500000000E+03 0.  0.
         25    1    1    2    0    0  0.38846213130E+02  0.62964862891E+02  0.38226813698E+03  0.40893462898E+03  0.12500000000E+03 0.  0.
         25    1    1    2    0    0 -0.71644334619E+02 -0.20628050934E+02  0.17962294952E+03  0.23118786985E+03  0.12500000000E+03 0.  0.
</event>
<event>
 5    0  0.5561624E-005  0.3650085E+03  0.7546771E-02  0.1056618E+00
         21   -1    0    0  502  501  0.00000000000E+00  0.00000000000E+00  0.57696257467E+03  0.57696257467E+03  0.00000000000E+00 0. -1.
         21   -1    0    0  501  502 -0.00000000000E+00 -0.00000000000E+00 -0.23091831828E+03  0.23091831828E+03  0.00000000000E+00 0. -1.
         25    1    1    2    0    0 -0.50797946503E+01  0.28090184669E+02  0.32621988657E+03  0.35051287734E+03  0.12500000000E+03 0.  0.
         25    1    1    2    0    0 -0.63202178593E+02 -0.18547355672E+03  0.62883360465E+02  0.24077847214E+03  0.12500000000E+03 0.  0.
         25    1    1    2    0    0  0.68281973243E+02  0.15738337205E+03 -0.43058990644E+02  0.21658954347E+03  0.12500000000E+03 0.  0.
</event>
<event>
 5    0  0.5561624E-005  0.5289787E+03  0.7546771E-02  0.1006480E+00
         21   -1    0    0  502  501  0.00000000000E+00  0.00000000000E+00  0.12881093117E+04  0.12881093117E+04  0.00000000000E+00 0. -1.
         21   -1    0    0  501  502 -0.00000000000E+00 -0.00000000000E+00 -0.21723196219E+03  0.21723196219E+03  0.00000000000E+00 0. -1.
         25    1    1    2    0    0  0.83345332607E+02 -0.59177103476E+02  0.13314635424E+03  0.20928766253E+03  0.12500000000E+03 0.  0.
         25    1    1    2    0    0 -0.11885920736E+03  0.44728502899E+03  0.43077195291E+03  0.64450049166E+03  0.12500000000E+03 0.  0.
         25    1    1    2    0    0  0.35513874752E+02 -0.38810792552E+03  0.50695904235E+03  0.65155311968E+03  0.12500000000E+03 0.  0.
</event>
<event>
 5    0  0.5561624E-005  0.3762493E+03  0.7546771E-02  0.1052329E+00
         21   -1    0    0  502  501  0.00000000000E+00  0.00000000000E+00  0.82164693218E+02  0.82164693218E+02  0.00000000000E+00 0.  1.
         21   -1    0    0  501  502 -0.00000000000E+00 -0.00000000000E+00 -0.17229240998E+04  0.17229240998E+04  0.00000000000E+00 0.  1.
         25    1    1    2    0    0 -0.82067427909E+02  0.58953181055E+02 -0.13226717705E+03  0.20815894505E+03  0.12500000000E+03 0.  0.
         25    1    1    2    0    0  0.11341496725E+03  0.16506305056E+02 -0.14050910974E+04  0.14152884529E+04  0.12500000000E+03 0.  0.
         25    1    1    2    0    0 -0.31347539346E+02 -0.75459486111E+02 -0.10340113207E+03  0.18164139501E+03  0.12500000000E+03 0.  0.
</event>
<event>
 5    0  0.5561624E-005  0.2508190E+03  0.7546771E-02  0.1112788E+00
         21   -1    0    0  502  501  0.00000000000E+00  0.00000000000E+00  0.19621024537E+04  0.19621024537E+04  0.00000000000E+00 0. -1.
         21   -1    0    0  501  502 -0.00000000000E+00 -0.00000000000E+00 -0.32062622051E+02  0.32062622051E+02  0.00000000000E+00 0. -1.
         25    1    1    2    0    0  0.32547975470E+02  0.10933823815E+03  0.49294184664E+03  0.52118219962E+03  0.12500000000E+03 0.  0.
         25    1    1    2    0    0  0.41939446851E+02 -0.55117317838E+02  0.40951396648E+03  0.43373208859E+03  0.12500000000E+03 0.  0.
         25    1    1    2    0    0 -0.74487422322E+02 -0.54220920310E+02  0.10275840186E+04  0.10392507876E+04  0.12500000000E+03 0.  0.
</event>
<event>
 5    0  0.5561624E-005  0.4223780E+03  0.7546771E-02  0.1036295E+00
         21   -1    0    0  502  501  0.00000000000E+00  0.00000000000E+00  0.26016827990E+03  0.26016827990E+03  0.00000000000E+00 0. -1.
         21   -1    0    0  501  502 -0.00000000000E+00 -0.00000000000E+00 -0.68572212520E+03  0.68572212520E+03  0.00000000000E+00 0. -1.
         25    1    1    2    0    0 -0.29281385731E+03  0.84657169891E+01 -0.30243755494E+03  0.43920962880E+03  0.12500000000E+03 0.  0.
         25    1    1    2    0    0  0.13712850091E+02 -0.16033432695E+02  0.70103851380E+02  0.14486084081E+03  0.12500000000E+03 0.  0.
         25    1    1    2    0    0  0.27910100721E+03  0.75677157063E+01 -0.19322014174E+03  0.36181993550E+03  0.12500000000E+03 0.  0.
</event>
<event>
 5    0  0.5561624E-005  0.3282936E+03  0.7546771E-02  0.1071894E+00
         21   -1    0    0  502  501  0.00000000000E+00  0.00000000000E+00  0.98939068481E+03  0.98939068481E+03  0.00000000000E+00 0.  1.
         21   -1    0    0  501  502 -0.00000000000E+00 -0.00000000000E+00 -0.10893240839E+03  0.10893240839E+03  0.00000000000E+00 0.  1.
         25    1    1    2    0    0  0.49250476211E+02  0.13655543436E+03  0.29632222931E+03  0.35285246158E+03  0.12500000000E+03 0.  0.
         25    1    1    2    0    0 -0.30785430140E+02  0.10948512847E+03  0.12788980147E+03  0.21193286056E+03  0.12500000000E+03 0.  0.
         25    1    1    2    0    0 -0.18465046071E+02 -0.24604056283E+03  0.45624624563E+03  0.53353777105E+03  0.12500000000E+03 0.  0.
</event>
<event>
 5    0  0.6384889E-005  0.2775870E+03  0.7546771E-02  0.1097014E+00
         21   -1    0    0  502  501  0.00000000000E+00  0.00000000000E+00  0.47016582898E+03  0.47016582898E+03  0.00000000000E+00 0.  1.
         21   -1    0    0  501  502 -0.00000000000E+00 -0.00000000000E+00 -0.16388806703E+03  0.16388806703E+03  0.00000000000E+00 0.  1.
         25    1    1    2    0    0  0.86240121972E+02 -0.14772509295E+02  0.29603909331E+03  0.33304613860E+03  0.12500000000E+03 0.  0.
         25    1    1    2    0    0  0.12201441196E+02  0.18455691524E+02 -0.41665863514E+02  0.13360588273E+03  0.12500000000E+03 0.  0.
         25    1    1    2    0    0 -0.98441563168E+02 -0.36831822283E+01  0.51904532158E+02  0.16740187469E+03  0.12500000000E+03 0.  0.
</event>
<event>
 5    0  0.5561624E-005  0.2520692E+03  0.7546771E-02  0.1112004E+00
         21   -1    0    0  502  501  0.00000000000E+00  0.00000000000E+00  0.24643252429E+04  0.24643252429E+04  0.00000000000E+00 0.  1.
         21   -1    0    0  501  502 -0.00000000000E+00 -0.00000000000E+00 -0.25783477496E+02  0.25783477496E+02  0.00000000000E+00 0.  1.
         25    1    1    2    0    0 -0.28052869264E+02  0.13123830848E+03  0.61490326809E+03  0.64167085503E+03  0.12500000000E+03 0.  0.
         25    1    1    2    0    0  0.54737666976E+02 -0.86323233843E+02  0.82518160189E+03  0.84083148668E+03  0.12500000000E+03 0.  0.
         25    1    1    2    0    0 -0.26684797713E+02 -0.44915074638E+02  0.99845689545E+03  0.10076063787E+04  0.12500000000E+03 0.  0.
</event>
<event>
 5    0  0.5561624E-005  0.4339460E+03  0.7546771E-02  0.1032621E+00
         21   -1    0    0  502  501  0.00000000000E+00  0.00000000000E+00  0.10266695828E+04  0.10266695828E+04  0.00000000000E+00 0. -1.
         21   -1    0    0  501  502 -0.00000000000E+00 -0.00000000000E+00 -0.18341742711E+03  0.18341742711E+03  0.00000000000E+00 0. -1.
         25    1    1    2    0    0 -0.27279335108E+03 -0.16730722868E+03  0.34696819905E+03  0.48828255377E+03  0.12500000000E+03 0.  0.
         25    1    1    2    0    0  0.59825512608E+02 -0.11492089902E+02  0.36364526115E+03  0.38932510328E+03  0.12500000000E+03 0.  0.
         25    1    1    2    0    0  0.21296783847E+03  0.17879931859E+03  0.13263869554E+03  0.33247935290E+03  0.12500000000E+03 0.  0.
</event>
<event>
 5    0  0.5631718E-005  0.4056999E+03  0.7546771E-02  0.1041824E+00
         21   -1    0    0  502  501  0.00000000000E+00  0.00000000000E+00  0.12437835046E+03  0.12437835046E+03  0.00000000000E+00 0. -1.
         21   -1    0    0  501  502 -0.00000000000E+00 -0.00000000000E+00 -0.13233203157E+04  0.13233203157E+04  0.00000000000E+00 0. -1.
         25    1    1    2    0    0 -0.44278565684E+02  0.21181099148E+03 -0.69184307453E+03  0.73559250082E+03  0.12500000000E+03 0.  0.
         25    1    1    2    0    0 -0.64830180169E+02 -0.22015465378E+03 -0.47609924392E+03  0.54310819723E+03  0.12500000000E+03 0.  0.
         25    1    1    2    0    0  0.10910874585E+03  0.83436623046E+01 -0.30999646787E+02  0.16899796810E+03  0.12500000000E+03 0.  0.
</event>
<event>
 5    0  0.5561624E-005  0.3982721E+03  0.7546771E-02  0.1044380E+00
         21   -1    0    0  502  501  0.00000000000E+00  0.00000000000E+00  0.11447234938E+03  0.11447234938E+03  0.00000000000E+00 0. -1.
         21   -1    0    0  501  502 -0.00000000000E+00 -0.00000000000E+00 -0.13856682420E+04  0.13856682420E+04  0.00000000000E+00 0. -1.
         25    1    1    2    0    0 -0.10035633309E+03 -0.19725657145E+03 -0.12599177811E+03  0.28369081184E+03  0.12500000000E+03 0.  0.
         25    1    1    2    0    0  0.45809744601E+02  0.99994240593E+02 -0.92450625169E+03  0.93937968377E+03  0.12500000000E+03 0.  0.
         25    1    1    2    0    0  0.54546588489E+02  0.97262330862E+02 -0.22069786280E+03  0.27707009576E+03  0.12500000000E+03 0.  0.
</event>
<event>
 5    0  0.5561624E-005  0.2820129E+03  0.7546771E-02  0.1094595E+00
         21   -1    0    0  502  501  0.00000000000E+00  0.00000000000E+00  0.92951656891E+02  0.92951656891E+02  0.00000000000E+00 0. -1.
         21   -1    0    0  501  502 -0.00000000000E+00 -0.00000000000E+00 -0.85561975465E+03  0.85561975465E+03  0.00000000000E+00 0. -1.
         25    1    1    2    0    0  0.48003166599E+02  0.34157849909E+02 -0.31335746241E+03  0.34247476106E+03  0.12500000000E+03 0.  0.
         25    1    1    2    0    0  0.20068340311E+00 -0.14040823833E+03 -0.37535370583E+03  0.41979747277E+03  0.12500000000E+03 0.  0.
         25    1    1    2    0    0 -0.48203850002E+02  0.10625038842E+03 -0.73956929524E+02  0.18629917772E+03  0.12500000000E+03 0.  0.
</event>
<event>
 5    0  0.5561624E-005  0.3500700E+03  0.7546771E-02  0.1062586E+00
         21   -1    0    0  502  501  0.00000000000E+00  0.00000000000E+00  0.22218200356E+04  0.22218200356E+04  0.00000000000E+00 0.  1.
         21   -1    0    0  501  502 -0.00000000000E+00 -0.00000000000E+00 -0.55157049223E+02  0.55157049223E+02  0.00000000000E+00 0.  1.
         25    1    1    2    0    0  0.12494403691E+03 -0.35041857064E+01  0.13651414548E+04  0.13765389508E+04  0.12500000000E+03 0.  0.
         25    1    1    2    0    0 -0.18436680399E+02  0.34698275379E+02  0.67057628583E+02  0.14719241505E+03  0.12500000000E+03 0.  0.
         25    1    1    2    0    0 -0.10650735651E+03 -0.31194089672E+02  0.73446390301E+03  0.75324571891E+03  0.12500000000E+03 0.  0.
</event>
<event>
 5    0  0.5561624E-005  0.2750077E+03  0.7546771E-02  0.1098447E+00
         21   -1    0    0  502  501  0.00000000000E+00  0.00000000000E+00  0.47313639916E+02  0.47313639916E+02  0.00000000000E+00 0. -1.
         21   -1    0    0  501  502 -0.00000000000E+00 -0.00000000000E+00 -0.15984662883E+04  0.15984662883E+04  0.00000000000E+00 0. -1.
         25    1    1    2    0    0  0.92722098430E+02  0.29568041385E+02 -0.47203823656E+03  0.49791239529E+03  0.12500000000E+03 0.  0.
         25    1    1    2    0    0  0.64860007352E+02  0.72951643549E+02 -0.55458035235E+03  0.57681290733E+03  0.12500000000E+03 0.  0.
         25    1    1    2    0    0 -0.15758210578E+03 -0.10251968493E+03 -0.52453405944E+03  0.57105462556E+03  0.12500000000E+03 0.  0.
</event>
<event>
 5    0  0.5561624E-005  0.3196445E+03  0.7546771E-02  0.1075813E+00
         21   -1    0    0  502  501  0.00000000000E+00  0.00000000000E+00  0.11050731652E+03  0.11050731652E+03  0.00000000000E+00 0.  1.
         21   -1    0    0  501  502 -0.00000000000E+00 -0.00000000000E+00 -0.92457777362E+03  0.92457777362E+03  0.00000000000E+00 0.  1.
         25    1    1    2    0    0 -0.16864136671E+02  0.43373597234E+02 -0.46019242115E+03  0.47913227039E+03  0.12500000000E+03 0.  0.
         25    1    1    2    0    0 -0.92708389587E+02 -0.16119544116E+03 -0.16661674092E+03  0.27922205161E+03  0.12500000000E+03 0.  0.
         25    1    1    2    0    0  0.10957252626E+03  0.11782184393E+03 -0.18726129503E+03  0.27673076813E+03  0.12500000000E+03 0.  0.
</event>
<event>
 5    0  0.5561624E-005  0.3274757E+03  0.7546771E-02  0.1072259E+00
         21   -1    0    0  502  501  0.00000000000E+00  0.00000000000E+00  0.23449163620E+03  0.23449163620E+03  0.00000000000E+00 0. -1.
         21   -1    0    0  501  502 -0.00000000000E+00 -0.00000000000E+00 -0.45733110476E+03  0.45733110476E+03  0.00000000000E+00 0. -1.
         25    1    1    2    0    0 -0.54991481483E+02 -0.12733841089E+03  0.95481163433E+02  0.20971596623E+03  0.12500000000E+03 0.  0.
         25    1    1    2    0    0 -0.58021879310E+02  0.13503218731E+03 -0.15784910801E+03  0.24928211124E+03  0.12500000000E+03 0.  0.
         25    1    1    2    0    0  0.11301336079E+03 -0.76937764215E+01 -0.16047152399E+03  0.23282466348E+03  0.12500000000E+03 0.  0.
</event>
<event>
 5    0  0.5561624E-005  0.2801661E+03  0.7546771E-02  0.1095598E+00
         21   -1    0    0  502  501  0.00000000000E+00  0.00000000000E+00  0.12622450551E+04  0.12622450551E+04  0.00000000000E+00 0. -1.
         21   -1    0    0  501  502 -0.00000000000E+00 -0.00000000000E+00 -0.62185261842E+02  0.62185261842E+02  0.00000000000E+00 0.  1.
         25    1    1    2    0    0  0.10804423202E+03  0.45541799204E+02  0.19307448355E+03  0.25816732509E+03  0.12500000000E+03 0.  0.
         25    1    1    2    0    0 -0.12991321975E+03 -0.10687724333E+03  0.59421062048E+03  0.63008844721E+03  0.12500000000E+03 0.  0.
         25    1    1    2    0    0  0.21868987737E+02  0.61335444128E+02  0.41277468925E+03  0.43617454467E+03  0.12500000000E+03 0.  0.
</event>
<event>
 5    0  0.5561624E-005  0.3371125E+03  0.7546771E-02  0.1068032E+00
         21   -1    0    0  502  501  0.00000000000E+00  0.00000000000E+00  0.81375215826E+02  0.81375215826E+02  0.00000000000E+00 0.  1.
         21   -1    0    0  501  502 -0.00000000000E+00 -0.00000000000E+00 -0.13965533703E+04  0.13965533703E+04  0.00000000000E+00 0.  1.
         25    1    1    2    0    0 -0.18449358438E+03 -0.12727701432E+03 -0.30190848558E+03  0.39624620467E+03  0.12500000000E+03 0.  0.
         25    1    1    2    0    0  0.10503681437E+03  0.15290878010E+03 -0.68581192837E+03  0.72137149132E+03  0.12500000000E+03 0.  0.
         25    1    1    2    0    0  0.79456770011E+02 -0.25631765783E+02 -0.32745774056E+03  0.36031089017E+03  0.12500000000E+03 0.  0.
</event>
<event>
 5    0  0.6364506E-005  0.2896369E+03  0.7546771E-02  0.1090539E+00
         21   -1    0    0  502  501  0.00000000000E+00  0.00000000000E+00  0.53184848923E+03  0.53184848923E+03  0.00000000000E+00 0.  1.
         21   -1    0    0  501  502 -0.00000000000E+00 -0.00000000000E+00 -0.15773203002E+03  0.15773203002E+03  0.00000000000E+00 0.  1.
         25    1    1    2    0    0 -0.26592069894E+02  0.68493127457E+02  0.10548958158E+03  0.17930838941E+03  0.12500000000E+03 0.  0.
         25    1    1    2    0    0  0.75292555985E+02 -0.18040571172E+03  0.62969341748E+02  0.24042738573E+03  0.12500000000E+03 0.  0.
         25    1    1    2    0    0 -0.48700486090E+02  0.11191258427E+03  0.20565753588E+03  0.26984474411E+03  0.12500000000E+03 0.  0.
</event>
<event>
 5    0  0.5561624E-005  0.3762040E+03  0.7546771E-02  0.1052346E+00
         21   -1    0    0  502  501  0.00000000000E+00  0.00000000000E+00  0.89578575284E+03  0.89578575284E+03  0.00000000000E+00 0.  1.
         21   -1    0    0  501  502 -0.00000000000E+00 -0.00000000000E+00 -0.15799478708E+03  0.15799478708E+03  0.00000000000E+00 0.  1.
         25    1    1    2    0    0  0.44247100507E+02  0.19765642652E+03  0.17772440002E+03  0.29704685019E+03  0.12500000000E+03 0.  0.
         25    1    1    2    0    0 -0.19663680745E+03 -0.32519660205E+02  0.36385476024E+03  0.43328841307E+03  0.12500000000E+03 0.  0.
         25    1    1    2    0    0  0.15238970695E+03 -0.16513676632E+03  0.19621180550E+03  0.32344527665E+03  0.12500000000E+03 0.  0.
</event>
<event>
 5    0  0.5561624E-005  0.2466417E+03  0.7546771E-02  0.1115446E+00
         21   -1    0    0  502  501  0.00000000000E+00  0.00000000000E+00  0.15110024840E+03  0.15110024840E+03  0.00000000000E+00 0. -1.
         21   -1    0    0  501  502 -0.00000000000E+00 -0.00000000000E+00 -0.40259439279E+03  0.40259439279E+03  0.00000000000E+00 0. -1.
         25    1    1    2    0    0 -0.91581035432E+02 -0.87374791499E+01  0.21103459211E+02  0.15663264533E+03  0.12500000000E+03 0.  0.
         25    1    1    2    0    0  0.46040076437E+01 -0.94317752947E+01 -0.72267286152E+02  0.14476780001E+03  0.12500000000E+03 0.  0.
         25    1    1    2    0    0  0.86977027788E+02  0.18169254445E+02 -0.20033031745E+03  0.25229419585E+03  0.12500000000E+03 0.  0.
</event>
<event>
 5    0  0.5561624E-005  0.2507312E+03  0.7546771E-02  0.1112844E+00
         21   -1    0    0  502  501  0.00000000000E+00  0.00000000000E+00  0.31912093243E+02  0.31912093243E+02  0.00000000000E+00 0. -1.
         21   -1    0    0  501  502 -0.00000000000E+00 -0.00000000000E+00 -0.19699787241E+04  0.19699787241E+04  0.00000000000E+00 0. -1.
         25    1    1    2    0    0  0.36956343814E+02 -0.86028414452E+02 -0.32501378116E+03  0.36059065071E+03  0.12500000000E+03 0.  0.
         25    1    1    2    0    0  0.52832779213E+02  0.38412781137E+02 -0.82149983261E+03  0.83351893757E+03  0.12500000000E+03 0.  0.
         25    1    1    2    0    0 -0.89789123027E+02  0.47615633315E+02 -0.79155301711E+03  0.80778122908E+03  0.12500000000E+03 0.  0.
</event>
<event>
 5    0  0.5561624E-005  0.4034121E+03  0.7546771E-02  0.1042605E+00
         21   -1    0    0  502  501  0.00000000000E+00  0.00000000000E+00  0.44203890883E+03  0.44203890883E+03  0.00000000000E+00 0.  1.
         21   -1    0    0  501  502 -0.00000000000E+00 -0.00000000000E+00 -0.36816068242E+03  0.36816068242E+03  0.00000000000E+00 0.  1.
         25    1    1    2    0    0 -0.62904924270E+02  0.66784087913E+02  0.58689580026E+02  0.16579086434E+03  0.12500000000E+03 0.  0.
         25    1    1    2    0    0  0.14994138945E+00  0.22098206137E+03  0.15257261533E+03  0.29620347210E+03  0.12500000000E+03 0.  0.
         25    1    1    2    0    0  0.62754982880E+02 -0.28776614929E+03 -0.13738396895E+03  0.34820525481E+03  0.12500000000E+03 0.  0.
</event>
<event>
 5    0  0.5561624E-005  0.3149839E+03  0.7546771E-02  0.1077981E+00
         21   -1    0    0  502  501  0.00000000000E+00  0.00000000000E+00  0.27375753644E+03  0.27375753644E+03  0.00000000000E+00 0.  1.
         21   -1    0    0  501  502 -0.00000000000E+00 -0.00000000000E+00 -0.36241864579E+03  0.36241864579E+03  0.00000000000E+00 0.  1.
         25    1    1    2    0    0  0.37146468923E+01  0.40495719084E+02 -0.84756569050E+02  0.15640453274E+03  0.12500000000E+03 0.  0.
         25    1    1    2    0    0 -0.42319538729E+02  0.43668951126E+02 -0.19114256676E+03  0.23634382048E+03  0.12500000000E+03 0.  0.
         25    1    1    2    0    0  0.38604891837E+02 -0.84164670211E+02  0.18723802646E+03  0.24342782901E+03  0.12500000000E+03 0.  0.
</event>
<event>
 5    0  0.5561624E-005  0.2484170E+03  0.7546771E-02  0.1114309E+00
         21   -1    0    0  502  501  0.00000000000E+00  0.00000000000E+00  0.13035249213E+03  0.13035249213E+03  0.00000000000E+00 0.  1.
         21   -1    0    0  501  502 -0.00000000000E+00 -0.00000000000E+00 -0.47341635301E+03  0.47341635301E+03  0.00000000000E+00 0.  1.
         25    1    1    2    0    0 -0.41815385791E+02  0.74305480519E+02  0.71493647402E+01  0.15147918781E+03  0.12500000000E+03 0.  0.
         25    1    1    2    0    0 -0.27273052608E+02 -0.48397985659E+02 -0.13116944976E+03  0.18951677753E+03  0.12500000000E+03 0.  0.
         25    1    1    2    0    0  0.69088438399E+02 -0.25907494860E+02 -0.21904377587E+03  0.26277287980E+03  0.12500000000E+03 0.  0.
</event>
<event>
 5    0  0.5561624E-005  0.2341762E+03  0.7546771E-02  0.1123734E+00
         21   -1    0    0  502  501  0.00000000000E+00  0.00000000000E+00  0.20897441403E+03  0.20897441403E+03  0.00000000000E+00 0.  1.
         21   -1    0    0  501  502 -0.00000000000E+00 -0.00000000000E+00 -0.26241725113E+03  0.26241725113E+03  0.00000000000E+00 0.  1.
         25    1    1    2    0    0  0.78457114675E+02  0.36537682676E+02 -0.34015153780E+02  0.15579650762E+03  0.12500000000E+03 0.  0.
         25    1    1    2    0    0 -0.10348345886E+03 -0.77886751337E+02 -0.23414541515E+02  0.18151697730E+03  0.12500000000E+03 0.  0.
         25    1    1    2    0    0  0.25026344189E+02  0.41349068661E+02  0.39868581932E+01  0.13407818026E+03  0.12500000000E+03 0.  0.
</event>
<event>
 5    0  0.5561624E-005  0.2006719E+03  0.7546771E-02  0.1149173E+00
         21   -1    0    0  502  501  0.00000000000E+00  0.00000000000E+00  0.25762182760E+02  0.25762182760E+02  0.00000000000E+00 0. -1.
         21   -1    0    0  501  502 -0.00000000000E+00 -0.00000000000E+00 -0.15631133546E+04  0.15631133546E+04  0.00000000000E+00 0. -1.
         25    1    1    2    0    0  0.10371391067E+02 -0.41234940947E+02 -0.71772297381E+03  0.72976650598E+03  0.12500000000E+03 0.  0.
         25    1    1    2    0    0  0.11698868226E+02  0.20526656589E+02 -0.45571844479E+03  0.47314110799E+03  0.12500000000E+03 0.  0.
         25    1    1    2    0    0 -0.22070259292E+02  0.20708284358E+02 -0.36390975322E+03  0.38596792337E+03  0.12500000000E+03 0.  0.
</event>
<event>
 5    0  0.5561624E-005  0.3119543E+03  0.7546771E-02  0.1079413E+00
         21   -1    0    0  502  501  0.00000000000E+00  0.00000000000E+00  0.20597285154E+04  0.20597285154E+04  0.00000000000E+00 0.  1.
         21   -1    0    0  501  502 -0.00000000000E+00 -0.00000000000E+00 -0.47246757195E+02  0.47246757195E+02  0.00000000000E+00 0.  1.
         25    1    1    2    0    0 -0.19741796792E+03  0.79617063247E+02  0.11650508960E+04  0.11909161688E+04  0.12500000000E+03 0.  0.
         25    1    1    2    0    0  0.63389736459E+02 -0.67042354265E+02  0.49221854241E+03  0.51615601270E+03  0.12500000000E+03 0.  0.
         25    1    1    2    0    0  0.13402823147E+03 -0.12574708982E+02  0.35521231974E+03  0.39990309105E+03  0.12500000000E+03 0.  0.
</event>
<event>
 5    0  0.5561624E-005  0.2478080E+03  0.7546771E-02  0.1114698E+00
         21   -1    0    0  502  501  0.00000000000E+00  0.00000000000E+00  0.59774639733E+03  0.59774639733E+03  0.00000000000E+00 0.  1.
         21   -1    0    0  501  502 -0.00000000000E+00 -0.00000000000E+00 -0.10273384372E+03  0.10273384372E+03  0.00000000000E+00 0.  1.
         25    1    1    2    0    0  0.34664804044E+02 -0.23052793949E+02  0.20735266266E+03  0.24566889641E+03  0.12500000000E+03 0.  0.
         25    1    1    2    0    0  0.73233441822E+02 -0.71462098508E+02  0.14398316240E+03  0.21639343701E+03  0.12500000000E+03 0.  0.
         25    1    1    2    0    0 -0.10789824587E+03  0.94514892457E+02  0.14367672854E+03  0.23841790764E+03  0.12500000000E+03 0.  0.
</event>
<event>
 5    0  0.6515332E-005  0.2617685E+03  0.7546771E-02  0.1106085E+00
         21   -1    0    0  502  501  0.00000000000E+00  0.00000000000E+00  0.62552580867E+03  0.62552580867E+03  0.00000000000E+00 0.  1.
         21   -1    0    0  501  502 -0.00000000000E+00 -0.00000000000E+00 -0.10954425828E+03  0.10954425828E+03  0.00000000000E+00 0.  1.
         25    1    1    2    0    0 -0.93456264312E+02  0.10711381142E+03  0.10167647167E+03  0.21487332740E+03  0.12500000000E+03 0.  0.
         25    1    1    2    0    0  0.56038454311E+02 -0.11191593040E+03  0.18256875224E+03  0.25420824757E+03  0.12500000000E+03 0.  0.
         25    1    1    2    0    0  0.37417810001E+02  0.48021189851E+01  0.23173632648E+03  0.26598849198E+03  0.12500000000E+03 0.  0.
</event>
<event>
 5    0  0.5561624E-005  0.3780481E+03  0.7546771E-02  0.1051658E+00
         21   -1    0    0  502  501  0.00000000000E+00  0.00000000000E+00  0.80396880382E+03  0.80396880382E+03  0.00000000000E+00 0. -1.
         21   -1    0    0  501  502 -0.00000000000E+00 -0.00000000000E+00 -0.17776852750E+03  0.17776852750E+03  0.00000000000E+00 0. -1.
         25    1    1    2    0    0 -0.15722945453E+03 -0.14540671843E+03  0.66455020875E+02  0.25672063598E+03  0.12500000000E+03 0.  0.
         25    1    1    2    0    0  0.17620848808E+03  0.21076449108E+03  0.28264722178E+03  0.41350399508E+03  0.12500000000E+03 0.  0.
         25    1    1    2    0    0 -0.18979033546E+02 -0.65357772651E+02  0.27709803367E+03  0.31151270026E+03  0.12500000000E+03 0.  0.
</event>
<event>
 5    0  0.5561624E-005  0.6577269E+03  0.7546771E-02  0.9792387E-01
         21   -1    0    0  502  501  0.00000000000E+00  0.00000000000E+00  0.10097974924E+04  0.10097974924E+04  0.00000000000E+00 0.  1.
         21   -1    0    0  501  502 -0.00000000000E+00 -0.00000000000E+00 -0.42840738512E+03  0.42840738512E+03  0.00000000000E+00 0.  1.
         25    1    1    2    0    0 -0.22782073763E+03 -0.49505209991E+03  0.47717040715E+03  0.73504793556E+03  0.12500000000E+03 0.  0.
         25    1    1    2    0    0  0.12043848152E+03  0.38323194503E+01  0.57648198215E+02  0.18294378716E+03  0.12500000000E+03 0.  0.
         25    1    1    2    0    0  0.10738225612E+03  0.49121978046E+03  0.46571501924E+02  0.52021315481E+03  0.12500000000E+03 0.  0.
</event>
<event>
 5    0  0.5561624E-005  0.3266597E+03  0.7546771E-02  0.1072624E+00
         21   -1    0    0  502  501  0.00000000000E+00  0.00000000000E+00  0.18833255780E+03  0.18833255780E+03  0.00000000000E+00 0.  1.
         21   -1    0    0  501  502 -0.00000000000E+00 -0.00000000000E+00 -0.56658573558E+03  0.56658573558E+03  0.00000000000E+00 0.  1.
         25    1    1    2    0    0 -0.54701204083E+02  0.11997124213E+03 -0.15901411345E+03  0.24144525040E+03  0.12500000000E+03 0.  0.
         25    1    1    2    0    0  0.18812752669E+03 -0.51010424886E+01 -0.32992867190E+02  0.22832327131E+03  0.12500000000E+03 0.  0.
         25    1    1    2    0    0 -0.13342632261E+03 -0.11487019964E+03 -0.18624619714E+03  0.28514977167E+03  0.12500000000E+03 0.  0.
</event>
<event>
 5    0  0.5561624E-005  0.4149247E+03  0.7546771E-02  0.1038731E+00
         21   -1    0    0  502  501  0.00000000000E+00  0.00000000000E+00  0.13352404405E+03  0.13352404405E+03  0.00000000000E+00 0.  1.
         21   -1    0    0  501  502 -0.00000000000E+00 -0.00000000000E+00 -0.12893743635E+04  0.12893743635E+04  0.00000000000E+00 0.  1.
         25    1    1    2    0    0 -0.22124448613E+01  0.14617972416E+03 -0.38231248639E+03  0.42797341496E+03  0.12500000000E+03 0.  0.
         25    1    1    2    0    0 -0.90658574996E+02 -0.14348551478E+02 -0.77552875292E+03  0.79088223192E+03  0.12500000000E+03 0.  0.
         25    1    1    2    0    0  0.92871019858E+02 -0.13183117268E+03  0.19909198537E+01  0.20404276067E+03  0.12500000000E+03 0.  0.
</event>
<event>
 5    0  0.5561624E-005  0.3370667E+03  0.7546771E-02  0.1068052E+00
         21   -1    0    0  502  501  0.00000000000E+00  0.00000000000E+00  0.14247626582E+03  0.14247626582E+03  0.00000000000E+00 0.  1.
         21   -1    0    0  501  502 -0.00000000000E+00 -0.00000000000E+00 -0.79742382308E+03  0.79742382308E+03  0.00000000000E+00 0.  1.
         25    1    1    2    0    0 -0.61801670126E+02 -0.12582222252E+03 -0.27281259480E+03  0.33121351119E+03  0.12500000000E+03 0.  0.
         25    1    1    2    0    0  0.15526166775E+02  0.25672216965E+03 -0.21156362939E+03  0.35571266990E+03  0.12500000000E+03 0.  0.
         25    1    1    2    0    0  0.46275503351E+02 -0.13089994713E+03 -0.17057133307E+03  0.25297390781E+03  0.12500000000E+03 0.  0.
</event>
<event>
 5    0  0.5561624E-005  0.2779240E+03  0.7546771E-02  0.1096828E+00
         21   -1    0    0  502  501  0.00000000000E+00  0.00000000000E+00  0.40996608160E+03  0.40996608160E+03  0.00000000000E+00 0.  1.
         21   -1    0    0  501  502 -0.00000000000E+00 -0.00000000000E+00 -0.18841005104E+03  0.18841005104E+03  0.00000000000E+00 0.  1.
         25    1    1    2    0    0 -0.68787022886E+02 -0.46853826589E+02 -0.44008131588E+02  0.15648850191E+03  0.12500000000E+03 0.  0.
         25    1    1    2    0    0  0.13948785562E+03  0.79428290797E+02  0.17957125450E+03  0.27136055477E+03  0.12500000000E+03 0.  0.
         25    1    1    2    0    0 -0.70700832729E+02 -0.32574464207E+02  0.85992907646E+02  0.17052707595E+03  0.12500000000E+03 0.  0.
</event>
<event>
 5    0  0.5561624E-005  0.6222299E+03  0.7546771E-02  0.9860330E-01
         21   -1    0    0  502  501  0.00000000000E+00  0.00000000000E+00  0.15760830105E+04  0.15760830105E+04  0.00000000000E+00 0.  1.
         21   -1    0    0  501  502 -0.00000000000E+00 -0.00000000000E+00 -0.24565331720E+03  0.24565331720E+03  0.00000000000E+00 0.  1.
         25    1    1    2    0    0  0.43654740767E+02  0.25962507381E+03  0.10383030481E+03  0.30938107172E+03  0.12500000000E+03 0.  0.
         25    1    1    2    0    0  0.30881213619E+03  0.22549966061E+02  0.84344765685E+03  0.90713967297E+03  0.12500000000E+03 0.  0.
         25    1    1    2    0    0 -0.35246687696E+03 -0.28217503987E+03  0.38315173166E+03  0.60521558304E+03  0.12500000000E+03 0.  0.
</event>
<event>
 5    0  0.5561624E-005  0.3538998E+03  0.7546771E-02  0.1061026E+00
         21   -1    0    0  502  501  0.00000000000E+00  0.00000000000E+00  0.12676165192E+03  0.12676165192E+03  0.00000000000E+00 0. -1.
         21   -1    0    0  501  502 -0.00000000000E+00 -0.00000000000E+00 -0.98803574345E+03  0.98803574345E+03  0.00000000000E+00 0. -1.
         25    1    1    2    0    0 -0.58579267674E+02 -0.13966790944E+03 -0.17786960501E+03  0.26495518850E+03  0.12500000000E+03 0.  0.
         25    1    1    2    0    0 -0.10997407911E+03  0.22389302631E+03 -0.37253736914E+03  0.46543686651E+03  0.12500000000E+03 0.  0.
         25    1    1    2    0    0  0.16855334678E+03 -0.84225116870E+02 -0.31086711739E+03  0.38440534036E+03  0.12500000000E+03 0.  0.
</event>
<event>
 5    0  0.5561624E-005  0.2659742E+03  0.7546771E-02  0.1103606E+00
         21   -1    0    0  502  501  0.00000000000E+00  0.00000000000E+00  0.24959175481E+04  0.24959175481E+04  0.00000000000E+00 0. -1.
         21   -1    0    0  501  502 -0.00000000000E+00 -0.00000000000E+00 -0.28343183446E+02  0.28343183446E+02  0.00000000000E+00 0. -1.
         25    1    1    2    0    0  0.94270510646E+02  0.25441263316E+02  0.44963594661E+03  0.47679311189E+03  0.12500000000E+03 0.  0.
         25    1    1    2    0    0  0.45696027828E+02  0.48585483156E+02  0.70180125883E+03  0.71595997306E+03  0.12500000000E+03 0.  0.
         25    1    1    2    0    0 -0.13996653847E+03 -0.74026746472E+02  0.13161371592E+04  0.13315076466E+04  0.12500000000E+03 0.  0.
</event>
<event>
 5    0  0.5843154E-005  0.2902986E+03  0.7546771E-02  0.1090193E+00
         21   -1    0    0  502  501  0.00000000000E+00  0.00000000000E+00  0.69166052034E+03  0.69166052034E+03  0.00000000000E+00 0. -1.
         21   -1    0    0  501  502 -0.00000000000E+00 -0.00000000000E+00 -0.12184200435E+03  0.12184200435E+03  0.00000000000E+00 0. -1.
         25    1    1    2    0    0  0.15190233847E+03 -0.49927252669E+02  0.17539293663E+03  0.26824379436E+03  0.12500000000E+03 0.  0.
         25    1    1    2    0    0 -0.11455759663E+03  0.12532096950E+03  0.15236606379E+03  0.26013305391E+03  0.12500000000E+03 0.  0.
         25    1    1    2    0    0 -0.37344741840E+02 -0.75393716833E+02  0.24205951556E+03  0.28512567642E+03  0.12500000000E+03 0.  0.
</event>
<event>
 5    0  0.5561624E-005  0.2441696E+03  0.7546771E-02  0.1117046E+00
         21   -1    0    0  502  501  0.00000000000E+00  0.00000000000E+00  0.18906327891E+03  0.18906327891E+03  0.00000000000E+00 0. -1.
         21   -1    0    0  501  502 -0.00000000000E+00 -0.00000000000E+00 -0.31533786132E+03  0.31533786132E+03  0.00000000000E+00 0. -1.
         25    1    1    2    0    0  0.37497142673E+02 -0.12655333283E+03 -0.11866832963E+02  0.18217465104E+03  0.12500000000E+03 0.  0.
         25    1    1    2    0    0  0.21399767971E+02  0.26900901998E+02 -0.35113008160E+02  0.13431132469E+03  0.12500000000E+03 0.  0.
         25    1    1    2    0    0 -0.58896910644E+02  0.99652430828E+02 -0.79294741285E+02  0.18791516450E+03  0.12500000000E+03 0.  0.
</event>
<event>
 5    0  0.6326815E-005  0.3383676E+03  0.7546771E-02  0.1067493E+00
         21   -1    0    0  502  501  0.00000000000E+00  0.00000000000E+00  0.54188498044E+03  0.54188498044E+03  0.00000000000E+00 0. -1.
         21   -1    0    0  501  502 -0.00000000000E+00 -0.00000000000E+00 -0.21128591911E+03  0.21128591911E+03  0.00000000000E+00 0. -1.
         25    1    1    2    0    0  0.15617233623E+03  0.11038992534E+03  0.10368141494E+03  0.25089952177E+03  0.12500000000E+03 0.  0.
         25    1    1    2    0    0 -0.36031872239E+01  0.36072401040E+02  0.22106444892E+03  0.25653204800E+03  0.12500000000E+03 0.  0.
         25    1    1    2    0    0 -0.15256914901E+03 -0.14646232638E+03  0.58531974671E+01  0.24573932978E+03  0.12500000000E+03 0.  0.
</event>
<event>
 5    0  0.6545643E-005  0.3595458E+03  0.7546771E-02  0.1058764E+00
         21   -1    0    0  502  501  0.00000000000E+00  0.00000000000E+00  0.46584162353E+03  0.46584162353E+03  0.00000000000E+00 0.  1.
         21   -1    0    0  501  502 -0.00000000000E+00 -0.00000000000E+00 -0.27750464508E+03  0.27750464508E+03  0.00000000000E+00 0.  1.
         25    1    1    2    0    0 -0.11479292809E+03  0.14228676469E+03 -0.63794523766E+02  0.23047273376E+03  0.12500000000E+03 0.  0.
         25    1    1    2    0    0  0.13234901030E+02 -0.20320145436E+01  0.27073468689E+03  0.29849884820E+03  0.12500000000E+03 0.  0.
         25    1    1    2    0    0  0.10155802706E+03 -0.14025475014E+03 -0.18603184677E+02  0.21437468666E+03  0.12500000000E+03 0.  0.
</event>
<event>
 5    0  0.5561624E-005  0.3335079E+03  0.7546771E-02  0.1069595E+00
         21   -1    0    0  502  501  0.00000000000E+00  0.00000000000E+00  0.25907436476E+04  0.25907436476E+04  0.00000000000E+00 0.  1.
         21   -1    0    0  501  502 -0.00000000000E+00 -0.00000000000E+00 -0.42932672927E+02  0.42932672927E+02  0.00000000000E+00 0.  1.
         25    1    1    2    0    0 -0.14882182977E+02 -0.16334561305E+03  0.10235730904E+04  0.10441408622E+04  0.12500000000E+03 0.  0.
         25    1    1    2    0    0  0.38008824639E+02  0.11817099029E+03  0.23728350123E+03  0.29552920947E+03  0.12500000000E+03 0.  0.
         25    1    1    2    0    0 -0.23126641662E+02  0.45174622767E+02  0.12869543830E+04  0.12940062489E+04  0.12500000000E+03 0.  0.
</event>
<event>
 5    0  0.5561624E-005  0.2941226E+03  0.7546771E-02  0.1088216E+00
         21   -1    0    0  502  501  0.00000000000E+00  0.00000000000E+00  0.58630928179E+03  0.58630928179E+03  0.00000000000E+00 0. -1.
         21   -1    0    0  501  502 -0.00000000000E+00 -0.00000000000E+00 -0.14754690973E+03  0.14754690973E+03  0.00000000000E+00 0. -1.
         25    1    1    2    0    0  0.16858852699E+03 -0.23304718308E+02  0.15794231889E+03  0.26369675277E+03  0.12500000000E+03 0.  0.
         25    1    1    2    0    0 -0.48314191109E+02  0.87071357247E+02  0.22709621157E+03  0.27769294486E+03  0.12500000000E+03 0.  0.
         25    1    1    2    0    0 -0.12027433588E+03 -0.63766638939E+02  0.53723841604E+02  0.19246649389E+03  0.12500000000E+03 0.  0.
</event>
<event>
 5    0  0.5561624E-005  0.3716931E+03  0.7546771E-02  0.1054047E+00
         21   -1    0    0  502  501  0.00000000000E+00  0.00000000000E+00  0.21884639537E+04  0.21884639537E+04  0.00000000000E+00 0.  1.
         21   -1    0    0  501  502 -0.00000000000E+00 -0.00000000000E+00 -0.63129090185E+02  0.63129090185E+02  0.00000000000E+00 0.  1.
         25    1    1    2    0    0  0.60671216975E+02 -0.15187767428E+03  0.11943766792E+04  0.12119853449E+04  0.12500000000E+03 0.  0.
         25    1    1    2    0    0 -0.12890476824E+03  0.72629347250E+02  0.81970811067E+03  0.84228133546E+03  0.12500000000E+03 0.  0.
         25    1    1    2    0    0  0.68233551264E+02  0.79248327030E+02  0.11125007370E+03  0.19732636356E+03  0.12500000000E+03 0.  0.
</event>
<event>
 5    0  0.5572264E-005  0.2854532E+03  0.7546771E-02  0.1092747E+00
         21   -1    0    0  502  501  0.00000000000E+00  0.00000000000E+00  0.11666380562E+03  0.11666380562E+03  0.00000000000E+00 0.  1.
         21   -1    0    0  501  502 -0.00000000000E+00 -0.00000000000E+00 -0.69844734163E+03  0.69844734163E+03  0.00000000000E+00 0.  1.
         25    1    1    2    0    0 -0.42936103595E+02  0.10089489083E+03 -0.26802195493E+03  0.31541093246E+03  0.12500000000E+03 0.  0.
         25    1    1    2    0    0  0.46083508126E+02 -0.99377536498E+02 -0.46707848258E+01  0.16627206835E+03  0.12500000000E+03 0.  0.
         25    1    1    2    0    0 -0.31474045312E+01 -0.15173543342E+01 -0.30909079625E+03  0.33342814645E+03  0.12500000000E+03 0.  0.
</event>
<event>
 5    0  0.5561624E-005  0.2495911E+03  0.7546771E-02  0.1113564E+00
         21   -1    0    0  502  501  0.00000000000E+00  0.00000000000E+00  0.88663560309E+03  0.88663560309E+03  0.00000000000E+00 0. -1.
         21   -1    0    0  501  502 -0.00000000000E+00 -0.00000000000E+00 -0.70260769913E+02  0.70260769913E+02  0.00000000000E+00 0. -1.
         25    1    1    2    0    0  0.30675291742E+01 -0.51505477599E+02  0.36004617539E+03  0.38460430623E+03  0.12500000000E+03 0.  0.
         25    1    1    2    0    0 -0.79640004880E+02  0.56995281728E+01  0.86170400747E+02  0.17153819681E+03  0.12500000000E+03 0.  0.
         25    1    1    2    0    0  0.76572475706E+02  0.45805949426E+02  0.37015825704E+03  0.40075386996E+03  0.12500000000E+03 0.  0.
</event>
<event>
 5    0  0.5561624E-005  0.2913803E+03  0.7546771E-02  0.1089631E+00
         21   -1    0    0  502  501  0.00000000000E+00  0.00000000000E+00  0.78190944857E+03  0.78190944857E+03  0.00000000000E+00 0.  1.
         21   -1    0    0  501  502 -0.00000000000E+00 -0.00000000000E+00 -0.10858354136E+03  0.10858354136E+03  0.00000000000E+00 0.  1.
         25    1    1    2    0    0 -0.44461526652E+01 -0.31363973283E+02 -0.63455921050E+01  0.12910744995E+03  0.12500000000E+03 0.  0.
         25    1    1    2    0    0  0.66027665874E+02  0.27132271369E+02  0.12883712870E+03  0.19318338060E+03  0.12500000000E+03 0.  0.
         25    1    1    2    0    0 -0.61581513209E+02  0.42317019142E+01  0.55083437062E+03  0.56820215938E+03  0.12500000000E+03 0.  0.
</event>
<event>
 5    0  0.5561624E-005  0.3987983E+03  0.7546771E-02  0.1044197E+00
         21   -1    0    0  502  501  0.00000000000E+00  0.00000000000E+00  0.75657734792E+03  0.75657734792E+03  0.00000000000E+00 0.  1.
         21   -1    0    0  501  502 -0.00000000000E+00 -0.00000000000E+00 -0.21020989504E+03  0.21020989504E+03  0.00000000000E+00 0.  1.
         25    1    1    2    0    0  0.22929632225E+03 -0.40890978519E+02  0.16945916287E+03  0.31399089701E+03  0.12500000000E+03 0.  0.
         25    1    1    2    0    0 -0.55872042216E+02  0.15434966826E+03  0.35394108512E+03  0.40968865853E+03  0.12500000000E+03 0.  0.
         25    1    1    2    0    0 -0.17342428003E+03 -0.11345868974E+03  0.22967204895E+02  0.24310768742E+03  0.12500000000E+03 0.  0.
</event>
<event>
 5    0  0.5561624E-005  0.2603112E+03  0.7546771E-02  0.1106956E+00
         21   -1    0    0  502  501  0.00000000000E+00  0.00000000000E+00  0.16270583856E+03  0.16270583856E+03  0.00000000000E+00 0. -1.
         21   -1    0    0  501  502 -0.00000000000E+00 -0.00000000000E+00 -0.41646905509E+03  0.41646905509E+03  0.00000000000E+00 0. -1.
         25    1    1    2    0    0 -0.36880935822E+01  0.36839085909E+02 -0.45138266281E+02  0.13796080374E+03  0.12500000000E+03 0.  0.
         25    1    1    2    0    0 -0.10476878137E+03  0.38240021043E+02 -0.19773899190E+03  0.25916115773E+03  0.12500000000E+03 0.  0.
         25    1    1    2    0    0  0.10845687495E+03 -0.75079106952E+02 -0.10885958345E+02  0.18205293218E+03  0.12500000000E+03 0.  0.
</event>
<event>
 5    0  0.5561624E-005  0.3398633E+03  0.7546771E-02  0.1066854E+00
         21   -1    0    0  502  501  0.00000000000E+00  0.00000000000E+00  0.85234296365E+03  0.85234296365E+03  0.00000000000E+00 0. -1.
         21   -1    0    0  501  502 -0.00000000000E+00 -0.00000000000E+00 -0.13551709576E+03  0.13551709576E+03  0.00000000000E+00 0. -1.
         25    1    1    2    0    0  0.44028801812E+02 -0.89724471317E+02  0.65431807910E+02  0.17290268254E+03  0.12500000000E+03 0.  0.
         25    1    1    2    0    0  0.11812755494E+02 -0.16053890644E+03  0.29254440885E+03  0.35653823473E+03  0.12500000000E+03 0.  0.
         25    1    1    2    0    0 -0.55841557306E+02  0.25026337776E+03  0.35884965113E+03  0.45841914214E+03  0.12500000000E+03 0.  0.
</event>
<event>
 5    0  0.5561624E-005  0.2657346E+03  0.7546771E-02  0.1103746E+00
         21   -1    0    0  502  501  0.00000000000E+00  0.00000000000E+00  0.10392790482E+03  0.10392790482E+03  0.00000000000E+00 0.  1.
         21   -1    0    0  501  502 -0.00000000000E+00 -0.00000000000E+00 -0.67946004549E+03  0.67946004549E+03  0.00000000000E+00 0.  1.
         25    1    1    2    0    0  0.19097069251E+02 -0.12612596799E+03 -0.33504958346E+03  0.37967839185E+03  0.12500000000E+03 0.  0.
         25    1    1    2    0    0 -0.94078237243E+01  0.24120851576E+02 -0.19970212815E+03  0.23701532148E+03  0.12500000000E+03 0.  0.
         25    1    1    2    0    0 -0.96892455264E+01  0.10200511641E+03 -0.40780429060E+02  0.16669423700E+03  0.12500000000E+03 0.  0.
</event>
<event>
 5    0  0.5561624E-005  0.3934116E+03  0.7546771E-02  0.1046085E+00
         21   -1    0    0  502  501  0.00000000000E+00  0.00000000000E+00  0.10062092244E+04  0.10062092244E+04  0.00000000000E+00 0. -1.
         21   -1    0    0  501  502 -0.00000000000E+00 -0.00000000000E+00 -0.15381761360E+03  0.15381761360E+03  0.00000000000E+00 0. -1.
         25    1    1    2    0    0 -0.21064497406E+03  0.63169592509E+02  0.11378109151E+03  0.27736769693E+03  0.12500000000E+03 0.  0.
         25    1    1    2    0    0  0.24789034041E+02 -0.16607794193E+03  0.19637245068E+03  0.28702529225E+03  0.12500000000E+03 0.  0.
         25    1    1    2    0    0  0.18585594002E+03  0.10290834942E+03  0.54223806862E+03  0.59563384884E+03  0.12500000000E+03 0.  0.
</event>
<event>
 5    0  0.6039273E-005  0.2914824E+03  0.7546771E-02  0.1089578E+00
         21   -1    0    0  502  501  0.00000000000E+00  0.00000000000E+00  0.40489492202E+03  0.40489492202E+03  0.00000000000E+00 0. -1.
         21   -1    0    0  501  502 -0.00000000000E+00 -0.00000000000E+00 -0.20983706994E+03  0.20983706994E+03  0.00000000000E+00 0. -1.
         25    1    1    2    0    0  0.19813998634E+03  0.70392032619E+02  0.81565116096E+02  0.25786112659E+03  0.12500000000E+03 0.  0.
         25    1    1    2    0    0 -0.84836261451E+02  0.64635008318E+01  0.33037515673E+02  0.15477546815E+03  0.12500000000E+03 0.  0.
         25    1    1    2    0    0 -0.11330372489E+03 -0.76855533451E+02  0.80455220312E+02  0.20209539721E+03  0.12500000000E+03 0.  0.
</event>
<event>
 5    0  0.5561624E-005  0.2628518E+03  0.7546771E-02  0.1105442E+00
         21   -1    0    0  502  501  0.00000000000E+00  0.00000000000E+00  0.55622539708E+03  0.55622539708E+03  0.00000000000E+00 0. -1.
         21   -1    0    0  501  502 -0.00000000000E+00 -0.00000000000E+00 -0.12421418301E+03  0.12421418301E+03  0.00000000000E+00 0. -1.
         25    1    1    2    0    0 -0.53179484322E+02  0.40038457797E+02  0.40915893772E+02  0.14741182456E+03  0.12500000000E+03 0.  0.
         25    1    1    2    0    0 -0.27149788690E+02  0.94220951892E+02  0.20759894460E+03  0.26141350501E+03  0.12500000000E+03 0.  0.
         25    1    1    2    0    0  0.80329273012E+02 -0.13425940969E+03  0.18349637570E+03  0.27161425053E+03  0.12500000000E+03 0.  0.
</event>
<event>
 5    0  0.5561624E-005  0.5796631E+03  0.7546771E-02  0.9948521E-01
         21   -1    0    0  502  501  0.00000000000E+00  0.00000000000E+00  0.22028545605E+03  0.22028545605E+03  0.00000000000E+00 0. -1.
         21   -1    0    0  501  502 -0.00000000000E+00 -0.00000000000E+00 -0.15253359342E+04  0.15253359342E+04  0.00000000000E+00 0. -1.
         25    1    1    2    0    0 -0.24945557603E+03  0.10022887028E+02 -0.35056293782E+02  0.28139382796E+03  0.12500000000E+03 0.  0.
         25    1    1    2    0    0  0.45196281190E+03  0.74967399750E+02 -0.86770138382E+03  0.98915175067E+03  0.12500000000E+03 0.  0.
         25    1    1    2    0    0 -0.20250723586E+03 -0.84990286777E+02 -0.40229280059E+03  0.47507581167E+03  0.12500000000E+03 0.  0.
</event>
<event>
 5    0  0.5561624E-005  0.2125438E+03  0.7546771E-02  0.1139567E+00
         21   -1    0    0  502  501  0.00000000000E+00  0.00000000000E+00  0.10273025542E+03  0.10273025542E+03  0.00000000000E+00 0. -1.
         21   -1    0    0  501  502 -0.00000000000E+00 -0.00000000000E+00 -0.43974255751E+03  0.43974255751E+03  0.00000000000E+00 0. -1.
         25    1    1    2    0    0 -0.21187702741E+01  0.21749579895E+02 -0.64484269213E+02  0.14234027676E+03  0.12500000000E+03 0.  0.
         25    1    1    2    0    0  0.80210213989E+01  0.54512348340E+02 -0.80449987181E+02  0.15853432860E+03  0.12500000000E+03 0.  0.
         25    1    1    2    0    0 -0.59022511249E+01 -0.76261928235E+02 -0.19207804569E+03  0.24159820757E+03  0.12500000000E+03 0.  0.
</event>
<event>
 5    0  0.5561624E-005  0.2377043E+03  0.7546771E-02  0.1121332E+00
         21   -1    0    0  502  501  0.00000000000E+00  0.00000000000E+00  0.14659845479E+03  0.14659845479E+03  0.00000000000E+00 0.  1.
         21   -1    0    0  501  502 -0.00000000000E+00 -0.00000000000E+00 -0.38542913593E+03  0.38542913593E+03  0.00000000000E+00 0.  1.
         25    1    1    2    0    0 -0.87486848174E+02 -0.86414502271E+02 -0.53515176779E+02  0.18333109107E+03  0.12500000000E+03 0.  0.
         25    1    1    2    0    0  0.34459509192E+02  0.16656129907E+02 -0.13510336096E+03  0.18799681535E+03  0.12500000000E+03 0.  0.
         25    1    1    2    0    0  0.53027338982E+02  0.69758372364E+02 -0.50212143399E+02  0.16069968432E+03  0.12500000000E+03 0.  0.
</event>
<event>
 5    0  0.5561624E-005  0.2125095E+03  0.7546771E-02  0.1139594E+00
         21   -1    0    0  502  501  0.00000000000E+00  0.00000000000E+00  0.15614018506E+03  0.15614018506E+03  0.00000000000E+00 0. -1.
         21   -1    0    0  501  502 -0.00000000000E+00 -0.00000000000E+00 -0.28922917128E+03  0.28922917128E+03  0.00000000000E+00 0. -1.
         25    1    1    2    0    0  0.29045374305E+02  0.14805777829E+02 -0.12871757843E+03  0.18236244082E+03  0.12500000000E+03 0.  0.
         25    1    1    2    0    0  0.13048228733E+02 -0.47868405333E+01 -0.27451423213E+02  0.12873131224E+03  0.12500000000E+03 0.  0.
         25    1    1    2    0    0 -0.42093603038E+02 -0.10018937295E+02  0.23080015430E+02  0.13427560327E+03  0.12500000000E+03 0.  0.
</event>
<event>
 5    0  0.5561624E-005  0.2181254E+03  0.7546771E-02  0.1135288E+00
         21   -1    0    0  502  501  0.00000000000E+00  0.00000000000E+00  0.14487227194E+02  0.14487227194E+02  0.00000000000E+00 0.  1.
         21   -1    0    0  501  502 -0.00000000000E+00 -0.00000000000E+00 -0.32841816616E+04  0.32841816616E+04  0.00000000000E+00 0.  1.
         25    1    1    2    0    0 -0.59100657478E+02  0.47878227068E+01 -0.60495927604E+03  0.62057758308E+03  0.12500000000E+03 0.  0.
         25    1    1    2    0    0  0.26116677205E+02 -0.38307902769E+02 -0.12724529713E+04  0.12794182821E+04  0.12500000000E+03 0.  0.
         25    1    1    2    0    0  0.32983980273E+02  0.33520080062E+02 -0.13922821871E+04  0.13986730237E+04  0.12500000000E+03 0.  0.
</event>
<event>
 5    0  0.5561624E-005  0.2839791E+03  0.7546771E-02  0.1093535E+00
         21   -1    0    0  502  501  0.00000000000E+00  0.00000000000E+00  0.16855723380E+04  0.16855723380E+04  0.00000000000E+00 0. -1.
         21   -1    0    0  501  502 -0.00000000000E+00 -0.00000000000E+00 -0.47843749926E+02  0.47843749926E+02  0.00000000000E+00 0. -1.
         25    1    1    2    0    0  0.92624531145E+02  0.57596327300E+02  0.63632354285E+03  0.65759356131E+03  0.12500000000E+03 0.  0.
         25    1    1    2    0    0 -0.96741373904E+02  0.31079695839E+02  0.83154305123E+03  0.84700276680E+03  0.12500000000E+03 0.  0.
         25    1    1    2    0    0  0.41168427591E+01 -0.88676023139E+02  0.16986199395E+03  0.22881975977E+03  0.12500000000E+03 0.  0.
</event>
<event>
 5    0  0.5561624E-005  0.4101712E+03  0.7546771E-02  0.1040314E+00
         21   -1    0    0  502  501  0.00000000000E+00  0.00000000000E+00  0.16597869606E+03  0.16597869606E+03  0.00000000000E+00 0.  1.
         21   -1    0    0  501  502 -0.00000000000E+00 -0.00000000000E+00 -0.10136263713E+04  0.10136263713E+04  0.00000000000E+00 0.  1.
         25    1    1    2    0    0 -0.97845342505E+02  0.54602463178E+02 -0.23927965375E+03  0.29229247806E+03  0.12500000000E+03 0.  0.
         25    1    1    2    0    0 -0.10238233959E+03 -0.25974491194E+03 -0.17351293519E+03  0.35168352451E+03  0.12500000000E+03 0.  0.
         25    1    1    2    0    0  0.20022768209E+03  0.20514244876E+03 -0.43485508633E+03  0.53562906481E+03  0.12500000000E+03 0.  0.
</event>
<event>
 5    0  0.5561624E-005  0.3313373E+03  0.7546771E-02  0.1070547E+00
         21   -1    0    0  502  501  0.00000000000E+00  0.00000000000E+00  0.99040608443E+03  0.99040608443E+03  0.00000000000E+00 0. -1.
         21   -1    0    0  501  502 -0.00000000000E+00 -0.00000000000E+00 -0.11084783839E+03  0.11084783839E+03  0.00000000000E+00 0. -1.
         25    1    1    2    0    0 -0.14165095017E+03 -0.20676016997E+03  0.31973160239E+03  0.42505065243E+03  0.12500000000E+03 0.  0.
         25    1    1    2    0    0  0.66915032000E+02  0.87457089394E+02  0.14578834226E+03  0.22137209565E+03  0.12500000000E+03 0.  0.
         25    1    1    2    0    0  0.74735918170E+02  0.11930308057E+03  0.41403830139E+03  0.45483117474E+03  0.12500000000E+03 0.  0.
</event>
<event>
 5    0  0.5561624E-005  0.3297112E+03  0.7546771E-02  0.1071265E+00
         21   -1    0    0  502  501  0.00000000000E+00  0.00000000000E+00  0.10221491111E+03  0.10221491111E+03  0.00000000000E+00 0.  1.
         21   -1    0    0  501  502 -0.00000000000E+00 -0.00000000000E+00 -0.10635385903E+04  0.10635385903E+04  0.00000000000E+00 0.  1.
         25    1    1    2    0    0  0.97486560934E+02  0.20310351769E+03 -0.22581618114E+03  0.34259687115E+03  0.12500000000E+03 0.  0.
         25    1    1    2    0    0 -0.11071051999E+03 -0.12997704411E+03 -0.32656962437E+03  0.38913181673E+03  0.12500000000E+03 0.  0.
         25    1    1    2    0    0  0.13223959052E+02 -0.73126473581E+02 -0.40893787371E+03  0.43402481356E+03  0.12500000000E+03 0.  0.
</event>
<event>
 5    0  0.5561624E-005  0.2842836E+03  0.7546771E-02  0.1093372E+00
         21   -1    0    0  502  501  0.00000000000E+00  0.00000000000E+00  0.29580218557E+03  0.29580218557E+03  0.00000000000E+00 0.  1.
         21   -1    0    0  501  502 -0.00000000000E+00 -0.00000000000E+00 -0.27321361938E+03  0.27321361938E+03  0.00000000000E+00 0.  1.
         25    1    1    2    0    0 -0.12082800937E+03 -0.58209560649E+02 -0.11458705807E+03  0.21620119028E+03  0.12500000000E+03 0.  0.
         25    1    1    2    0    0  0.12206567366E+03  0.83484209487E+02  0.10899059683E+03  0.22220169242E+03  0.12500000000E+03 0.  0.
         25    1    1    2    0    0 -0.12376642891E+01 -0.25274648838E+02  0.28185027432E+02  0.13061292225E+03  0.12500000000E+03 0.  0.
</event>
<event>
 5    0  0.5561624E-005  0.5357143E+03  0.7546771E-02  0.1004856E+00
         21   -1    0    0  502  501  0.00000000000E+00  0.00000000000E+00  0.11939761102E+04  0.11939761102E+04  0.00000000000E+00 0. -1.
         21   -1    0    0  501  502 -0.00000000000E+00 -0.00000000000E+00 -0.24036478036E+03  0.24036478036E+03  0.00000000000E+00 0. -1.
         25    1    1    2    0    0 -0.17691230424E+03 -0.11238638731E+03 -0.79633408152E+02  0.25670049307E+03  0.12500000000E+03 0.  0.
         25    1    1    2    0    0  0.20862212256E+03  0.11965476052E+03  0.10108393877E+04  0.10465475237E+04  0.12500000000E+03 0.  0.
         25    1    1    2    0    0 -0.31709818318E+02 -0.72683732003E+01  0.22405350310E+02  0.13109287375E+03  0.12500000000E+03 0.  0.
</event>
<event>
 5    0  0.5561624E-005  0.3471407E+03  0.7546771E-02  0.1063795E+00
         21   -1    0    0  502  501  0.00000000000E+00  0.00000000000E+00  0.30848925156E+03  0.30848925156E+03  0.00000000000E+00 0. -1.
         21   -1    0    0  501  502 -0.00000000000E+00 -0.00000000000E+00 -0.39063479885E+03  0.39063479885E+03  0.00000000000E+00 0. -1.
         25    1    1    2    0    0  0.22285335943E+03  0.11584263076E+03 -0.14615118438E+03  0.31633574506E+03  0.12500000000E+03 0.  0.
         25    1    1    2    0    0 -0.10207597612E+03  0.83529249667E+01  0.73049581274E+01  0.16176414519E+03  0.12500000000E+03 0.  0.
         25    1    1    2    0    0 -0.12077738330E+03 -0.12419555572E+03  0.56700678954E+02  0.22102416016E+03  0.12500000000E+03 0.  0.
</event>
<event>
 5    0  0.6592850E-005  0.3512306E+03  0.7546771E-02  0.1062111E+00
         21   -1    0    0  502  501  0.00000000000E+00  0.00000000000E+00  0.47061231384E+03  0.47061231384E+03  0.00000000000E+00 0. -1.
         21   -1    0    0  501  502 -0.00000000000E+00 -0.00000000000E+00 -0.26213274842E+03  0.26213274842E+03  0.00000000000E+00 0. -1.
         25    1    1    2    0    0  0.82828832550E+02 -0.18111380626E+03  0.20868467673E+03  0.31438371558E+03  0.12500000000E+03 0.  0.
         25    1    1    2    0    0 -0.10048163367E+03 -0.20814764420E+02 -0.60557375459E+02  0.17269050016E+03  0.12500000000E+03 0.  0.
         25    1    1    2    0    0  0.17652801122E+02  0.20192857068E+03  0.60352264143E+02  0.24567084652E+03  0.12500000000E+03 0.  0.
</event>
<event>
 5    0  0.5745130E-005  0.2949673E+03  0.7546771E-02  0.1087784E+00
         21   -1    0    0  502  501  0.00000000000E+00  0.00000000000E+00  0.36756034883E+03  0.36756034883E+03  0.00000000000E+00 0. -1.
         21   -1    0    0  501  502 -0.00000000000E+00 -0.00000000000E+00 -0.23671139431E+03  0.23671139431E+03  0.00000000000E+00 0. -1.
         25    1    1    2    0    0  0.10741958365E+03 -0.83028054533E+02  0.81212408137E+02  0.20162608965E+03  0.12500000000E+03 0.  0.
         25    1    1    2    0    0 -0.19635084566E+03  0.77836394596E+02  0.19376116751E+02  0.24619624858E+03  0.12500000000E+03 0.  0.
         25    1    1    2    0    0  0.88931262004E+02  0.51916599370E+01  0.30260429627E+02  0.15644940491E+03  0.12500000000E+03 0.  0.
</event>
<event>
 5    0  0.5561624E-005  0.4100704E+03  0.7546771E-02  0.1040347E+00
         21   -1    0    0  502  501  0.00000000000E+00  0.00000000000E+00  0.32569159325E+03  0.32569159325E+03  0.00000000000E+00 0. -1.
         21   -1    0    0  501  502 -0.00000000000E+00 -0.00000000000E+00 -0.51630971987E+03  0.51630971987E+03  0.00000000000E+00 0. -1.
         25    1    1    2    0    0 -0.14684384169E+03 -0.12448878191E+03  0.20044129303E+03  0.30473313344E+03  0.12500000000E+03 0.  0.
         25    1    1    2    0    0 -0.24280869321E+02  0.71524054676E+02 -0.11914664718E+03  0.18848388405E+03  0.12500000000E+03 0.  0.
         25    1    1    2    0    0  0.17112471101E+03  0.52964727236E+02 -0.27191277247E+03  0.34878429563E+03  0.12500000000E+03 0.  0.
</event>
<event>
 5    0  0.5561624E-005  0.2331576E+03  0.7546771E-02  0.1124437E+00
         21   -1    0    0  502  501  0.00000000000E+00  0.00000000000E+00  0.54697514705E+03  0.54697514705E+03  0.00000000000E+00 0.  1.
         21   -1    0    0  501  502 -0.00000000000E+00 -0.00000000000E+00 -0.99387433937E+02  0.99387433937E+02  0.00000000000E+00 0.  1.
         25    1    1    2    0    0  0.33755229213E+01 -0.32224200058E+02  0.31138459167E+03  0.33709814173E+03  0.12500000000E+03 0.  0.
         25    1    1    2    0    0 -0.26586357810E+02 -0.36629443607E+02  0.60509276326E+02  0.14606479070E+03  0.12500000000E+03 0.  0.
         25    1    1    2    0    0  0.23210834889E+02  0.68853643664E+02  0.75693845113E+02  0.16319964856E+03  0.12500000000E+03 0.  0.
</event>
<event>
 5    0  0.5561624E-005  0.2797662E+03  0.7546771E-02  0.1095817E+00
         21   -1    0    0  502  501  0.00000000000E+00  0.00000000000E+00  0.21402516390E+03  0.21402516390E+03  0.00000000000E+00 0. -1.
         21   -1    0    0  501  502 -0.00000000000E+00 -0.00000000000E+00 -0.36570065027E+03  0.36570065027E+03  0.00000000000E+00 0. -1.
         25    1    1    2    0    0  0.88616316356E+02 -0.44391261264E+02  0.89520466410E+02  0.18292716995E+03  0.12500000000E+03 0.  0.
         25    1    1    2    0    0 -0.10806264222E+03  0.76300787447E+02 -0.11501775107E+03  0.21529846230E+03  0.12500000000E+03 0.  0.
         25    1    1    2    0    0  0.19446325863E+02 -0.31909526184E+02 -0.12617820171E+03  0.18150018192E+03  0.12500000000E+03 0.  0.
</event>
<event>
 5    0  0.5561624E-005  0.3520638E+03  0.7546771E-02  0.1061771E+00
         21   -1    0    0  502  501  0.00000000000E+00  0.00000000000E+00  0.12126102436E+03  0.12126102436E+03  0.00000000000E+00 0. -1.
         21   -1    0    0  501  502 -0.00000000000E+00 -0.00000000000E+00 -0.10221660109E+04  0.10221660109E+04  0.00000000000E+00 0. -1.
         25    1    1    2    0    0 -0.17135552124E+03 -0.19603284298E+03 -0.26073147422E+03  0.38909830613E+03  0.12500000000E+03 0.  0.
         25    1    1    2    0    0  0.16207521559E+03  0.73116920530E+02 -0.41836042932E+03  0.47144979414E+03  0.12500000000E+03 0.  0.
         25    1    1    2    0    0  0.92803056505E+01  0.12291592245E+03 -0.22181308297E+03  0.28287893495E+03  0.12500000000E+03 0.  0.
</event>
<event>
 5    0  0.5561624E-005  0.3273051E+03  0.7546771E-02  0.1072336E+00
         21   -1    0    0  502  501  0.00000000000E+00  0.00000000000E+00  0.55888711810E+03  0.55888711810E+03  0.00000000000E+00 0.  1.
         21   -1    0    0  501  502 -0.00000000000E+00 -0.00000000000E+00 -0.19168199615E+03  0.19168199615E+03  0.00000000000E+00 0.  1.
         25    1    1    2    0    0  0.20782737283E+03 -0.26098338672E+02  0.11869147981E+03  0.27126740969E+03  0.12500000000E+03 0.  0.
         25    1    1    2    0    0 -0.52990141815E+02 -0.50089649426E+02  0.22140241979E+03  0.26450134139E+03  0.12500000000E+03 0.  0.
         25    1    1    2    0    0 -0.15483723102E+03  0.76187988098E+02  0.27111222360E+02  0.21480036317E+03  0.12500000000E+03 0.  0.
</event>
<event>
 5    0  0.5561624E-005  0.3748857E+03  0.7546771E-02  0.1052840E+00
         21   -1    0    0  502  501  0.00000000000E+00  0.00000000000E+00  0.55920371343E+03  0.55920371343E+03  0.00000000000E+00 0.  1.
         21   -1    0    0  501  502 -0.00000000000E+00 -0.00000000000E+00 -0.25132043078E+03  0.25132043078E+03  0.00000000000E+00 0.  1.
         25    1    1    2    0    0 -0.14140521410E+03 -0.12670001624E+02  0.39460737565E+03  0.43760249592E+03  0.12500000000E+03 0.  0.
         25    1    1    2    0    0  0.19014228536E+03  0.79255243340E+01 -0.66169077682E+02  0.23710809657E+03  0.12500000000E+03 0.  0.
         25    1    1    2    0    0 -0.48737071252E+02  0.47444772904E+01 -0.20555015319E+02  0.13581355173E+03  0.12500000000E+03 0.  0.
</event>
<event>
 5    0  0.5561624E-005  0.2602275E+03  0.7546771E-02  0.1107007E+00
         21   -1    0    0  502  501  0.00000000000E+00  0.00000000000E+00  0.91349605068E+02  0.91349605068E+02  0.00000000000E+00 0.  1.
         21   -1    0    0  501  502 -0.00000000000E+00 -0.00000000000E+00 -0.74130992075E+03  0.74130992075E+03  0.00000000000E+00 0.  1.
         25    1    1    2    0    0  0.23796506119E+02 -0.20831672124E+02 -0.34260330622E+03  0.36606318813E+03  0.12500000000E+03 0.  0.
         25    1    1    2    0    0 -0.43770394731E+02 -0.66387167440E+02 -0.27065976183E+03  0.30855276717E+03  0.12500000000E+03 0.  0.
         25    1    1    2    0    0  0.19973888612E+02  0.87218839564E+02 -0.36697247638E+02  0.15804357053E+03  0.12500000000E+03 0.  0.
</event>
<event>
 5    0  0.5561624E-005  0.3232245E+03  0.7546771E-02  0.1074175E+00
         21   -1    0    0  502  501  0.00000000000E+00  0.00000000000E+00  0.71410407491E+02  0.71410407491E+02  0.00000000000E+00 0.  1.
         21   -1    0    0  501  502 -0.00000000000E+00 -0.00000000000E+00 -0.14630091730E+04  0.14630091730E+04  0.00000000000E+00 0.  1.
         25    1    1    2    0    0 -0.12259425942E+03 -0.97844790083E+02 -0.10215286381E+04  0.10410325230E+04  0.12500000000E+03 0.  0.
         25    1    1    2    0    0  0.11622127967E+03  0.28582199884E+02 -0.14057102730E+03  0.22295636729E+03  0.12500000000E+03 0.  0.
         25    1    1    2    0    0  0.63729797509E+01  0.69262590199E+02 -0.22949910001E+03  0.27043069016E+03  0.12500000000E+03 0.  0.
</event>
<event>
 5    0  0.5561624E-005  0.2529120E+03  0.7546771E-02  0.1111478E+00
         21   -1    0    0  502  501  0.00000000000E+00  0.00000000000E+00  0.76611950991E+03  0.76611950991E+03  0.00000000000E+00 0. -1.
         21   -1    0    0  501  502 -0.00000000000E+00 -0.00000000000E+00 -0.83491498058E+02  0.83491498058E+02  0.00000000000E+00 0. -1.
         25    1    1    2    0    0 -0.77205188115E+01  0.39098680853E+02  0.11143490508E+03  0.17213672277E+03  0.12500000000E+03 0.  0.
         25    1    1    2    0    0 -0.22943954912E+02  0.10531301205E+03  0.20367852845E+03  0.26215872774E+03  0.12500000000E+03 0.  0.
         25    1    1    2    0    0  0.30664473723E+02 -0.14441169290E+03  0.36751457832E+03  0.41531555746E+03  0.12500000000E+03 0.  0.
</event>
<event>
 5    0  0.5561624E-005  0.2561450E+03  0.7546771E-02  0.1109482E+00
         21   -1    0    0  502  501  0.00000000000E+00  0.00000000000E+00  0.91125845736E+02  0.91125845736E+02  0.00000000000E+00 0.  1.
         21   -1    0    0  501  502 -0.00000000000E+00 -0.00000000000E+00 -0.71999623791E+03  0.71999623791E+03  0.00000000000E+00 0.  1.
         25    1    1    2    0    0  0.40720783921E+02  0.75632986405E+02 -0.98788734128E+02  0.18100482001E+03  0.12500000000E+03 0.  0.
         25    1    1    2    0    0 -0.10307635631E+03 -0.74680432238E+02 -0.18108832548E+03  0.25420441345E+03  0.12500000000E+03 0.  0.
         25    1    1    2    0    0  0.62355572385E+02 -0.95255416686E+00 -0.34899333256E+03  0.37591285019E+03  0.12500000000E+03 0.  0.
</event>
<event>
 5    0  0.5561624E-005  0.9033743E+03  0.7546771E-02  0.9421373E-01
         21   -1    0    0  502  501  0.00000000000E+00  0.00000000000E+00  0.10598204164E+04  0.10598204164E+04  0.00000000000E+00 0.  1.
         21   -1    0    0  501  502 -0.00000000000E+00 -0.00000000000E+00 -0.77002201316E+03  0.77002201316E+03  0.00000000000E+00 0.  1.
         25    1    1    2    0    0  0.15804743100E+03  0.27900649869E+03 -0.46188884937E+03  0.57601208835E+03  0.12500000000E+03 0.  0.
         25    1    1    2    0    0 -0.34655334980E+03 -0.31362412961E+03  0.87056383560E+03  0.99597475409E+03  0.12500000000E+03 0.  0.
         25    1    1    2    0    0  0.18850591880E+03  0.34617630919E+02 -0.11887658303E+03  0.25785558708E+03  0.12500000000E+03 0.  0.
</event>
<event>
 5    0  0.5561624E-005  0.3371404E+03  0.7546771E-02  0.1068020E+00
         21   -1    0    0  502  501  0.00000000000E+00  0.00000000000E+00  0.14663075812E+04  0.14663075812E+04  0.00000000000E+00 0.  1.
         21   -1    0    0  501  502 -0.00000000000E+00 -0.00000000000E+00 -0.77516920016E+02  0.77516920016E+02  0.00000000000E+00 0.  1.
         25    1    1    2    0    0  0.13739592400E+03 -0.11119353615E+03  0.41052840137E+03  0.46411228248E+03  0.12500000000E+03 0.  0.
         25    1    1    2    0    0 -0.21144691439E+01  0.75144165531E+02  0.82387448440E+03  0.83668708765E+03  0.12500000000E+03 0.  0.
         25    1    1    2    0    0 -0.13528145486E+03  0.36049370618E+02  0.15438777544E+03  0.24302513112E+03  0.12500000000E+03 0.  0.
</event>
<event>
 5    0  0.5561624E-005  0.2308611E+03  0.7546771E-02  0.1126035E+00
         21   -1    0    0  502  501  0.00000000000E+00  0.00000000000E+00  0.92604994365E+02  0.92604994365E+02  0.00000000000E+00 0.  1.
         21   -1    0    0  501  502 -0.00000000000E+00 -0.00000000000E+00 -0.57552880915E+03  0.57552880915E+03  0.00000000000E+00 0.  1.
         25    1    1    2    0    0  0.95356023118E+02 -0.33680716071E+02 -0.30085683831E+03  0.34112607484E+03  0.12500000000E+03 0.  0.
         25    1    1    2    0    0 -0.34368010401E+02  0.70282715180E+01 -0.93209931431E+02  0.15982380316E+03  0.12500000000E+03 0.  0.
         25    1    1    2    0    0 -0.60988012718E+02  0.26652444553E+02 -0.88857045050E+02  0.16718392552E+03  0.12500000000E+03 0.  0.
</event>
<event>
 5    0  0.5962573E-005  0.2853070E+03  0.7546771E-02  0.1092825E+00
         21   -1    0    0  502  501  0.00000000000E+00  0.00000000000E+00  0.30787273222E+03  0.30787273222E+03  0.00000000000E+00 0.  1.
         21   -1    0    0  501  502 -0.00000000000E+00 -0.00000000000E+00 -0.26439518453E+03  0.26439518453E+03  0.00000000000E+00 0.  1.
         25    1    1    2    0    0  0.18149132981E+01  0.44046760635E+02 -0.62080629975E+02  0.14636398345E+03  0.12500000000E+03 0.  0.
         25    1    1    2    0    0  0.77543510216E+02  0.10258624450E+03 -0.23379663812E+02  0.18085503094E+03  0.12500000000E+03 0.  0.
         25    1    1    2    0    0 -0.79358423514E+02 -0.14663300514E+03  0.12893784148E+03  0.24504890235E+03  0.12500000000E+03 0.  0.
</event>
<event>
 5    0  0.5561624E-005  0.2797242E+03  0.7546771E-02  0.1095840E+00
         21   -1    0    0  502  501  0.00000000000E+00  0.00000000000E+00  0.31194862865E+03  0.31194862865E+03  0.00000000000E+00 0. -1.
         21   -1    0    0  501  502 -0.00000000000E+00 -0.00000000000E+00 -0.25082860214E+03  0.25082860214E+03  0.00000000000E+00 0. -1.
         25    1    1    2    0    0 -0.67972115244E+02  0.14782747158E+02 -0.11490308379E+03  0.18348421384E+03  0.12500000000E+03 0.  0.
         25    1    1    2    0    0  0.12291407761E+02  0.83043184157E+02  0.14342921916E+03  0.20795237447E+03  0.12500000000E+03 0.  0.
         25    1    1    2    0    0  0.55680707483E+02 -0.97825931315E+02  0.32593891149E+02  0.17134064247E+03  0.12500000000E+03 0.  0.
</event>
<event>
 5    0  0.5561624E-005  0.4072307E+03  0.7546771E-02  0.1041304E+00
         21   -1    0    0  502  501  0.00000000000E+00  0.00000000000E+00  0.42667853959E+03  0.42667853959E+03  0.00000000000E+00 0. -1.
         21   -1    0    0  501  502 -0.00000000000E+00 -0.00000000000E+00 -0.38866936850E+03  0.38866936850E+03  0.00000000000E+00 0. -1.
         25    1    1    2    0    0 -0.66483826451E+02  0.71112093057E+02  0.25774336352E+03  0.30254531958E+03  0.12500000000E+03 0.  0.
         25    1    1    2    0    0  0.64439643207E+02  0.80627774903E+02 -0.26537325155E+03  0.31096827545E+03  0.12500000000E+03 0.  0.
         25    1    1    2    0    0  0.20441832445E+01 -0.15173986796E+03  0.45639059114E+02  0.20183431307E+03  0.12500000000E+03 0.  0.
</event>
<event>
 5    0  0.5561624E-005  0.2656608E+03  0.7546771E-02  0.1103789E+00
         21   -1    0    0  502  501  0.00000000000E+00  0.00000000000E+00  0.23083877190E+03  0.23083877190E+03  0.00000000000E+00 0.  1.
         21   -1    0    0  501  502 -0.00000000000E+00 -0.00000000000E+00 -0.30573565091E+03  0.30573565091E+03  0.00000000000E+00 0.  1.
         25    1    1    2    0    0  0.34647781422E+02  0.18667179532E+02  0.79417184542E+02  0.15323518379E+03  0.12500000000E+03 0.  0.
         25    1    1    2    0    0 -0.71643069919E+02  0.86953324044E+02 -0.13242898215E+03  0.21414024690E+03  0.12500000000E+03 0.  0.
         25    1    1    2    0    0  0.36995288497E+02 -0.10562050358E+03 -0.21885081399E+02  0.16919899212E+03  0.12500000000E+03 0.  0.
</event>
<event>
 5    0  0.6559157E-005  0.4893446E+03  0.7546771E-02  0.1016598E+00
         21   -1    0    0  502  501  0.00000000000E+00  0.00000000000E+00  0.61621426070E+03  0.61621426070E+03  0.00000000000E+00 0. -1.
         21   -1    0    0  501  502 -0.00000000000E+00 -0.00000000000E+00 -0.38859559641E+03  0.38859559641E+03  0.00000000000E+00 0. -1.
         25    1    1    2    0    0  0.14964595855E+03 -0.93109166824E+02  0.31485827246E+03  0.38186903723E+03  0.12500000000E+03 0.  0.
         25    1    1    2    0    0  0.52258724332E+02 -0.97104204254E+02 -0.23226533260E+03  0.28588876418E+03  0.12500000000E+03 0.  0.
         25    1    1    2    0    0 -0.20190468288E+03  0.19021337108E+03  0.14502572443E+03  0.33705205570E+03  0.12500000000E+03 0.  0.
</event>
<event>
 5    0  0.5561624E-005  0.2282744E+03  0.7546771E-02  0.1127860E+00
         21   -1    0    0  502  501  0.00000000000E+00  0.00000000000E+00  0.16812757407E+03  0.16812757407E+03  0.00000000000E+00 0.  1.
         21   -1    0    0  501  502 -0.00000000000E+00 -0.00000000000E+00 -0.30993842906E+03  0.30993842906E+03  0.00000000000E+00 0.  1.
         25    1    1    2    0    0  0.19510764323E+02  0.44340559719E+02  0.52707375368E+02  0.14404798707E+03  0.12500000000E+03 0.  0.
         25    1    1    2    0    0  0.69760891786E+01 -0.61434259565E+02 -0.75586200632E+02  0.15862253243E+03  0.12500000000E+03 0.  0.
         25    1    1    2    0    0 -0.26486853502E+02  0.17093699846E+02 -0.11893202973E+03  0.17539548363E+03  0.12500000000E+03 0.  0.
</event>
<event>
 5    0  0.5561624E-005  0.2642446E+03  0.7546771E-02  0.1104620E+00
         21   -1    0    0  502  501  0.00000000000E+00  0.00000000000E+00  0.52162285050E+03  0.52162285050E+03  0.00000000000E+00 0. -1.
         21   -1    0    0  501  502 -0.00000000000E+00 -0.00000000000E+00 -0.13386145546E+03  0.13386145546E+03  0.00000000000E+00 0. -1.
         25    1    1    2    0    0  0.86798488321E+01 -0.11042743172E+03  0.55491563208E+02  0.17599395171E+03  0.12500000000E+03 0.  0.
         25    1    1    2    0    0  0.88525951987E+02  0.86449815048E+02  0.22970954655E+03  0.28931279002E+03  0.12500000000E+03 0.  0.
         25    1    1    2    0    0 -0.97205800819E+02  0.23977616671E+02  0.10256028529E+03  0.19017756422E+03  0.12500000000E+03 0.  0.
</event>
<event>
 5    0  0.5561624E-005  0.3305409E+03  0.7546771E-02  0.1070898E+00
         21   -1    0    0  502  501  0.00000000000E+00  0.00000000000E+00  0.50214204703E+03  0.50214204703E+03  0.00000000000E+00 0.  1.
         21   -1    0    0  501  502 -0.00000000000E+00 -0.00000000000E+00 -0.21758242836E+03  0.21758242836E+03  0.00000000000E+00 0.  1.
         25    1    1    2    0    0  0.12315753615E+03  0.11576788202E+03  0.27685378056E+03  0.34762479346E+03  0.12500000000E+03 0.  0.
         25    1    1    2    0    0 -0.63070600968E+01  0.45778354482E+02 -0.21433619652E+02  0.13498087567E+03  0.12500000000E+03 0.  0.
         25    1    1    2    0    0 -0.11685047605E+03 -0.16154623650E+03  0.29139457761E+02  0.23711880626E+03  0.12500000000E+03 0.  0.
</event>
<event>
 5    0  0.5561624E-005  0.3103946E+03  0.7546771E-02  0.1080157E+00
         21   -1    0    0  502  501  0.00000000000E+00  0.00000000000E+00  0.64111515813E+03  0.64111515813E+03  0.00000000000E+00 0.  1.
         21   -1    0    0  501  502 -0.00000000000E+00 -0.00000000000E+00 -0.15027695465E+03  0.15027695465E+03  0.00000000000E+00 0.  1.
         25    1    1    2    0    0  0.16279551965E+03  0.11415700790E+03  0.38642001421E+03  0.45219424040E+03  0.12500000000E+03 0.  0.
         25    1    1    2    0    0 -0.10200286384E+03 -0.52176121483E+02  0.68132145195E+02  0.18274003692E+03  0.12500000000E+03 0.  0.
         25    1    1    2    0    0 -0.60792655807E+02 -0.61980886421E+02  0.36286044077E+02  0.15645783546E+03  0.12500000000E+03 0.  0.
</event>
<event>
 5    0  0.5561624E-005  0.4582779E+03  0.7546771E-02  0.1025282E+00
         21   -1    0    0  502  501  0.00000000000E+00  0.00000000000E+00  0.16410937054E+03  0.16410937054E+03  0.00000000000E+00 0. -1.
         21   -1    0    0  501  502 -0.00000000000E+00 -0.00000000000E+00 -0.12797480028E+04  0.12797480028E+04  0.00000000000E+00 0. -1.
         25    1    1    2    0    0 -0.22456116837E+03  0.76565488808E+02 -0.61673190700E+03  0.67251263001E+03  0.12500000000E+03 0.  0.
         25    1    1    2    0    0  0.97956091451E+00 -0.21029303950E+03 -0.70500624707E+02  0.25459666157E+03  0.12500000000E+03 0.  0.
         25    1    1    2    0    0  0.22358160745E+03  0.13372755069E+03 -0.42840610055E+03  0.51674808175E+03  0.12500000000E+03 0.  0.
</event>
<event>
 5    0  0.5585161E-005  0.3002814E+03  0.7546771E-02  0.1085100E+00
         21   -1    0    0  502  501  0.00000000000E+00  0.00000000000E+00  0.48154442930E+03  0.48154442930E+03  0.00000000000E+00 0.  1.
         21   -1    0    0  501  502 -0.00000000000E+00 -0.00000000000E+00 -0.18724940992E+03  0.18724940992E+03  0.00000000000E+00 0.  1.
         25    1    1    2    0    0  0.23786623845E+02  0.11693286192E+03  0.64136546358E+02  0.18433012301E+03  0.12500000000E+03 0.  0.
         25    1    1    2    0    0  0.79270752539E+02 -0.50864213600E+02  0.26338369844E+03  0.30637720711E+03  0.12500000000E+03 0.  0.
         25    1    1    2    0    0 -0.10305737638E+03 -0.66068648323E+02 -0.33225225416E+02  0.17808650910E+03  0.12500000000E+03 0.  0.
</event>
<event>
 5    0  0.5561624E-005  0.4211973E+03  0.7546771E-02  0.1036677E+00
         21   -1    0    0  502  501  0.00000000000E+00  0.00000000000E+00  0.26966828392E+03  0.26966828392E+03  0.00000000000E+00 0.  1.
         21   -1    0    0  501  502 -0.00000000000E+00 -0.00000000000E+00 -0.65787183157E+03  0.65787183157E+03  0.00000000000E+00 0.  1.
         25    1    1    2    0    0  0.24028414655E+03 -0.62884706084E+02  0.81037706287E+02  0.28962573639E+03  0.12500000000E+03 0.  0.
         25    1    1    2    0    0 -0.17575435787E+03 -0.22420841826E+02 -0.11076167603E+03  0.24348601055E+03  0.12500000000E+03 0.  0.
         25    1    1    2    0    0 -0.64529788676E+02  0.85305547910E+02 -0.35847957791E+03  0.39442836854E+03  0.12500000000E+03 0.  0.
</event>
<event>
 5    0  0.5561624E-005  0.3063858E+03  0.7546771E-02  0.1082091E+00
         21   -1    0    0  502  501  0.00000000000E+00  0.00000000000E+00  0.29391225503E+03  0.29391225503E+03  0.00000000000E+00 0. -1.
         21   -1    0    0  501  502 -0.00000000000E+00 -0.00000000000E+00 -0.31938866627E+03  0.31938866627E+03  0.00000000000E+00 0. -1.
         25    1    1    2    0    0  0.84387148411E+01  0.59498834525E+02  0.10747571983E+03  0.17546325419E+03  0.12500000000E+03 0.  0.
         25    1    1    2    0    0  0.14623593205E+03 -0.91854851055E+02 -0.44430400790E+02  0.21776437266E+03  0.12500000000E+03 0.  0.
         25    1    1    2    0    0 -0.15467464689E+03  0.32356016530E+02 -0.88521730293E+02  0.22007329445E+03  0.12500000000E+03 0.  0.
</event>
<event>
 5    0  0.5561624E-005  0.3153384E+03  0.7546771E-02  0.1077815E+00
         21   -1    0    0  502  501  0.00000000000E+00  0.00000000000E+00  0.25686181380E+03  0.25686181380E+03  0.00000000000E+00 0. -1.
         21   -1    0    0  501  502 -0.00000000000E+00 -0.00000000000E+00 -0.38712751419E+03  0.38712751419E+03  0.00000000000E+00 0. -1.
         25    1    1    2    0    0  0.10054647478E+03 -0.22112188004E+03 -0.67980822173E+02  0.28151531327E+03  0.12500000000E+03 0.  0.
         25    1    1    2    0    0 -0.86231222221E+02  0.10202460476E+03 -0.19208703681E+02  0.18395330375E+03  0.12500000000E+03 0.  0.
         25    1    1    2    0    0 -0.14315252560E+02  0.11909727528E+03 -0.43076174532E+02  0.17852071097E+03  0.12500000000E+03 0.  0.
</event>
<event>
 5    0  0.5561624E-005  0.3224178E+03  0.7546771E-02  0.1074542E+00
         21   -1    0    0  502  501  0.00000000000E+00  0.00000000000E+00  0.63295949906E+02  0.63295949906E+02  0.00000000000E+00 0. -1.
         21   -1    0    0  501  502 -0.00000000000E+00 -0.00000000000E+00 -0.16423360671E+04  0.16423360671E+04  0.00000000000E+00 0. -1.
         25    1    1    2    0    0 -0.33405051350E+02 -0.43378911162E+02 -0.44780103845E+03  0.46813288437E+03  0.12500000000E+03 0.  0.
         25    1    1    2    0    0  0.17663388528E+03  0.16533352530E+03 -0.69046005261E+03  0.74222286967E+03  0.12500000000E+03 0.  0.
         25    1    1    2    0    0 -0.14322883393E+03 -0.12195461414E+03 -0.44077902618E+03  0.49527626301E+03  0.12500000000E+03 0.  0.
</event>
<event>
 5    0  0.5561624E-005  0.4711609E+03  0.7546771E-02  0.1021593E+00
         21   -1    0    0  502  501  0.00000000000E+00  0.00000000000E+00  0.50163374266E+03  0.50163374266E+03  0.00000000000E+00 0.  1.
         21   -1    0    0  501  502 -0.00000000000E+00 -0.00000000000E+00 -0.44253915336E+03  0.44253915336E+03  0.00000000000E+00 0.  1.
         25    1    1    2    0    0  0.53861019833E+02 -0.19508959600E+03  0.27185808859E+03  0.36123784444E+03  0.12500000000E+03 0.  0.
         25    1    1    2    0    0  0.40673481590E+02  0.87926338639E+02 -0.32567322610E+03  0.36204063768E+03  0.12500000000E+03 0.  0.
         25    1    1    2    0    0 -0.94534501423E+02  0.10716325736E+03  0.11290972681E+03  0.22089441391E+03  0.12500000000E+03 0.  0.
</event>
<event>
 5    0  0.5561624E-005  0.2955327E+03  0.7546771E-02  0.1087495E+00
         21   -1    0    0  502  501  0.00000000000E+00  0.00000000000E+00  0.26207129893E+03  0.26207129893E+03  0.00000000000E+00 0. -1.
         21   -1    0    0  501  502 -0.00000000000E+00 -0.00000000000E+00 -0.33326652720E+03  0.33326652720E+03  0.00000000000E+00 0. -1.
         25    1    1    2    0    0  0.11450652273E+03 -0.92354960075E+02  0.28319183241E+02  0.19511063154E+03  0.12500000000E+03 0.  0.
         25    1    1    2    0    0  0.76592469127E+02  0.23645100553E+02 -0.26535491618E+02  0.15084637690E+03  0.12500000000E+03 0.  0.
         25    1    1    2    0    0 -0.19109899186E+03  0.68709859521E+02 -0.72978919903E+02  0.24938081770E+03  0.12500000000E+03 0.  0.
</event>
<event>
 5    0  0.5561624E-005  0.3443565E+03  0.7546771E-02  0.1064955E+00
         21   -1    0    0  502  501  0.00000000000E+00  0.00000000000E+00  0.31741952958E+03  0.31741952958E+03  0.00000000000E+00 0. -1.
         21   -1    0    0  501  502 -0.00000000000E+00 -0.00000000000E+00 -0.37357942508E+03  0.37357942508E+03  0.00000000000E+00 0.  1.
         25    1    1    2    0    0  0.21595555631E+03  0.16426722939E+03 -0.58060212158E+02  0.30432961273E+03  0.12500000000E+03 0.  0.
         25    1    1    2    0    0 -0.16875830393E+03 -0.12984512906E+03  0.18991859479E+02  0.24763847320E+03  0.12500000000E+03 0.  0.
         25    1    1    2    0    0 -0.47197252380E+02 -0.34422100331E+02 -0.17091542820E+02  0.13903086873E+03  0.12500000000E+03 0.  0.
</event>
<event>
 5    0  0.5561624E-005  0.2434630E+03  0.7546771E-02  0.1117507E+00
         21   -1    0    0  502  501  0.00000000000E+00  0.00000000000E+00  0.24672978380E+03  0.24672978380E+03  0.00000000000E+00 0.  1.
         21   -1    0    0  501  502 -0.00000000000E+00 -0.00000000000E+00 -0.24023939739E+03  0.24023939739E+03  0.00000000000E+00 0.  1.
         25    1    1    2    0    0 -0.22207041983E+02 -0.58739283532E+02 -0.71494706186E+02  0.15709853327E+03  0.12500000000E+03 0.  0.
         25    1    1    2    0    0  0.24332626183E+02  0.31902919239E+02  0.13638161878E+03  0.18930086871E+03  0.12500000000E+03 0.  0.
         25    1    1    2    0    0 -0.21255842002E+01  0.26836364293E+02 -0.58396526191E+02  0.14056977921E+03  0.12500000000E+03 0.  0.
</event>
<event>
 5    0  0.5741176E-005  0.3971638E+03  0.7546771E-02  0.1044766E+00
         21   -1    0    0  502  501  0.00000000000E+00  0.00000000000E+00  0.61798249264E+03  0.61798249264E+03  0.00000000000E+00 0. -1.
         21   -1    0    0  501  502 -0.00000000000E+00 -0.00000000000E+00 -0.25524845322E+03  0.25524845322E+03  0.00000000000E+00 0. -1.
         25    1    1    2    0    0  0.21660851462E+03 -0.14832808981E+03  0.15922490496E+03  0.33150873471E+03  0.12500000000E+03 0.  0.
         25    1    1    2    0    0 -0.16216205229E+03 -0.47597977974E+02  0.21767540342E+03  0.30260482475E+03  0.12500000000E+03 0.  0.
         25    1    1    2    0    0 -0.54446462336E+02  0.19592606779E+03 -0.14166268953E+02  0.23911738639E+03  0.12500000000E+03 0.  0.
</event>
<event>
 5    0  0.5561624E-005  0.2975323E+03  0.7546771E-02  0.1086481E+00
         21   -1    0    0  502  501  0.00000000000E+00  0.00000000000E+00  0.49211601656E+03  0.49211601656E+03  0.00000000000E+00 0. -1.
         21   -1    0    0  501  502 -0.00000000000E+00 -0.00000000000E+00 -0.17988736499E+03  0.17988736499E+03  0.00000000000E+00 0. -1.
         25    1    1    2    0    0 -0.69235311220E+01  0.12455292351E+03  0.31560443927E+03  0.36165249636E+03  0.12500000000E+03 0.  0.
         25    1    1    2    0    0 -0.17343554937E+02 -0.72657119666E+01  0.38689067273E+02  0.13219467990E+03  0.12500000000E+03 0.  0.
         25    1    1    2    0    0  0.24267086059E+02 -0.11728721154E+03 -0.42064854980E+02  0.17815620528E+03  0.12500000000E+03 0.  0.
</event>
<event>
 5    0  0.5561624E-005  0.2578518E+03  0.7546771E-02  0.1108441E+00
         21   -1    0    0  502  501  0.00000000000E+00  0.00000000000E+00  0.18167815789E+03  0.18167815789E+03  0.00000000000E+00 0. -1.
         21   -1    0    0  501  502 -0.00000000000E+00 -0.00000000000E+00 -0.36596337085E+03  0.36596337085E+03  0.00000000000E+00 0. -1.
         25    1    1    2    0    0 -0.95360186431E+02  0.85190619233E+02  0.11219628720E+02  0.17916999422E+03  0.12500000000E+03 0.  0.
         25    1    1    2    0    0  0.76864801591E+02 -0.90178300753E+01 -0.36347586682E+02  0.15144525757E+03  0.12500000000E+03 0.  0.
         25    1    1    2    0    0  0.18495384841E+02 -0.76172789157E+02 -0.15915725500E+03  0.21702627695E+03  0.12500000000E+03 0.  0.
</event>
<event>
 5    0  0.5561624E-005  0.2994070E+03  0.7546771E-02  0.1085537E+00
         21   -1    0    0  502  501  0.00000000000E+00  0.00000000000E+00  0.10736352125E+04  0.10736352125E+04  0.00000000000E+00 0.  1.
         21   -1    0    0  501  502 -0.00000000000E+00 -0.00000000000E+00 -0.83496286192E+02  0.83496286192E+02  0.00000000000E+00 0.  1.
         25    1    1    2    0    0  0.68976496560E+02 -0.10696739653E+02  0.66477128581E+02  0.15784925068E+03  0.12500000000E+03 0.  0.
         25    1    1    2    0    0 -0.31209236963E+02  0.11916187597E+03  0.25599704395E+03  0.31037566861E+03  0.12500000000E+03 0.  0.
         25    1    1    2    0    0 -0.37767259596E+02 -0.10846513632E+03  0.66766475374E+03  0.68890657936E+03  0.12500000000E+03 0.  0.
</event>
<event>
 5    0  0.5561624E-005  0.2588198E+03  0.7546771E-02  0.1107854E+00
         21   -1    0    0  502  501  0.00000000000E+00  0.00000000000E+00  0.20361816639E+03  0.20361816639E+03  0.00000000000E+00 0.  1.
         21   -1    0    0  501  502 -0.00000000000E+00 -0.00000000000E+00 -0.32898680298E+03  0.32898680298E+03  0.00000000000E+00 0.  1.
         25    1    1    2    0    0 -0.10227380306E+03 -0.70442383579E+01  0.85148122889E+02  0.18271495538E+03  0.12500000000E+03 0.  0.
         25    1    1    2    0    0  0.71144843715E+02  0.30751914908E+02 -0.12883571187E+03  0.19552726079E+03  0.12500000000E+03 0.  0.
         25    1    1    2    0    0  0.31128959349E+02 -0.23707676550E+02 -0.81681047615E+02  0.15436275321E+03  0.12500000000E+03 0.  0.
</event>
<event>
 5    0  0.5561624E-005  0.3512723E+03  0.7546771E-02  0.1062094E+00
         21   -1    0    0  502  501  0.00000000000E+00  0.00000000000E+00  0.31628949172E+03  0.31628949172E+03  0.00000000000E+00 0. -1.
         21   -1    0    0  501  502 -0.00000000000E+00 -0.00000000000E+00 -0.39012424517E+03  0.39012424517E+03  0.00000000000E+00 0. -1.
         25    1    1    2    0    0  0.69036323592E+01 -0.12135541685E+03 -0.21125121382E+03  0.27391033693E+03  0.12500000000E+03 0.  0.
         25    1    1    2    0    0  0.14022175932E+03  0.12128848724E+02  0.60112551666E+02  0.19760508502E+03  0.12500000000E+03 0.  0.
         25    1    1    2    0    0 -0.14712539167E+03  0.10922656812E+03  0.77303908710E+02  0.23489831494E+03  0.12500000000E+03 0.  0.
</event>
<event>
 5    0  0.5561624E-005  0.3105712E+03  0.7546771E-02  0.1080072E+00
         21   -1    0    0  502  501  0.00000000000E+00  0.00000000000E+00  0.21334010736E+03  0.21334010736E+03  0.00000000000E+00 0.  1.
         21   -1    0    0  501  502 -0.00000000000E+00 -0.00000000000E+00 -0.45211603702E+03  0.45211603702E+03  0.00000000000E+00 0.  1.
         25    1    1    2    0    0  0.71791864117E+02  0.10635961106E+03  0.56599470946E+02  0.18786947258E+03  0.12500000000E+03 0.  0.
         25    1    1    2    0    0 -0.72726468541E+02 -0.44842625331E+02 -0.45075892378E+00  0.15141071117E+03  0.12500000000E+03 0.  0.
         25    1    1    2    0    0  0.93460442423E+00 -0.61516985725E+02 -0.29492464168E+03  0.32617596062E+03  0.12500000000E+03 0.  0.
</event>
<event>
 5    0  0.5561624E-005  0.2750481E+03  0.7546771E-02  0.1098425E+00
         21   -1    0    0  502  501  0.00000000000E+00  0.00000000000E+00  0.76801095426E+03  0.76801095426E+03  0.00000000000E+00 0. -1.
         21   -1    0    0  501  502 -0.00000000000E+00 -0.00000000000E+00 -0.98503076747E+02  0.98503076747E+02  0.00000000000E+00 0. -1.
         25    1    1    2    0    0  0.57554686183E-01 -0.41285769968E+02  0.26138966285E+03  0.29266717267E+03  0.12500000000E+03 0.  0.
         25    1    1    2    0    0  0.13844389401E+03 -0.53482742581E+02  0.20309176049E+03  0.28088855214E+03  0.12500000000E+03 0.  0.
         25    1    1    2    0    0 -0.13850144869E+03  0.94768512548E+02  0.20502645417E+03  0.29295830620E+03  0.12500000000E+03 0.  0.
</event>
<event>
 5    0  0.5561624E-005  0.3398314E+03  0.7546771E-02  0.1066868E+00
         21   -1    0    0  502  501  0.00000000000E+00  0.00000000000E+00  0.12231663042E+03  0.12231663042E+03  0.00000000000E+00 0. -1.
         21   -1    0    0  501  502 -0.00000000000E+00 -0.00000000000E+00 -0.94415091240E+03  0.94415091240E+03  0.00000000000E+00 0. -1.
         25    1    1    2    0    0 -0.11134162788E+03  0.67919143774E+02 -0.20484033157E+03  0.27311999126E+03  0.12500000000E+03 0.  0.
         25    1    1    2    0    0 -0.12593186453E+03 -0.13430756908E+02 -0.42004069258E+03  0.45617803888E+03  0.12500000000E+03 0.  0.
         25    1    1    2    0    0  0.23727349241E+03 -0.54488386866E+02 -0.19695325783E+03  0.33716951267E+03  0.12500000000E+03 0.  0.
</event>
<event>
 5    0  0.5561624E-005  0.3017437E+03  0.7546771E-02  0.1084372E+00
         21   -1    0    0  502  501  0.00000000000E+00  0.00000000000E+00  0.49382006479E+02  0.49382006479E+02  0.00000000000E+00 0. -1.
         21   -1    0    0  501  502 -0.00000000000E+00 -0.00000000000E+00 -0.18437734445E+04  0.18437734445E+04  0.00000000000E+00 0. -1.
         25    1    1    2    0    0 -0.17118853531E+03 -0.54487317081E+02 -0.37475348709E+03  0.43398105769E+03  0.12500000000E+03 0.  0.
         25    1    1    2    0    0  0.27913924473E+02  0.59453190821E+02 -0.74364440713E+03  0.75693188157E+03  0.12500000000E+03 0.  0.
         25    1    1    2    0    0  0.14327461084E+03 -0.49658737398E+01 -0.67599354379E+03  0.70224251171E+03  0.12500000000E+03 0.  0.
</event>
<event>
 5    0  0.5561624E-005  0.2632733E+03  0.7546771E-02  0.1105192E+00
         21   -1    0    0  502  501  0.00000000000E+00  0.00000000000E+00  0.10087160198E+03  0.10087160198E+03  0.00000000000E+00 0.  1.
         21   -1    0    0  501  502 -0.00000000000E+00 -0.00000000000E+00 -0.68713916015E+03  0.68713916015E+03  0.00000000000E+00 0.  1.
         25    1    1    2    0    0  0.13359739738E+03  0.13566437843E+01 -0.14383355202E+03  0.23272987723E+03  0.12500000000E+03 0.  0.
         25    1    1    2    0    0 -0.99316051859E+02 -0.53602190036E+02 -0.12911558233E+03  0.21220911039E+03  0.12500000000E+03 0.  0.
         25    1    1    2    0    0 -0.34281345521E+02  0.52245546252E+02 -0.31331842383E+03  0.34307177451E+03  0.12500000000E+03 0.  0.
</event>
<event>
 5    0  0.5561624E-005  0.2842262E+03  0.7546771E-02  0.1093403E+00
         21   -1    0    0  502  501  0.00000000000E+00  0.00000000000E+00  0.45769055443E+02  0.45769055443E+02  0.00000000000E+00 0.  1.
         21   -1    0    0  501  502 -0.00000000000E+00 -0.00000000000E+00 -0.17650468274E+04  0.17650468274E+04  0.00000000000E+00 0.  1.
         25    1    1    2    0    0 -0.35586428334E+02 -0.30896188002E+02 -0.13555439162E+03  0.19031805327E+03  0.12500000000E+03 0.  0.
         25    1    1    2    0    0  0.38833729680E+02 -0.82785225737E+02 -0.10294299043E+04  0.10410150720E+04  0.12500000000E+03 0.  0.
         25    1    1    2    0    0 -0.32473013461E+01  0.11368141374E+03 -0.55429347597E+03  0.57948275756E+03  0.12500000000E+03 0.  0.
</event>
<event>
 5    0  0.5561624E-005  0.3311507E+03  0.7546771E-02  0.1070629E+00
         21   -1    0    0  502  501  0.00000000000E+00  0.00000000000E+00  0.13846070226E+03  0.13846070226E+03  0.00000000000E+00 0.  1.
         21   -1    0    0  501  502 -0.00000000000E+00 -0.00000000000E+00 -0.79199930613E+03  0.79199930613E+03  0.00000000000E+00 0.  1.
         25    1    1    2    0    0 -0.56927626604E+02 -0.68785896347E+02  0.45410806277E+02  0.16018550351E+03  0.12500000000E+03 0.  0.
         25    1    1    2    0    0  0.12974900700E+02  0.12479248557E+03 -0.43497132392E+03  0.46964514810E+03  0.12500000000E+03 0.  0.
         25    1    1    2    0    0  0.43952725903E+02 -0.56006589225E+02 -0.26397808623E+03  0.30062935678E+03  0.12500000000E+03 0.  0.
</event>
<event>
 5    0  0.5561624E-005  0.4677371E+03  0.7546771E-02  0.1022561E+00
         21   -1    0    0  502  501  0.00000000000E+00  0.00000000000E+00  0.17985181556E+04  0.17985181556E+04  0.00000000000E+00 0. -1.
         21   -1    0    0  501  502 -0.00000000000E+00 -0.00000000000E+00 -0.12164345123E+03  0.12164345123E+03  0.00000000000E+00 0. -1.
         25    1    1    2    0    0  0.10735985327E+03  0.48413770907E+02  0.41396827685E+03  0.44817938991E+03  0.12500000000E+03 0.  0.
         25    1    1    2    0    0  0.27723097862E+02 -0.29503079468E+03  0.23316143849E+03  0.39724173542E+03  0.12500000000E+03 0.  0.
         25    1    1    2    0    0 -0.13508295114E+03  0.24661702377E+03  0.10297449890E+04  0.10747404815E+04  0.12500000000E+03 0.  0.
</event>
<event>
 5    0  0.5561624E-005  0.2371198E+03  0.7546771E-02  0.1121727E+00
         21   -1    0    0  502  501  0.00000000000E+00  0.00000000000E+00  0.25220647888E+02  0.25220647888E+02  0.00000000000E+00 0. -1.
         21   -1    0    0  501  502 -0.00000000000E+00 -0.00000000000E+00 -0.22293564699E+04  0.22293564699E+04  0.00000000000E+00 0. -1.
         25    1    1    2    0    0 -0.11495912866E+03 -0.27897890274E+01 -0.76876379775E+03  0.78730309343E+03  0.12500000000E+03 0.  0.
         25    1    1    2    0    0  0.73203166272E+02 -0.48160381740E+02 -0.55395305713E+03  0.57460170156E+03  0.12500000000E+03 0.  0.
         25    1    1    2    0    0  0.41755962390E+02  0.50950170767E+02 -0.88141896714E+03  0.89267232282E+03  0.12500000000E+03 0.  0.
</event>
<event>
 5    0  0.5561624E-005  0.3131342E+03  0.7546771E-02  0.1078853E+00
         21   -1    0    0  502  501  0.00000000000E+00  0.00000000000E+00  0.16274440318E+04  0.16274440318E+04  0.00000000000E+00 0.  1.
         21   -1    0    0  501  502 -0.00000000000E+00 -0.00000000000E+00 -0.60249726737E+02  0.60249726737E+02  0.00000000000E+00 0.  1.
         25    1    1    2    0    0 -0.10339276641E+03 -0.14441173657E+02  0.20119746608E+03  0.25885137048E+03  0.12500000000E+03 0.  0.
         25    1    1    2    0    0 -0.59862592975E+02 -0.53520731703E+02  0.24040828434E+03  0.28261129124E+03  0.12500000000E+03 0.  0.
         25    1    1    2    0    0  0.16325535939E+03  0.67961905360E+02  0.11255885546E+04  0.11462310968E+04  0.12500000000E+03 0.  0.
</event>
<event>
 5    0  0.5561624E-005  0.3750966E+03  0.7546771E-02  0.1052761E+00
         21   -1    0    0  502  501  0.00000000000E+00  0.00000000000E+00  0.71593781408E+03  0.71593781408E+03  0.00000000000E+00 0.  1.
         21   -1    0    0  501  502 -0.00000000000E+00 -0.00000000000E+00 -0.19652190452E+03  0.19652190452E+03  0.00000000000E+00 0.  1.
         25    1    1    2    0    0 -0.16019566216E+03 -0.10163134533E+03  0.30689655947E+03  0.38184038386E+03  0.12500000000E+03 0.  0.
         25    1    1    2    0    0 -0.41040759225E+02 -0.39612058556E+02  0.21458270452E+03  0.25480226879E+03  0.12500000000E+03 0.  0.
         25    1    1    2    0    0  0.20123642139E+03  0.14124340389E+03 -0.20633544414E+01  0.27581706595E+03  0.12500000000E+03 0.  0.
</event>
<event>
 5    0  0.5561624E-005  0.3350748E+03  0.7546771E-02  0.1068913E+00
         21   -1    0    0  502  501  0.00000000000E+00  0.00000000000E+00  0.85797108732E+03  0.85797108732E+03  0.00000000000E+00 0.  1.
         21   -1    0    0  501  502 -0.00000000000E+00 -0.00000000000E+00 -0.13086118842E+03  0.13086118842E+03  0.00000000000E+00 0.  1.
         25    1    1    2    0    0 -0.92233477669E+01 -0.79378448518E+02  0.92386336341E+02  0.17477483622E+03  0.12500000000E+03 0.  0.
         25    1    1    2    0    0 -0.14406703240E+03  0.19852043214E+03  0.29728460142E+03  0.40517749943E+03  0.12500000000E+03 0.  0.
         25    1    1    2    0    0  0.15329038017E+03 -0.11914198362E+03  0.33743896114E+03  0.40887994009E+03  0.12500000000E+03 0.  0.
</event>
<event>
 5    0  0.5561624E-005  0.2970636E+03  0.7546771E-02  0.1086718E+00
         21   -1    0    0  502  501  0.00000000000E+00  0.00000000000E+00  0.79052354025E+02  0.79052354025E+02  0.00000000000E+00 0. -1.
         21   -1    0    0  501  502 -0.00000000000E+00 -0.00000000000E+00 -0.11163081060E+04  0.11163081060E+04  0.00000000000E+00 0. -1.
         25    1    1    2    0    0  0.71037651746E+02 -0.65019521431E+02 -0.73560898417E+03  0.75234265048E+03  0.12500000000E+03 0.  0.
         25    1    1    2    0    0 -0.11755657657E+02 -0.34986623682E+02 -0.21539649015E+03  0.25175962204E+03  0.12500000000E+03 0.  0.
         25    1    1    2    0    0 -0.59281994090E+02  0.10000614511E+03 -0.86250277616E+02  0.19125818747E+03  0.12500000000E+03 0.  0.
</event>
<event>
 5    0  0.5561624E-005  0.2926408E+03  0.7546771E-02  0.1088978E+00
         21   -1    0    0  502  501  0.00000000000E+00  0.00000000000E+00  0.77346892828E+03  0.77346892828E+03  0.00000000000E+00 0.  1.
         21   -1    0    0  501  502 -0.00000000000E+00 -0.00000000000E+00 -0.11072019376E+03  0.11072019376E+03  0.00000000000E+00 0.  1.
         25    1    1    2    0    0  0.33397824248E+02  0.55270968164E+02  0.32187318691E+03  0.35128000661E+03  0.12500000000E+03 0.  0.
         25    1    1    2    0    0 -0.16640060460E+03 -0.83589577821E+02  0.20172400922E+03  0.30165204231E+03  0.12500000000E+03 0.  0.
         25    1    1    2    0    0  0.13300278035E+03  0.28318609657E+02  0.13915153838E+03  0.23125707312E+03  0.12500000000E+03 0.  0.
</event>
<event>
 5    0  0.5561624E-005  0.3549689E+03  0.7546771E-02  0.1060594E+00
         21   -1    0    0  502  501  0.00000000000E+00  0.00000000000E+00  0.15477150023E+03  0.15477150023E+03  0.00000000000E+00 0. -1.
         21   -1    0    0  501  502 -0.00000000000E+00 -0.00000000000E+00 -0.81412234860E+03  0.81412234860E+03  0.00000000000E+00 0. -1.
         25    1    1    2    0    0 -0.53740844011E+02 -0.19591608203E+03 -0.27168673282E+03  0.36153820034E+03  0.12500000000E+03 0.  0.
         25    1    1    2    0    0 -0.10108558115E+03  0.21227013467E+03 -0.19642299981E+03  0.33088351371E+03  0.12500000000E+03 0.  0.
         25    1    1    2    0    0  0.15482642516E+03 -0.16354052635E+02 -0.19124111573E+03  0.27647213478E+03  0.12500000000E+03 0.  0.
</event>
<event>
 5    0  0.5561624E-005  0.2621073E+03  0.7546771E-02  0.1105884E+00
         21   -1    0    0  502  501  0.00000000000E+00  0.00000000000E+00  0.27565885478E+03  0.27565885478E+03  0.00000000000E+00 0.  1.
         21   -1    0    0  501  502 -0.00000000000E+00 -0.00000000000E+00 -0.24922193269E+03  0.24922193269E+03  0.00000000000E+00 0.  1.
         25    1    1    2    0    0 -0.11784636728E+03 -0.19035457480E+02 -0.52956808711E+02  0.18077482820E+03  0.12500000000E+03 0.  0.
         25    1    1    2    0    0  0.11318505298E+03 -0.37276578767E+02 -0.21201236117E+02  0.17399681594E+03  0.12500000000E+03 0.  0.
         25    1    1    2    0    0  0.46613142965E+01  0.56312036247E+02  0.10059496692E+03  0.17010914334E+03  0.12500000000E+03 0.  0.
</event>
<event>
 5    0  0.5561624E-005  0.2867968E+03  0.7546771E-02  0.1092034E+00
         21   -1    0    0  502  501  0.00000000000E+00  0.00000000000E+00  0.48834794118E+03  0.48834794118E+03  0.00000000000E+00 0.  1.
         21   -1    0    0  501  502 -0.00000000000E+00 -0.00000000000E+00 -0.16842988151E+03  0.16842988151E+03  0.00000000000E+00 0.  1.
         25    1    1    2    0    0  0.93007432519E+02  0.13723371405E+03  0.16429047243E+03  0.26476373261E+03  0.12500000000E+03 0.  0.
         25    1    1    2    0    0 -0.21776029438E+02 -0.48146417815E+02  0.17525832515E+03  0.22165909307E+03  0.12500000000E+03 0.  0.
         25    1    1    2    0    0 -0.71231403082E+02 -0.89087296238E+02 -0.19630737900E+02  0.17035499701E+03  0.12500000000E+03 0.  0.
</event>
<event>
 5    0  0.5561624E-005  0.3875717E+03  0.7546771E-02  0.1048170E+00
         21   -1    0    0  502  501  0.00000000000E+00  0.00000000000E+00  0.98755862849E+02  0.98755862849E+02  0.00000000000E+00 0.  1.
         21   -1    0    0  501  502 -0.00000000000E+00 -0.00000000000E+00 -0.15210423163E+04  0.15210423163E+04  0.00000000000E+00 0.  1.
         25    1    1    2    0    0 -0.12236036987E+03 -0.24117672869E+03 -0.26182105289E+03  0.39662770745E+03  0.12500000000E+03 0.  0.
         25    1    1    2    0    0  0.71560862452E+02  0.19771140911E+03 -0.75522207184E+03  0.79384893785E+03  0.12500000000E+03 0.  0.
         25    1    1    2    0    0  0.50799507416E+02  0.43465319586E+02 -0.40524332877E+03  0.42932153390E+03  0.12500000000E+03 0.  0.
</event>
<event>
 5    0  0.5825212E-005  0.3082414E+03  0.7546771E-02  0.1081192E+00
         21   -1    0    0  502  501  0.00000000000E+00  0.00000000000E+00  0.16724425936E+03  0.16724425936E+03  0.00000000000E+00 0. -1.
         21   -1    0    0  501  502 -0.00000000000E+00 -0.00000000000E+00 -0.56810767146E+03  0.56810767146E+03  0.00000000000E+00 0. -1.
         25    1    1    2    0    0  0.10748308080E+03  0.63390797552E+02 -0.28271870428E+02  0.17887231348E+03  0.12500000000E+03 0.  0.
         25    1    1    2    0    0 -0.64489685301E+02  0.43845621578E+01  0.14880216231E+02  0.14150817902E+03  0.12500000000E+03 0.  0.
         25    1    1    2    0    0 -0.42993395498E+02 -0.67775359710E+02 -0.38747175790E+03  0.41497143831E+03  0.12500000000E+03 0.  0.
</event>
<event>
 5    0  0.5561624E-005  0.4000448E+03  0.7546771E-02  0.1043764E+00
         21   -1    0    0  502  501  0.00000000000E+00  0.00000000000E+00  0.49721434697E+03  0.49721434697E+03  0.00000000000E+00 0.  1.
         21   -1    0    0  501  502 -0.00000000000E+00 -0.00000000000E+00 -0.32186482234E+03  0.32186482234E+03  0.00000000000E+00 0.  1.
         25    1    1    2    0    0  0.24572380291E+02 -0.11055077881E+03  0.24175845095E+03  0.29478369218E+03  0.12500000000E+03 0.  0.
         25    1    1    2    0    0  0.15002363915E+02 -0.16930933764E+03 -0.29873301346E+02  0.21309185078E+03  0.12500000000E+03 0.  0.
         25    1    1    2    0    0 -0.39574744206E+02  0.27986011645E+03 -0.36535624977E+02  0.31120362635E+03  0.12500000000E+03 0.  0.
</event>
<event>
 5    0  0.5561624E-005  0.2968274E+03  0.7546771E-02  0.1086837E+00
         21   -1    0    0  502  501  0.00000000000E+00  0.00000000000E+00  0.23620933057E+02  0.23620933057E+02  0.00000000000E+00 0.  1.
         21   -1    0    0  501  502 -0.00000000000E+00 -0.00000000000E+00 -0.37300187163E+04  0.37300187163E+04  0.00000000000E+00 0.  1.
         25    1    1    2    0    0 -0.73464846740E+02  0.11485571418E+03 -0.25649118672E+04  0.25715728272E+04  0.12500000000E+03 0.  0.
         25    1    1    2    0    0  0.75780574357E+02 -0.10798015856E+03 -0.65918541015E+03  0.68377833766E+03  0.12500000000E+03 0.  0.
         25    1    1    2    0    0 -0.23157276171E+01 -0.68755556190E+01 -0.48230050589E+03  0.49828848455E+03  0.12500000000E+03 0.  0.
</event>
<event>
 5    0  0.5561624E-005  0.3974917E+03  0.7546771E-02  0.1044652E+00
         21   -1    0    0  502  501  0.00000000000E+00  0.00000000000E+00  0.97003938588E+03  0.97003938588E+03  0.00000000000E+00 0.  1.
         21   -1    0    0  501  502 -0.00000000000E+00 -0.00000000000E+00 -0.16287963292E+03  0.16287963292E+03  0.00000000000E+00 0.  1.
         25    1    1    2    0    0  0.64163626300E+02  0.25965367344E+02  0.35258118560E+02  0.14717100994E+03  0.12500000000E+03 0.  0.
         25    1    1    2    0    0 -0.12985324509E+02 -0.26996052818E+03  0.56439086185E+03  0.63812957177E+03  0.12500000000E+03 0.  0.
         25    1    1    2    0    0 -0.51178301790E+02  0.24399516084E+03  0.20751077255E+03  0.34761843710E+03  0.12500000000E+03 0.  0.
</event>
<event>
 5    0  0.5561624E-005  0.2777508E+03  0.7546771E-02  0.1096924E+00
         21   -1    0    0  502  501  0.00000000000E+00  0.00000000000E+00  0.67181267258E+03  0.67181267258E+03  0.00000000000E+00 0.  1.
         21   -1    0    0  501  502 -0.00000000000E+00 -0.00000000000E+00 -0.11483190327E+03  0.11483190327E+03  0.00000000000E+00 0.  1.
         25    1    1    2    0    0 -0.37469080394E+02  0.42167365836E+01  0.36062478459E+03  0.38353219958E+03  0.12500000000E+03 0.  0.
         25    1    1    2    0    0 -0.58501992801E+02 -0.86743595357E+02  0.43870427955E+02  0.16880920871E+03  0.12500000000E+03 0.  0.
         25    1    1    2    0    0  0.95971073194E+02  0.82526858773E+02  0.15248555676E+03  0.23430316756E+03  0.12500000000E+03 0.  0.
</event>
<event>
 5    0  0.5561624E-005  0.2559879E+03  0.7546771E-02  0.1109578E+00
         21   -1    0    0  502  501  0.00000000000E+00  0.00000000000E+00  0.75010096504E+03  0.75010096504E+03  0.00000000000E+00 0. -1.
         21   -1    0    0  501  502 -0.00000000000E+00 -0.00000000000E+00 -0.87361325092E+02  0.87361325092E+02  0.00000000000E+00 0. -1.
         25    1    1    2    0    0  0.42619355656E+02  0.44517262375E+02  0.13886092756E+03  0.19673726980E+03  0.12500000000E+03 0.  0.
         25    1    1    2    0    0 -0.49975846064E+02 -0.14745607797E+03  0.35044744070E+03  0.40333520651E+03  0.12500000000E+03 0.  0.
         25    1    1    2    0    0  0.73564904079E+01  0.10293881559E+03  0.17343127170E+03  0.23738981383E+03  0.12500000000E+03 0.  0.
</event>
<event>
 5    0  0.5561624E-005  0.5798897E+03  0.7546771E-02  0.9948030E-01
         21   -1    0    0  502  501  0.00000000000E+00  0.00000000000E+00  0.35846600911E+03  0.35846600911E+03  0.00000000000E+00 0. -1.
         21   -1    0    0  501  502 -0.00000000000E+00 -0.00000000000E+00 -0.93808642974E+03  0.93808642974E+03  0.00000000000E+00 0. -1.
         25    1    1    2    0    0  0.32578335527E+03  0.39950848171E+03 -0.26168608645E+03  0.59147817320E+03  0.12500000000E+03 0.  0.
         25    1    1    2    0    0 -0.31587498942E+03 -0.21613722427E+03 -0.16373477164E+03  0.43465662781E+03  0.12500000000E+03 0.  0.
         25    1    1    2    0    0 -0.99083658467E+01 -0.18337125744E+03 -0.15419956253E+03  0.27041763784E+03  0.12500000000E+03 0.  0.
</event>
<event>
 5    0  0.5561624E-005  0.2377192E+03  0.7546771E-02  0.1121322E+00
         21   -1    0    0  502  501  0.00000000000E+00  0.00000000000E+00  0.62222004280E+03  0.62222004280E+03  0.00000000000E+00 0.  1.
         21   -1    0    0  501  502 -0.00000000000E+00 -0.00000000000E+00 -0.90820623558E+02  0.90820623558E+02  0.00000000000E+00 0.  1.
         25    1    1    2    0    0 -0.13379783762E+02  0.54642143718E+02  0.31679945116E+03  0.34518353776E+03  0.12500000000E+03 0.  0.
         25    1    1    2    0    0  0.66812470632E+02 -0.76528140369E+02  0.11454744013E+03  0.19765267147E+03  0.12500000000E+03 0.  0.
         25    1    1    2    0    0 -0.53432686870E+02  0.21885996652E+02  0.10005252794E+03  0.17020445712E+03  0.12500000000E+03 0.  0.
</event>
<event>
 5    0  0.5561624E-005  0.5248579E+03  0.7546771E-02  0.1007487E+00
         21   -1    0    0  502  501  0.00000000000E+00  0.00000000000E+00  0.25304878005E+03  0.25304878005E+03  0.00000000000E+00 0.  1.
         21   -1    0    0  501  502 -0.00000000000E+00 -0.00000000000E+00 -0.10886273993E+04  0.10886273993E+04  0.00000000000E+00 0.  1.
         25    1    1    2    0    0  0.17614274985E+03  0.25189974607E+03 -0.10465340580E+02  0.33198535171E+03  0.12500000000E+03 0.  0.
         25    1    1    2    0    0  0.12099326426E+03 -0.38804464604E+02 -0.38338704582E+03  0.42279520263E+03  0.12500000000E+03 0.  0.
         25    1    1    2    0    0 -0.29713601411E+03 -0.21309528147E+03 -0.44172623282E+03  0.58689562498E+03  0.12500000000E+03 0.  0.
</event>
<event>
 5    0  0.5561624E-005  0.3320901E+03  0.7546771E-02  0.1070216E+00
         21   -1    0    0  502  501  0.00000000000E+00  0.00000000000E+00  0.20927871959E+03  0.20927871959E+03  0.00000000000E+00 0.  1.
         21   -1    0    0  501  502 -0.00000000000E+00 -0.00000000000E+00 -0.52697101570E+03  0.52697101570E+03  0.00000000000E+00 0.  1.
         25    1    1    2    0    0  0.95360964514E+02  0.22792883435E+03 -0.10054680118E+03  0.29458432801E+03  0.12500000000E+03 0.  0.
         25    1    1    2    0    0  0.24783273779E+01 -0.55376056908E+02 -0.13783133562E+03  0.19415232902E+03  0.12500000000E+03 0.  0.
         25    1    1    2    0    0 -0.97839291892E+02 -0.17255277744E+03 -0.79314159314E+02  0.24751307826E+03  0.12500000000E+03 0.  0.
</event>
<event>
 5    0  0.5561624E-005  0.2171479E+03  0.7546771E-02  0.1136027E+00
         21   -1    0    0  502  501  0.00000000000E+00  0.00000000000E+00  0.11852941315E+03  0.11852941315E+03  0.00000000000E+00 0. -1.
         21   -1    0    0  501  502 -0.00000000000E+00 -0.00000000000E+00 -0.39781861763E+03  0.39781861763E+03  0.00000000000E+00 0. -1.
         25    1    1    2    0    0  0.26601315972E+02  0.77692600401E+02 -0.67067028098E+02  0.16391081852E+03  0.12500000000E+03 0.  0.
         25    1    1    2    0    0 -0.29400969954E+02 -0.21094616167E+02 -0.15843962372E+03  0.20503052024E+03  0.12500000000E+03 0.  0.
         25    1    1    2    0    0  0.27996539812E+01 -0.56597984234E+02 -0.53782552669E+02  0.14740669202E+03  0.12500000000E+03 0.  0.
</event>
<event>
 5    0  0.5561624E-005  0.2647833E+03  0.7546771E-02  0.1104303E+00
         21   -1    0    0  502  501  0.00000000000E+00  0.00000000000E+00  0.14941829444E+04  0.14941829444E+04  0.00000000000E+00 0.  1.
         21   -1    0    0  501  502 -0.00000000000E+00 -0.00000000000E+00 -0.46922083109E+02  0.46922083109E+02  0.00000000000E+00 0.  1.
         25    1    1    2    0    0 -0.88566263308E+02 -0.36060404382E+02  0.53773622127E+03  0.56029419007E+03  0.12500000000E+03 0.  0.
         25    1    1    2    0    0  0.14813000061E+03  0.46713622951E+02  0.71175654268E+03  0.73915291767E+03  0.12500000000E+03 0.  0.
         25    1    1    2    0    0 -0.59563737299E+02 -0.10653218569E+02  0.19776809739E+03  0.24165791982E+03  0.12500000000E+03 0.  0.
</event>
<event>
 5    0  0.5561624E-005  0.4493478E+03  0.7546771E-02  0.1027917E+00
         21   -1    0    0  502  501  0.00000000000E+00  0.00000000000E+00  0.73549767936E+03  0.73549767936E+03  0.00000000000E+00 0. -1.
         21   -1    0    0  501  502 -0.00000000000E+00 -0.00000000000E+00 -0.27452623280E+03  0.27452623280E+03  0.00000000000E+00 0. -1.
         25    1    1    2    0    0 -0.98183278347E+02  0.19178686368E+03  0.54404474264E+03  0.59835761816E+03  0.12500000000E+03 0.  0.
         25    1    1    2    0    0  0.46224952781E+02 -0.22278612027E+03 -0.23872518448E+02  0.26070155117E+03  0.12500000000E+03 0.  0.
         25    1    1    2    0    0  0.51958325566E+02  0.30999256589E+02 -0.59200777624E+02  0.15096474282E+03  0.12500000000E+03 0.  0.
</event>
<event>
 5    0  0.5561624E-005  0.2704418E+03  0.7546771E-02  0.1101027E+00
         21   -1    0    0  502  501  0.00000000000E+00  0.00000000000E+00  0.31983620522E+02  0.31983620522E+02  0.00000000000E+00 0.  1.
         21   -1    0    0  501  502 -0.00000000000E+00 -0.00000000000E+00 -0.22867569759E+04  0.22867569759E+04  0.00000000000E+00 0.  1.
         25    1    1    2    0    0 -0.18388780726E+02 -0.38772345901E+02 -0.36169211582E+03  0.38508132740E+03  0.12500000000E+03 0.  0.
         25    1    1    2    0    0 -0.12958407844E+03  0.18873948407E+02 -0.62414044005E+03  0.64986502308E+03  0.12500000000E+03 0.  0.
         25    1    1    2    0    0  0.14797285917E+03  0.19898397494E+02 -0.12689407995E+04  0.12837942460E+04  0.12500000000E+03 0.  0.
</event>
<event>
 5    0  0.5561624E-005  0.4207361E+03  0.7546771E-02  0.1036827E+00
         21   -1    0    0  502  501  0.00000000000E+00  0.00000000000E+00  0.29338295908E+03  0.29338295908E+03  0.00000000000E+00 0. -1.
         21   -1    0    0  501  502 -0.00000000000E+00 -0.00000000000E+00 -0.60337121464E+03  0.60337121464E+03  0.00000000000E+00 0. -1.
         25    1    1    2    0    0 -0.83869537061E+02  0.13094852550E+03  0.16338970124E+03  0.25788138756E+03  0.12500000000E+03 0.  0.
         25    1    1    2    0    0  0.16802138968E+03 -0.79258320594E+02 -0.41051626654E+03  0.46761273920E+03  0.12500000000E+03 0.  0.
         25    1    1    2    0    0 -0.84151852614E+02 -0.51690204905E+02 -0.62861690264E+02  0.17126004696E+03  0.12500000000E+03 0.  0.
</event>
<event>
 5    0  0.5561624E-005  0.7052697E+03  0.7546771E-02  0.9708262E-01
         21   -1    0    0  502  501  0.00000000000E+00  0.00000000000E+00  0.24555763506E+03  0.24555763506E+03  0.00000000000E+00 0. -1.
         21   -1    0    0  501  502 -0.00000000000E+00 -0.00000000000E+00 -0.20256155400E+04  0.20256155400E+04  0.00000000000E+00 0. -1.
         25    1    1    2    0    0  0.25697674075E+03  0.40680638003E+03 -0.16027424343E+04  0.16780753222E+04  0.12500000000E+03 0.  0.
         25    1    1    2    0    0 -0.10312540284E+03 -0.73884376196E+02 -0.66308762986E+02  0.19004105295E+03  0.12500000000E+03 0.  0.
         25    1    1    2    0    0 -0.15385133791E+03 -0.33292200384E+03 -0.11100670761E+03  0.40305679991E+03  0.12500000000E+03 0.  0.
</event>
<event>
 5    0  0.5561624E-005  0.3322737E+03  0.7546771E-02  0.1070135E+00
         21   -1    0    0  502  501  0.00000000000E+00  0.00000000000E+00  0.51234141944E+03  0.51234141944E+03  0.00000000000E+00 0.  1.
         21   -1    0    0  501  502 -0.00000000000E+00 -0.00000000000E+00 -0.21549270797E+03  0.21549270797E+03  0.00000000000E+00 0.  1.
         25    1    1    2    0    0 -0.12727149176E+03  0.12156237292E+03  0.32033537914E+02  0.21823517287E+03  0.12500000000E+03 0.  0.
         25    1    1    2    0    0  0.33724162743E+02  0.98204148127E+02  0.69699436340E+02  0.17681737835E+03  0.12500000000E+03 0.  0.
         25    1    1    2    0    0  0.93547329015E+02 -0.21976652105E+03  0.19511573722E+03  0.33278157619E+03  0.12500000000E+03 0.  0.
</event>
<event>
 5    0  0.5561624E-005  0.4125597E+03  0.7546771E-02  0.1039515E+00
         21   -1    0    0  502  501  0.00000000000E+00  0.00000000000E+00  0.14723601509E+04  0.14723601509E+04  0.00000000000E+00 0. -1.
         21   -1    0    0  501  502 -0.00000000000E+00 -0.00000000000E+00 -0.11560047260E+03  0.11560047260E+03  0.00000000000E+00 0. -1.
         25    1    1    2    0    0  0.21374820210E+03  0.19868381320E+03  0.68858080468E+03  0.75824275539E+03  0.12500000000E+03 0.  0.
         25    1    1    2    0    0 -0.14911538416E+03 -0.14038836187E+03  0.13521020113E+03  0.27541076310E+03  0.12500000000E+03 0.  0.
         25    1    1    2    0    0 -0.64632817947E+02 -0.58295451329E+02  0.53296867244E+03  0.55430710496E+03  0.12500000000E+03 0.  0.
</event>
<event>
 5    0  0.5561624E-005  0.4760031E+03  0.7546771E-02  0.1020239E+00
         21   -1    0    0  502  501  0.00000000000E+00  0.00000000000E+00  0.34606449437E+03  0.34606449437E+03  0.00000000000E+00 0. -1.
         21   -1    0    0  501  502 -0.00000000000E+00 -0.00000000000E+00 -0.65473034323E+03  0.65473034323E+03  0.00000000000E+00 0. -1.
         25    1    1    2    0    0  0.16529916346E+03  0.15337814630E+03 -0.36211425509E+03  0.44452266865E+03  0.12500000000E+03 0.  0.
         25    1    1    2    0    0  0.45819641579E+02 -0.40660303143E+01  0.19494116907E+03  0.23609962210E+03  0.12500000000E+03 0.  0.
         25    1    1    2    0    0 -0.21111880504E+03 -0.14931211598E+03 -0.14149276285E+03  0.32017254685E+03  0.12500000000E+03 0.  0.
</event>
<event>
 5    0  0.5561624E-005  0.2234510E+03  0.7546771E-02  0.1131336E+00
         21   -1    0    0  502  501  0.00000000000E+00  0.00000000000E+00  0.32908775690E+03  0.32908775690E+03  0.00000000000E+00 0.  1.
         21   -1    0    0  501  502 -0.00000000000E+00 -0.00000000000E+00 -0.15172345354E+03  0.15172345354E+03  0.00000000000E+00 0.  1.
         25    1    1    2    0    0 -0.26077167522E+02 -0.58367382956E+02  0.16970087384E+02  0.14142048623E+03  0.12500000000E+03 0.  0.
         25    1    1    2    0    0 -0.12741257628E+02  0.58410027487E+02  0.15568791354E+03  0.20841736343E+03  0.12500000000E+03 0.  0.
         25    1    1    2    0    0  0.38818425150E+02 -0.42644531098E-01  0.47063024311E+01  0.13097336077E+03  0.12500000000E+03 0.  0.
</event>
<event>
 5    0  0.5561624E-005  0.2470214E+03  0.7546771E-02  0.1115202E+00
         21   -1    0    0  502  501  0.00000000000E+00  0.00000000000E+00  0.17374853872E+03  0.17374853872E+03  0.00000000000E+00 0.  1.
         21   -1    0    0  501  502 -0.00000000000E+00 -0.00000000000E+00 -0.35119483097E+03  0.35119483097E+03  0.00000000000E+00 0.  1.
         25    1    1    2    0    0  0.75617413356E+02  0.29463412728E+02  0.19941358101E+02  0.15036204194E+03  0.12500000000E+03 0.  0.
         25    1    1    2    0    0 -0.20910396824E+02 -0.25421249797E+02  0.62624264360E+01  0.12941291520E+03  0.12500000000E+03 0.  0.
         25    1    1    2    0    0 -0.54707016531E+02 -0.40421629313E+01 -0.20365007679E+03  0.24516841256E+03  0.12500000000E+03 0.  0.
</event>
<event>
 5    0  0.5561624E-005  0.4188550E+03  0.7546771E-02  0.1037440E+00
         21   -1    0    0  502  501  0.00000000000E+00  0.00000000000E+00  0.10843681977E+03  0.10843681977E+03  0.00000000000E+00 0. -1.
         21   -1    0    0  501  502 -0.00000000000E+00 -0.00000000000E+00 -0.16178959470E+04  0.16178959470E+04  0.00000000000E+00 0. -1.
         25    1    1    2    0    0  0.14598685645E+03 -0.10660046618E+03 -0.11240442734E+03  0.24685132556E+03  0.12500000000E+03 0.  0.
         25    1    1    2    0    0 -0.26106648249E+03  0.65479629000E+02 -0.10463993308E+04  0.10876671593E+04  0.12500000000E+03 0.  0.
         25    1    1    2    0    0  0.11507962604E+03  0.41120837180E+02 -0.35065536908E+03  0.39181428183E+03  0.12500000000E+03 0.  0.
</event>
<event>
 5    0  0.5561624E-005  0.1000412E+04  0.7546771E-02  0.9308093E-01
         21   -1    0    0  502  501  0.00000000000E+00  0.00000000000E+00  0.11915324481E+04  0.11915324481E+04  0.00000000000E+00 0.  1.
         21   -1    0    0  501  502 -0.00000000000E+00 -0.00000000000E+00 -0.83994661326E+03  0.83994661326E+03  0.00000000000E+00 0.  1.
         25    1    1    2    0    0  0.13362144958E+03 -0.74855480808E+02 -0.13875724746E+03  0.24152972595E+03  0.12500000000E+03 0.  0.
         25    1    1    2    0    0 -0.91382669321E+03  0.35595059525E+02  0.18165017089E+03  0.94072738775E+03  0.12500000000E+03 0.  0.
         25    1    1    2    0    0  0.78020524363E+03  0.39260421283E+02  0.30869291146E+03  0.84922194770E+03  0.12500000000E+03 0.  0.
</event>
<event>
 5    0  0.5743868E-005  0.2905886E+03  0.7546771E-02  0.1090042E+00
         21   -1    0    0  502  501  0.00000000000E+00  0.00000000000E+00  0.73079636435E+03  0.73079636435E+03  0.00000000000E+00 0.  1.
         21   -1    0    0  501  502 -0.00000000000E+00 -0.00000000000E+00 -0.11554753062E+03  0.11554753062E+03  0.00000000000E+00 0.  1.
         25    1    1    2    0    0 -0.13429944312E+03 -0.24268760357E+02  0.17370307955E+03  0.25381700691E+03  0.12500000000E+03 0.  0.
         25    1    1    2    0    0  0.33222877619E+02 -0.11245084841E+03  0.12517790142E+03  0.21223444562E+03  0.12500000000E+03 0.  0.
         25    1    1    2    0    0  0.10107656550E+03  0.13671960876E+03  0.31636785277E+03  0.38029244244E+03  0.12500000000E+03 0.  0.
</event>
<event>
 5    0  0.5561624E-005  0.2221912E+03  0.7546771E-02  0.1132260E+00
         21   -1    0    0  502  501  0.00000000000E+00  0.00000000000E+00  0.82762887020E+02  0.82762887020E+02  0.00000000000E+00 0.  1.
         21   -1    0    0  501  502 -0.00000000000E+00 -0.00000000000E+00 -0.59651023403E+03  0.59651023403E+03  0.00000000000E+00 0.  1.
         25    1    1    2    0    0  0.31860476936E+01  0.20326481022E+02 -0.10913137822E+03  0.16720638278E+03  0.12500000000E+03 0.  0.
         25    1    1    2    0    0 -0.13666510331E+02 -0.39877172277E+02 -0.60210354414E+02  0.14500775549E+03  0.12500000000E+03 0.  0.
         25    1    1    2    0    0  0.10480462637E+02  0.19550691255E+02 -0.34440561438E+03  0.36705898278E+03  0.12500000000E+03 0.  0.
</event>
<event>
 5    0  0.5561624E-005  0.2233197E+03  0.7546771E-02  0.1131432E+00
         21   -1    0    0  502  501  0.00000000000E+00  0.00000000000E+00  0.24505573469E+03  0.24505573469E+03  0.00000000000E+00 0.  1.
         21   -1    0    0  501  502 -0.00000000000E+00 -0.00000000000E+00 -0.20351160571E+03  0.20351160571E+03  0.00000000000E+00 0.  1.
         25    1    1    2    0    0  0.88048025241E+01  0.30268484474E+02 -0.14464814857E+02  0.12972253686E+03  0.12500000000E+03 0.  0.
         25    1    1    2    0    0  0.17838675277E+02 -0.10183985112E+03  0.56150932497E+00  0.16221864537E+03  0.12500000000E+03 0.  0.
         25    1    1    2    0    0 -0.26643477801E+02  0.71571366644E+02  0.55447434516E+02  0.15662615818E+03  0.12500000000E+03 0.  0.
</event>
<event>
 5    0  0.5561624E-005  0.2366402E+03  0.7546771E-02  0.1122051E+00
         21   -1    0    0  502  501  0.00000000000E+00  0.00000000000E+00  0.11277181557E+03  0.11277181557E+03  0.00000000000E+00 0. -1.
         21   -1    0    0  501  502 -0.00000000000E+00 -0.00000000000E+00 -0.49656561492E+03  0.49656561492E+03  0.00000000000E+00 0.  1.
         25    1    1    2    0    0  0.88221635438E+02  0.57264328077E+02 -0.15904723195E+03  0.22799842592E+03  0.12500000000E+03 0.  0.
         25    1    1    2    0    0 -0.50526156969E+02 -0.47945610587E+02 -0.20343720679E+03  0.24872348345E+03  0.12500000000E+03 0.  0.
         25    1    1    2    0    0 -0.37695478468E+02 -0.93187174903E+01 -0.21309360611E+02  0.13261552112E+03  0.12500000000E+03 0.  0.
</event>
<event>
 5    0  0.5561624E-005  0.2526247E+03  0.7546771E-02  0.1111657E+00
         21   -1    0    0  502  501  0.00000000000E+00  0.00000000000E+00  0.28516852467E+03  0.28516852467E+03  0.00000000000E+00 0. -1.
         21   -1    0    0  501  502 -0.00000000000E+00 -0.00000000000E+00 -0.22379476170E+03  0.22379476170E+03  0.00000000000E+00 0. -1.
         25    1    1    2    0    0  0.96601526405E+02  0.58627842197E+02  0.54754436971E+02  0.17717823555E+03  0.12500000000E+03 0.  0.
         25    1    1    2    0    0 -0.14307654594E+03 -0.48114394400E+02 -0.13752373147E+02  0.19646887976E+03  0.12500000000E+03 0.  0.
         25    1    1    2    0    0  0.46475019532E+02 -0.10513447797E+02  0.20371699138E+02  0.13531617106E+03  0.12500000000E+03 0.  0.
</event>
<event>
 5    0  0.5561624E-005  0.2737859E+03  0.7546771E-02  0.1099132E+00
         21   -1    0    0  502  501  0.00000000000E+00  0.00000000000E+00  0.49542221919E+03  0.49542221919E+03  0.00000000000E+00 0. -1.
         21   -1    0    0  501  502 -0.00000000000E+00 -0.00000000000E+00 -0.15130271129E+03  0.15130271129E+03  0.00000000000E+00 0. -1.
         25    1    1    2    0    0  0.95106610035E+02  0.12876130790E+03  0.18991877943E+03  0.27806273477E+03  0.12500000000E+03 0.  0.
         25    1    1    2    0    0 -0.80665762790E+02 -0.13829985711E+03  0.61995380944E+02  0.21237288674E+03  0.12500000000E+03 0.  0.
         25    1    1    2    0    0 -0.14440847245E+02  0.95385492061E+01  0.92205347516E+02  0.15628930898E+03  0.12500000000E+03 0.  0.
</event>
<event>
 5    0  0.5561624E-005  0.2835653E+03  0.7546771E-02  0.1093757E+00
         21   -1    0    0  502  501  0.00000000000E+00  0.00000000000E+00  0.12501028404E+03  0.12501028404E+03  0.00000000000E+00 0.  1.
         21   -1    0    0  501  502 -0.00000000000E+00 -0.00000000000E+00 -0.64322130087E+03  0.64322130087E+03  0.00000000000E+00 0.  1.
         25    1    1    2    0    0 -0.17865329200E+02 -0.24607760525E+02 -0.33326716691E+03  0.35723481970E+03  0.12500000000E+03 0.  0.
         25    1    1    2    0    0 -0.10913445944E+03  0.74569127007E+02 -0.88509295006E+02  0.20231109767E+03  0.12500000000E+03 0.  0.
         25    1    1    2    0    0  0.12699978864E+03 -0.49961366482E+02 -0.96434554909E+02  0.20868566754E+03  0.12500000000E+03 0.  0.
</event>
<event>
 5    0  0.5561624E-005  0.4004863E+03  0.7546771E-02  0.1043611E+00
         21   -1    0    0  502  501  0.00000000000E+00  0.00000000000E+00  0.24299391273E+03  0.24299391273E+03  0.00000000000E+00 0. -1.
         21   -1    0    0  501  502 -0.00000000000E+00 -0.00000000000E+00 -0.66005467992E+03  0.66005467992E+03  0.00000000000E+00 0. -1.
         25    1    1    2    0    0  0.19455548130E+03 -0.31650439078E+02 -0.58202757926E+02  0.24055383312E+03  0.12500000000E+03 0.  0.
         25    1    1    2    0    0 -0.17877520506E+03  0.23299348050E+03 -0.21444307036E+03  0.38452225725E+03  0.12500000000E+03 0.  0.
         25    1    1    2    0    0 -0.15780276240E+02 -0.20134304142E+03 -0.14441493891E+03  0.27797250228E+03  0.12500000000E+03 0.  0.
</event>
<event>
 5    0  0.5561624E-005  0.5420170E+03  0.7546771E-02  0.1003359E+00
         21   -1    0    0  502  501  0.00000000000E+00  0.00000000000E+00  0.37392279050E+03  0.37392279050E+03  0.00000000000E+00 0.  1.
         21   -1    0    0  501  502 -0.00000000000E+00 -0.00000000000E+00 -0.78567665773E+03  0.78567665773E+03  0.00000000000E+00 0.  1.
         25    1    1    2    0    0 -0.11335877822E+03 -0.44116757349E+02 -0.29280538750E+02  0.17685827894E+03  0.12500000000E+03 0.  0.
         25    1    1    2    0    0 -0.27972334670E+03  0.29027939436E+03 -0.14005741386E+03  0.44468905615E+03  0.12500000000E+03 0.  0.
         25    1    1    2    0    0  0.39308212493E+03 -0.24616263701E+03 -0.24241591462E+03  0.53805211314E+03  0.12500000000E+03 0.  0.
</event>
<event>
 5    0  0.5561624E-005  0.3809422E+03  0.7546771E-02  0.1050586E+00
         21   -1    0    0  502  501  0.00000000000E+00  0.00000000000E+00  0.15344748041E+03  0.15344748041E+03  0.00000000000E+00 0. -1.
         21   -1    0    0  501  502 -0.00000000000E+00 -0.00000000000E+00 -0.94571071620E+03  0.94571071620E+03  0.00000000000E+00 0. -1.
         25    1    1    2    0    0  0.53391633957E+02  0.68157950305E+02 -0.24022301633E+03  0.28430313108E+03  0.12500000000E+03 0.  0.
         25    1    1    2    0    0  0.71878953395E+02 -0.17038520358E+02 -0.60580791084E+03  0.62296478227E+03  0.12500000000E+03 0.  0.
         25    1    1    2    0    0 -0.12527058735E+03 -0.51119429947E+02  0.53767691377E+02  0.19189028326E+03  0.12500000000E+03 0.  0.
</event>
<event>
 5    0  0.5561624E-005  0.3262378E+03  0.7546771E-02  0.1072814E+00
         21   -1    0    0  502  501  0.00000000000E+00  0.00000000000E+00  0.84686823659E+03  0.84686823659E+03  0.00000000000E+00 0. -1.
         21   -1    0    0  501  502 -0.00000000000E+00 -0.00000000000E+00 -0.12567610626E+03  0.12567610626E+03  0.00000000000E+00 0. -1.
         25    1    1    2    0    0 -0.58175278852E+02 -0.98902082877E+02  0.54968559899E+03  0.57527840461E+03  0.12500000000E+03 0.  0.
         25    1    1    2    0    0  0.81524500807E+02  0.76798124769E+02 -0.17120295884E+02  0.16870773761E+03  0.12500000000E+03 0.  0.
         25    1    1    2    0    0 -0.23349221956E+02  0.22103958107E+02  0.18862682722E+03  0.22855820064E+03  0.12500000000E+03 0.  0.
</event>
<event>
 5    0  0.5561624E-005  0.7731486E+03  0.7546771E-02  0.9599718E-01
         21   -1    0    0  502  501  0.00000000000E+00  0.00000000000E+00  0.42682607325E+03  0.42682607325E+03  0.00000000000E+00 0. -1.
         21   -1    0    0  501  502 -0.00000000000E+00 -0.00000000000E+00 -0.14004738462E+04  0.14004738462E+04  0.00000000000E+00 0. -1.
         25    1    1    2    0    0  0.42360625636E+03  0.50543304723E+03 -0.16556675418E+03  0.69133362117E+03  0.12500000000E+03 0.  0.
         25    1    1    2    0    0  0.33547520298E+02 -0.92095280021E+02 -0.24422734231E+03  0.29133995856E+03  0.12500000000E+03 0.  0.
         25    1    1    2    0    0 -0.45715377666E+03 -0.41333776721E+03 -0.56385367651E+03  0.84462633977E+03  0.12500000000E+03 0.  0.
</event>
<event>
 5    0  0.5561624E-005  0.2162171E+03  0.7546771E-02  0.1136735E+00
         21   -1    0    0  502  501  0.00000000000E+00  0.00000000000E+00  0.11347869659E+04  0.11347869659E+04  0.00000000000E+00 0.  1.
         21   -1    0    0  501  502 -0.00000000000E+00 -0.00000000000E+00 -0.41197030810E+02  0.41197030810E+02  0.00000000000E+00 0.  1.
         25    1    1    2    0    0 -0.50210481650E+02  0.37345056262E+02  0.26817195003E+03  0.30241848567E+03  0.12500000000E+03 0.  0.
         25    1    1    2    0    0 -0.34025628654E+01 -0.60865690403E+02  0.52231658770E+03  0.54051441007E+03  0.12500000000E+03 0.  0.
         25    1    1    2    0    0  0.53613044516E+02  0.23520634141E+02  0.30310139731E+03  0.33305110092E+03  0.12500000000E+03 0.  0.
</event>
<event>
 5    0  0.5631128E-005  0.2395426E+03  0.7546771E-02  0.1120098E+00
         21   -1    0    0  502  501  0.00000000000E+00  0.00000000000E+00  0.48124806449E+03  0.48124806449E+03  0.00000000000E+00 0.  1.
         21   -1    0    0  501  502 -0.00000000000E+00 -0.00000000000E+00 -0.11923299785E+03  0.11923299785E+03  0.00000000000E+00 0.  1.
         25    1    1    2    0    0 -0.87451093763E+02 -0.51564265619E+02  0.24940947392E+03  0.29687817867E+03  0.12500000000E+03 0.  0.
         25    1    1    2    0    0  0.21500073811E+02  0.47321945966E+01  0.83413045055E+02  0.15187950133E+03  0.12500000000E+03 0.  0.
         25    1    1    2    0    0  0.65951019952E+02  0.46832071023E+02  0.29192547659E+02  0.15172338234E+03  0.12500000000E+03 0.  0.
</event>
<event>
 5    0  0.5561624E-005  0.2356135E+03  0.7546771E-02  0.1122750E+00
         21   -1    0    0  502  501  0.00000000000E+00  0.00000000000E+00  0.20008767111E+03  0.20008767111E+03  0.00000000000E+00 0. -1.
         21   -1    0    0  501  502 -0.00000000000E+00 -0.00000000000E+00 -0.27744691022E+03  0.27744691022E+03  0.00000000000E+00 0. -1.
         25    1    1    2    0    0  0.49665771740E+01 -0.54926281443E+02 -0.29616780862E+02  0.13979884474E+03  0.12500000000E+03 0.  0.
         25    1    1    2    0    0 -0.10020652557E+03  0.69004298990E+02 -0.60439146468E+01  0.17454074009E+03  0.12500000000E+03 0.  0.
         25    1    1    2    0    0  0.95239948393E+02 -0.14078017547E+02 -0.41698543601E+02  0.16319499651E+03  0.12500000000E+03 0.  0.
</event>
<event>
 5    0  0.5561624E-005  0.3395130E+03  0.7546771E-02  0.1067004E+00
         21   -1    0    0  502  501  0.00000000000E+00  0.00000000000E+00  0.29474361782E+03  0.29474361782E+03  0.00000000000E+00 0.  1.
         21   -1    0    0  501  502 -0.00000000000E+00 -0.00000000000E+00 -0.39108261883E+03  0.39108261883E+03  0.00000000000E+00 0.  1.
         25    1    1    2    0    0  0.56364394545E+02  0.14825427144E+02 -0.30376981167E+02  0.14122499512E+03  0.12500000000E+03 0.  0.
         25    1    1    2    0    0 -0.15778938142E+03 -0.15980586605E+03  0.95735311827E+02  0.27427295463E+03  0.12500000000E+03 0.  0.
         25    1    1    2    0    0  0.10142498688E+03  0.14498043890E+03 -0.16169733167E+03  0.27032828690E+03  0.12500000000E+03 0.  0.
</event>
<event>
 5    0  0.5561624E-005  0.5609987E+03  0.7546771E-02  0.9989797E-01
         21   -1    0    0  502  501  0.00000000000E+00  0.00000000000E+00  0.16602251504E+04  0.16602251504E+04  0.00000000000E+00 0. -1.
         21   -1    0    0  501  502 -0.00000000000E+00 -0.00000000000E+00 -0.18956437827E+03  0.18956437827E+03  0.00000000000E+00 0. -1.
         25    1    1    2    0    0 -0.89174347276E+02  0.25846901599E+03  0.12238114211E+04  0.12601974809E+04  0.12500000000E+03 0.  0.
         25    1    1    2    0    0 -0.13060065576E+03 -0.19887553585E+03  0.78294865510E+02  0.27993409226E+03  0.12500000000E+03 0.  0.
         25    1    1    2    0    0  0.21977500304E+03 -0.59593480135E+02  0.16855448553E+03  0.30965795554E+03  0.12500000000E+03 0.  0.
</event>
<event>
 5    0  0.5561624E-005  0.2773184E+03  0.7546771E-02  0.1097163E+00
         21   -1    0    0  502  501  0.00000000000E+00  0.00000000000E+00  0.13932803667E+04  0.13932803667E+04  0.00000000000E+00 0.  1.
         21   -1    0    0  501  502 -0.00000000000E+00 -0.00000000000E+00 -0.55197430537E+02  0.55197430537E+02  0.00000000000E+00 0.  1.
         25    1    1    2    0    0 -0.51978316670E+02  0.15464264840E+03  0.74432342931E+03  0.77217773960E+03  0.12500000000E+03 0.  0.
         25    1    1    2    0    0  0.54775852242E+02 -0.46558404801E+02  0.17921473499E+03  0.23002391242E+03  0.12500000000E+03 0.  0.
         25    1    1    2    0    0 -0.27975355718E+01 -0.10808424360E+03  0.41454477190E+03  0.44627614526E+03  0.12500000000E+03 0.  0.
</event>
<event>
 5    0  0.5813010E-005  0.5398087E+03  0.7546771E-02  0.1003881E+00
         21   -1    0    0  502  501  0.00000000000E+00  0.00000000000E+00  0.59170011047E+03  0.59170011047E+03  0.00000000000E+00 0.  1.
         21   -1    0    0  501  502 -0.00000000000E+00 -0.00000000000E+00 -0.49246817000E+03  0.49246817000E+03  0.00000000000E+00 0.  1.
         25    1    1    2    0    0  0.36888631902E+03 -0.97971194853E+01 -0.31359964165E+02  0.39087280190E+03  0.12500000000E+03 0.  0.
         25    1    1    2    0    0 -0.18713270740E+03  0.21658222167E+03 -0.82919002119E+02  0.32315177523E+03  0.12500000000E+03 0.  0.
         25    1    1    2    0    0 -0.18175361162E+03 -0.20678510218E+03  0.21351090675E+03  0.37014370334E+03  0.12500000000E+03 0.  0.
</event>
<event>
 5    0  0.5561624E-005  0.2377090E+03  0.7546771E-02  0.1121329E+00
         21   -1    0    0  502  501  0.00000000000E+00  0.00000000000E+00  0.28480448184E+02  0.28480448184E+02  0.00000000000E+00 0.  1.
         21   -1    0    0  501  502 -0.00000000000E+00 -0.00000000000E+00 -0.19840121649E+04  0.19840121649E+04  0.00000000000E+00 0.  1.
         25    1    1    2    0    0 -0.10728897917E+03  0.31124223769E+02 -0.88751223076E+03  0.90320684347E+03  0.12500000000E+03 0.  0.
         25    1    1    2    0    0  0.78159929507E+02 -0.67426686927E+02 -0.49179844583E+03  0.51782819932E+03  0.12500000000E+03 0.  0.
         25    1    1    2    0    0  0.29129049662E+02  0.36302463158E+02 -0.57622104013E+03  0.59145757029E+03  0.12500000000E+03 0.  0.
</event>
<event>
 5    0  0.6217963E-005  0.4822482E+03  0.7546771E-02  0.1018519E+00
         21   -1    0    0  502  501  0.00000000000E+00  0.00000000000E+00  0.32028344094E+03  0.32028344094E+03  0.00000000000E+00 0. -1.
         21   -1    0    0  501  502 -0.00000000000E+00 -0.00000000000E+00 -0.72611729518E+03  0.72611729518E+03  0.00000000000E+00 0. -1.
         25    1    1    2    0    0  0.22211048353E+02 -0.28795360851E+03 -0.24703980563E+03  0.40008033804E+03  0.12500000000E+03 0.  0.
         25    1    1    2    0    0 -0.13758906390E+03  0.21433514960E+03 -0.30029618659E+03  0.41312601775E+03  0.12500000000E+03 0.  0.
         25    1    1    2    0    0  0.11537801554E+03  0.73618458912E+02  0.14150213798E+03  0.23319438033E+03  0.12500000000E+03 0.  0.
</event>
<event>
 5    0  0.5561624E-005  0.3123143E+03  0.7546771E-02  0.1079242E+00
         21   -1    0    0  502  501  0.00000000000E+00  0.00000000000E+00  0.50203278660E+03  0.50203278660E+03  0.00000000000E+00 0.  1.
         21   -1    0    0  501  502 -0.00000000000E+00 -0.00000000000E+00 -0.19429059643E+03  0.19429059643E+03  0.00000000000E+00 0.  1.
         25    1    1    2    0    0  0.16325941257E+03  0.94505443849E+02  0.23221566926E+03  0.32424378446E+03  0.12500000000E+03 0.  0.
         25    1    1    2    0    0 -0.14193740533E+03 -0.22433846366E+02 -0.28976670968E+02  0.19265033599E+03  0.12500000000E+03 0.  0.
         25    1    1    2    0    0 -0.21322007240E+02 -0.72071597483E+02  0.10450319188E+03  0.17942926258E+03  0.12500000000E+03 0.  0.
</event>
<event>
 5    0  0.5561624E-005  0.4649083E+03  0.7546771E-02  0.1023367E+00
         21   -1    0    0  502  501  0.00000000000E+00  0.00000000000E+00  0.59589690682E+03  0.59589690682E+03  0.00000000000E+00 0. -1.
         21   -1    0    0  501  502 -0.00000000000E+00 -0.00000000000E+00 -0.36271327781E+03  0.36271327781E+03  0.00000000000E+00 0. -1.
         25    1    1    2    0    0 -0.47088768543E+02 -0.82587816100E+02  0.29957550837E+02  0.15987668480E+03  0.12500000000E+03 0.  0.
         25    1    1    2    0    0 -0.27476815281E+03 -0.15239870394E+03  0.17338625616E+03  0.38001407419E+03  0.12500000000E+03 0.  0.
         25    1    1    2    0    0  0.32185692135E+03  0.23498652004E+03  0.29839822016E+02  0.41871942563E+03  0.12500000000E+03 0.  0.
</event>
<event>
 5    0  0.5561624E-005  0.4415902E+03  0.7546771E-02  0.1030260E+00
         21   -1    0    0  502  501  0.00000000000E+00  0.00000000000E+00  0.12340856872E+04  0.12340856872E+04  0.00000000000E+00 0. -1.
         21   -1    0    0  501  502 -0.00000000000E+00 -0.00000000000E+00 -0.15801326189E+03  0.15801326189E+03  0.00000000000E+00 0. -1.
         25    1    1    2    0    0  0.56584787198E+02 -0.27551083194E+03  0.53326472865E+03  0.61571448536E+03  0.12500000000E+03 0.  0.
         25    1    1    2    0    0 -0.17517033807E+03 -0.15980080696E+02  0.19241082395E+03  0.28911405274E+03  0.12500000000E+03 0.  0.
         25    1    1    2    0    0  0.11858555087E+03  0.29149091264E+03  0.35039687271E+03  0.48727041099E+03  0.12500000000E+03 0.  0.
</event>
<event>
 5    0  0.5561624E-005  0.3551038E+03  0.7546771E-02  0.1060540E+00
         21   -1    0    0  502  501  0.00000000000E+00  0.00000000000E+00  0.12490940856E+04  0.12490940856E+04  0.00000000000E+00 0.  1.
         21   -1    0    0  501  502 -0.00000000000E+00 -0.00000000000E+00 -0.10095211520E+03  0.10095211520E+03  0.00000000000E+00 0.  1.
         25    1    1    2    0    0 -0.65903331111E+02  0.39112535012E+02  0.86577234615E+02  0.17027523895E+03  0.12500000000E+03 0.  0.
         25    1    1    2    0    0  0.19529927327E+03  0.27455099501E+02  0.89741432141E+03  0.92729340174E+03  0.12500000000E+03 0.  0.
         25    1    1    2    0    0 -0.12939594215E+03 -0.66567634513E+02  0.16415041434E+03  0.25247756007E+03  0.12500000000E+03 0.  0.
</event>
<event>
 5    0  0.5985309E-005  0.3338082E+03  0.7546771E-02  0.1069464E+00
         21   -1    0    0  502  501  0.00000000000E+00  0.00000000000E+00  0.13663038526E+03  0.13663038526E+03  0.00000000000E+00 0.  1.
         21   -1    0    0  501  502 -0.00000000000E+00 -0.00000000000E+00 -0.81554279846E+03  0.81554279846E+03  0.00000000000E+00 0.  1.
         25    1    1    2    0    0 -0.90343677407E+02 -0.40448343313E+02 -0.27450247795E+03  0.31745024638E+03  0.12500000000E+03 0.  0.
         25    1    1    2    0    0  0.92445656155E+02 -0.32732316499E+02  0.42876794131E+02  0.16456312880E+03  0.12500000000E+03 0.  0.
         25    1    1    2    0    0 -0.21019787476E+01  0.73180659812E+02 -0.44728672938E+03  0.47015980854E+03  0.12500000000E+03 0.  0.
</event>
<event>
 5    0  0.5561624E-005  0.4252469E+03  0.7546771E-02  0.1035372E+00
         21   -1    0    0  502  501  0.00000000000E+00  0.00000000000E+00  0.30851609887E+03  0.30851609887E+03  0.00000000000E+00 0.  1.
         21   -1    0    0  501  502 -0.00000000000E+00 -0.00000000000E+00 -0.58614429029E+03  0.58614429029E+03  0.00000000000E+00 0.  1.
         25    1    1    2    0    0  0.25334420969E+03 -0.26101227933E+02 -0.10011411039E+03  0.30085278423E+03  0.12500000000E+03 0.  0.
         25    1    1    2    0    0 -0.27590997885E+03  0.19055707537E+03 -0.12919099097E+03  0.38046501489E+03  0.12500000000E+03 0.  0.
         25    1    1    2    0    0  0.22565769161E+02 -0.16445584744E+03 -0.48323090052E+02  0.21334259005E+03  0.12500000000E+03 0.  0.
</event>
<event>
 5    0  0.5561624E-005  0.3129235E+03  0.7546771E-02  0.1078953E+00
         21   -1    0    0  502  501  0.00000000000E+00  0.00000000000E+00  0.95677691702E+03  0.95677691702E+03  0.00000000000E+00 0.  1.
         21   -1    0    0  501  502 -0.00000000000E+00 -0.00000000000E+00 -0.10234474081E+03  0.10234474081E+03  0.00000000000E+00 0.  1.
         25    1    1    2    0    0 -0.12717336587E+03 -0.52380173526E+02  0.12757743425E+03  0.22542792483E+03  0.12500000000E+03 0.  0.
         25    1    1    2    0    0  0.62185536360E+01  0.69576283344E+02  0.80811117658E+02  0.16442313204E+03  0.12500000000E+03 0.  0.
         25    1    1    2    0    0  0.12095481223E+03 -0.17196109818E+02  0.64604362431E+03  0.66927060096E+03  0.12500000000E+03 0.  0.
</event>
<event>
 5    0  0.6167775E-005  0.2673309E+03  0.7546771E-02  0.1102817E+00
         21   -1    0    0  502  501  0.00000000000E+00  0.00000000000E+00  0.46014495946E+03  0.46014495946E+03  0.00000000000E+00 0.  1.
         21   -1    0    0  501  502 -0.00000000000E+00 -0.00000000000E+00 -0.15531146519E+03  0.15531146519E+03  0.00000000000E+00 0.  1.
         25    1    1    2    0    0 -0.10923752986E-01  0.16528698558E+03  0.75709560141E+02  0.22062802456E+03  0.12500000000E+03 0.  0.
         25    1    1    2    0    0 -0.12410744516E+02 -0.11392351729E+03  0.64392204362E+02  0.18139446065E+03  0.12500000000E+03 0.  0.
         25    1    1    2    0    0  0.12421668269E+02 -0.51363468291E+02  0.16473172976E+03  0.21343393944E+03  0.12500000000E+03 0.  0.
</event>
<event>
 5    0  0.5561624E-005  0.2640678E+03  0.7546771E-02  0.1104724E+00
         21   -1    0    0  502  501  0.00000000000E+00  0.00000000000E+00  0.60137610457E+02  0.60137610457E+02  0.00000000000E+00 0. -1.
         21   -1    0    0  501  502 -0.00000000000E+00 -0.00000000000E+00 -0.11595373292E+04  0.11595373292E+04  0.00000000000E+00 0. -1.
         25    1    1    2    0    0  0.29654257753E+02  0.93775548487E+02 -0.67756956087E+03  0.69598759926E+03  0.12500000000E+03 0.  0.
         25    1    1    2    0    0 -0.55681859323E+02  0.17646351399E+01 -0.11864923258E+03  0.18112488451E+03  0.12500000000E+03 0.  0.
         25    1    1    2    0    0  0.26027601570E+02 -0.95540183627E+02 -0.30318092530E+03  0.34256245591E+03  0.12500000000E+03 0.  0.
</event>
<event>
 5    0  0.5561624E-005  0.2209357E+03  0.7546771E-02  0.1133187E+00
         21   -1    0    0  502  501  0.00000000000E+00  0.00000000000E+00  0.74731713536E+02  0.74731713536E+02  0.00000000000E+00 0. -1.
         21   -1    0    0  501  502 -0.00000000000E+00 -0.00000000000E+00 -0.65317123371E+03  0.65317123371E+03  0.00000000000E+00 0. -1.
         25    1    1    2    0    0  0.52542338596E+01 -0.44233672811E+02 -0.17568861151E+03  0.22017200775E+03  0.12500000000E+03 0.  0.
         25    1    1    2    0    0 -0.20736492826E+02  0.65348492603E+02 -0.86720998727E+02  0.16687108569E+03  0.12500000000E+03 0.  0.
         25    1    1    2    0    0  0.15482258967E+02 -0.21114819792E+02 -0.31602990994E+03  0.34085985380E+03  0.12500000000E+03 0.  0.
</event>
<event>
 5    0  0.5561624E-005  0.3736924E+03  0.7546771E-02  0.1053290E+00
         21   -1    0    0  502  501  0.00000000000E+00  0.00000000000E+00  0.13505627372E+03  0.13505627372E+03  0.00000000000E+00 0. -1.
         21   -1    0    0  501  502 -0.00000000000E+00 -0.00000000000E+00 -0.10339839095E+04  0.10339839095E+04  0.00000000000E+00 0.  1.
         25    1    1    2    0    0  0.14222631038E+03  0.15739927548E+03 -0.59022794249E+03  0.63952863844E+03  0.12500000000E+03 0.  0.
         25    1    1    2    0    0 -0.14879462957E+03 -0.17646884329E+03 -0.30559361997E+03  0.40285674253E+03  0.12500000000E+03 0.  0.
         25    1    1    2    0    0  0.65683191867E+01  0.19069567806E+02 -0.31060732944E+01  0.12665480222E+03  0.12500000000E+03 0.  0.
</event>
<event>
 5    0  0.5759657E-005  0.5749234E+03  0.7546771E-02  0.9958843E-01
         21   -1    0    0  502  501  0.00000000000E+00  0.00000000000E+00  0.22780074049E+03  0.22780074049E+03  0.00000000000E+00 0.  1.
         21   -1    0    0  501  502 -0.00000000000E+00 -0.00000000000E+00 -0.14509913103E+04  0.14509913103E+04  0.00000000000E+00 0.  1.
         25    1    1    2    0    0  0.33699321609E+02 -0.19628230906E+03  0.71924141045E+02  0.24588711066E+03  0.12500000000E+03 0.  0.
         25    1    1    2    0    0 -0.23505175798E+03  0.24079523454E+03 -0.62537511120E+03  0.72107607339E+03  0.12500000000E+03 0.  0.
         25    1    1    2    0    0  0.20135243637E+03 -0.44512925477E+02 -0.66973959964E+03  0.71182886672E+03  0.12500000000E+03 0.  0.
</event>
<event>
 5    0  0.5561624E-005  0.3173626E+03  0.7546771E-02  0.1076870E+00
         21   -1    0    0  502  501  0.00000000000E+00  0.00000000000E+00  0.16929227961E+04  0.16929227961E+04  0.00000000000E+00 0. -1.
         21   -1    0    0  501  502 -0.00000000000E+00 -0.00000000000E+00 -0.59494145484E+02  0.59494145484E+02  0.00000000000E+00 0. -1.
         25    1    1    2    0    0  0.11559024362E+03 -0.18258784994E+01  0.20356822930E+03  0.26538549741E+03  0.12500000000E+03 0.  0.
         25    1    1    2    0    0  0.56511086004E+02 -0.10269903786E+03  0.59968807819E+03  0.62369173984E+03  0.12500000000E+03 0.  0.
         25    1    1    2    0    0 -0.17210132963E+03  0.10452491635E+03  0.83017234312E+03  0.86333970433E+03  0.12500000000E+03 0.  0.
</event>
<event>
 5    0  0.5561624E-005  0.5335196E+03  0.7546771E-02  0.1005382E+00
         21   -1    0    0  502  501  0.00000000000E+00  0.00000000000E+00  0.20752368894E+03  0.20752368894E+03  0.00000000000E+00 0. -1.
         21   -1    0    0  501  502 -0.00000000000E+00 -0.00000000000E+00 -0.13716175157E+04  0.13716175157E+04  0.00000000000E+00 0. -1.
         25    1    1    2    0    0  0.17475227834E+03 -0.24314540356E+03 -0.43441910637E+03  0.54222044044E+03  0.12500000000E+03 0.  0.
         25    1    1    2    0    0  0.52435142617E+02  0.40583417479E+03 -0.38079734988E+03  0.57278481412E+03  0.12500000000E+03 0.  0.
         25    1    1    2    0    0 -0.22718742095E+03 -0.16268877123E+03 -0.34887737055E+03  0.46413595013E+03  0.12500000000E+03 0.  0.
</event>
<event>
 5    0  0.5561624E-005  0.2973406E+03  0.7546771E-02  0.1086578E+00
         21   -1    0    0  502  501  0.00000000000E+00  0.00000000000E+00  0.17555456010E+03  0.17555456010E+03  0.00000000000E+00 0.  1.
         21   -1    0    0  501  502 -0.00000000000E+00 -0.00000000000E+00 -0.50361237507E+03  0.50361237507E+03  0.00000000000E+00 0.  1.
         25    1    1    2    0    0 -0.38849734415E+02  0.55926991021E+02 -0.49835980149E+02  0.15081695895E+03  0.12500000000E+03 0.  0.
         25    1    1    2    0    0 -0.43919671428E+02 -0.15887073884E+03 -0.13668518968E+02  0.20731781788E+03  0.12500000000E+03 0.  0.
         25    1    1    2    0    0  0.82769405843E+02  0.10294374782E+03 -0.26455331586E+03  0.32103215834E+03  0.12500000000E+03 0.  0.
</event>
<event>
 5    0  0.5561624E-005  0.5959767E+03  0.7546771E-02  0.9913788E-01
         21   -1    0    0  502  501  0.00000000000E+00  0.00000000000E+00  0.15593561499E+04  0.15593561499E+04  0.00000000000E+00 0. -1.
         21   -1    0    0  501  502 -0.00000000000E+00 -0.00000000000E+00 -0.22777875618E+03  0.22777875618E+03  0.00000000000E+00 0. -1.
         25    1    1    2    0    0 -0.41954338070E+02  0.11569649120E+03  0.25385132358E+03  0.30856334689E+03  0.12500000000E+03 0.  0.
         25    1    1    2    0    0 -0.16649216854E+03 -0.23633993998E+03  0.11544026823E+04  0.11965979953E+04  0.12500000000E+03 0.  0.
         25    1    1    2    0    0  0.20844650661E+03  0.12064344878E+03 -0.76676612211E+02  0.28197356385E+03  0.12500000000E+03 0.  0.
</event>
<event>
 5    0  0.5561624E-005  0.3552943E+03  0.7546771E-02  0.1060463E+00
         21   -1    0    0  502  501  0.00000000000E+00  0.00000000000E+00  0.68136993701E+03  0.68136993701E+03  0.00000000000E+00 0. -1.
         21   -1    0    0  501  502 -0.00000000000E+00 -0.00000000000E+00 -0.18526509360E+03  0.18526509360E+03  0.00000000000E+00 0. -1.
         25    1    1    2    0    0 -0.18817969174E+02 -0.24689959609E+02 -0.10343062810E+03  0.16518657602E+03  0.12500000000E+03 0.  0.
         25    1    1    2    0    0  0.11364853687E+03  0.70144253266E+02  0.42339477439E+03  0.46122049085E+03  0.12500000000E+03 0.  0.
         25    1    1    2    0    0 -0.94830567696E+02 -0.45454293658E+02  0.17614069712E+03  0.24022796374E+03  0.12500000000E+03 0.  0.
</event>
<event>
 5    0  0.5561624E-005  0.4483604E+03  0.7546771E-02  0.1028212E+00
         21   -1    0    0  502  501  0.00000000000E+00  0.00000000000E+00  0.50400897212E+03  0.50400897212E+03  0.00000000000E+00 0. -1.
         21   -1    0    0  501  502 -0.00000000000E+00 -0.00000000000E+00 -0.39885610296E+03  0.39885610296E+03  0.00000000000E+00 0. -1.
         25    1    1    2    0    0  0.38708193397E+03  0.44867997697E+02  0.84990623367E+02  0.41796407368E+03  0.12500000000E+03 0.  0.
         25    1    1    2    0    0 -0.29737396344E+03 -0.57748800645E+02 -0.87382397288E+01  0.32782244423E+03  0.12500000000E+03 0.  0.
         25    1    1    2    0    0 -0.89707970528E+02  0.12880802948E+02  0.28900485517E+02  0.15707855717E+03  0.12500000000E+03 0.  0.
</event>
<event>
 5    0  0.5561624E-005  0.2685351E+03  0.7546771E-02  0.1102121E+00
         21   -1    0    0  502  501  0.00000000000E+00  0.00000000000E+00  0.15701593641E+03  0.15701593641E+03  0.00000000000E+00 0. -1.
         21   -1    0    0  501  502 -0.00000000000E+00 -0.00000000000E+00 -0.45925989008E+03  0.45925989008E+03  0.00000000000E+00 0. -1.
         25    1    1    2    0    0  0.37283840362E+02  0.23658606189E+02 -0.81673445248E+02  0.15570923562E+03  0.12500000000E+03 0.  0.
         25    1    1    2    0    0  0.90845562696E+02 -0.98270040333E+02 -0.24442816320E+02  0.18474947458E+03  0.12500000000E+03 0.  0.
         25    1    1    2    0    0 -0.12812940306E+03  0.74611434144E+02 -0.19612769210E+03  0.27581711630E+03  0.12500000000E+03 0.  0.
</event>
<event>
 5    0  0.5561624E-005  0.3236246E+03  0.7546771E-02  0.1073993E+00
         21   -1    0    0  502  501  0.00000000000E+00  0.00000000000E+00  0.18910517379E+03  0.18910517379E+03  0.00000000000E+00 0. -1.
         21   -1    0    0  501  502 -0.00000000000E+00 -0.00000000000E+00 -0.55383391664E+03  0.55383391664E+03  0.00000000000E+00 0. -1.
         25    1    1    2    0    0  0.16848805457E+02 -0.43282487612E+02 -0.47909485427E+02  0.14169535904E+03  0.12500000000E+03 0.  0.
         25    1    1    2    0    0  0.20909423077E+03  0.63380553659E+02 -0.14615155960E+03  0.29107176142E+03  0.12500000000E+03 0.  0.
         25    1    1    2    0    0 -0.22594303623E+03 -0.20098066047E+02 -0.17066769782E+03  0.31017196997E+03  0.12500000000E+03 0.  0.
</event>
<event>
 5    0  0.6720834E-005  0.2855739E+03  0.7546771E-02  0.1092683E+00
         21   -1    0    0  502  501  0.00000000000E+00  0.00000000000E+00  0.32609136588E+03  0.32609136588E+03  0.00000000000E+00 0. -1.
         21   -1    0    0  501  502 -0.00000000000E+00 -0.00000000000E+00 -0.25009076827E+03  0.25009076827E+03  0.00000000000E+00 0. -1.
         25    1    1    2    0    0 -0.75418005529E+02  0.15738658739E+03 -0.23083580746E+02  0.21590800159E+03  0.12500000000E+03 0.  0.
         25    1    1    2    0    0  0.61926444199E+02 -0.10629804759E+03 -0.24054919257E+02  0.17702485293E+03  0.12500000000E+03 0.  0.
         25    1    1    2    0    0  0.13491561330E+02 -0.51088539803E+02  0.12313909762E+03  0.18324927964E+03  0.12500000000E+03 0.  0.
</event>
<event>
 5    0  0.5561624E-005  0.3496534E+03  0.7546771E-02  0.1062757E+00
         21   -1    0    0  502  501  0.00000000000E+00  0.00000000000E+00  0.98412967505E+02  0.98412967505E+02  0.00000000000E+00 0.  1.
         21   -1    0    0  501  502 -0.00000000000E+00 -0.00000000000E+00 -0.12422902392E+04  0.12422902392E+04  0.00000000000E+00 0.  1.
         25    1    1    2    0    0  0.20780610047E+03  0.42344082107E+02 -0.28446089005E+03  0.37619063605E+03  0.12500000000E+03 0.  0.
         25    1    1    2    0    0 -0.43487348092E+02  0.30720422392E+02 -0.86261437176E+02  0.16093765669E+03  0.12500000000E+03 0.  0.
         25    1    1    2    0    0 -0.16431875238E+03 -0.73064504499E+02 -0.77315494448E+03  0.80357491398E+03  0.12500000000E+03 0.  0.
</event>
<event>
 5    0  0.5561624E-005  0.2635587E+03  0.7546771E-02  0.1105024E+00
         21   -1    0    0  502  501  0.00000000000E+00  0.00000000000E+00  0.22392253406E+03  0.22392253406E+03  0.00000000000E+00 0. -1.
         21   -1    0    0  501  502 -0.00000000000E+00 -0.00000000000E+00 -0.31021090714E+03  0.31021090714E+03  0.00000000000E+00 0. -1.
         25    1    1    2    0    0  0.67657678445E+02  0.48567711824E+02 -0.10274509926E+03  0.18198334953E+03  0.12500000000E+03 0.  0.
         25    1    1    2    0    0 -0.11517398498E+03 -0.41551520564E+02 -0.74598800438E+02  0.19021450183E+03  0.12500000000E+03 0.  0.
         25    1    1    2    0    0  0.47516306537E+02 -0.70161912598E+01  0.91055526620E+02  0.16193558983E+03  0.12500000000E+03 0.  0.
</event>
<event>
 5    0  0.5561624E-005  0.2435971E+03  0.7546771E-02  0.1117419E+00
         21   -1    0    0  502  501  0.00000000000E+00  0.00000000000E+00  0.62508189146E+03  0.62508189146E+03  0.00000000000E+00 0.  1.
         21   -1    0    0  501  502 -0.00000000000E+00 -0.00000000000E+00 -0.94930863445E+02  0.94930863445E+02  0.00000000000E+00 0.  1.
         25    1    1    2    0    0  0.48080887622E+02 -0.56715955215E+02  0.17150062683E+03  0.22486870910E+03  0.12500000000E+03 0.  0.
         25    1    1    2    0    0  0.49753258766E+02 -0.95888157633E+01  0.26955096321E+03  0.30141342689E+03  0.12500000000E+03 0.  0.
         25    1    1    2    0    0 -0.97834146388E+02  0.66304770978E+02  0.89099437973E+02  0.19373061890E+03  0.12500000000E+03 0.  0.
</event>
<event>
 5    0  0.5588226E-005  0.2485898E+03  0.7546771E-02  0.1114199E+00
         21   -1    0    0  502  501  0.00000000000E+00  0.00000000000E+00  0.81649808103E+02  0.81649808103E+02  0.00000000000E+00 0.  1.
         21   -1    0    0  501  502 -0.00000000000E+00 -0.00000000000E+00 -0.75685257674E+03  0.75685257674E+03  0.00000000000E+00 0.  1.
         25    1    1    2    0    0 -0.63723394663E+02 -0.10896420535E+03 -0.39402057274E+03  0.43221647449E+03  0.12500000000E+03 0.  0.
         25    1    1    2    0    0 -0.60747639989E+01  0.39661274810E+02 -0.98915771840E+02  0.16437533086E+03  0.12500000000E+03 0.  0.
         25    1    1    2    0    0  0.69798158662E+02  0.69302930537E+02 -0.18226642406E+03  0.24191057950E+03  0.12500000000E+03 0.  0.
</event>
<event>
 5    0  0.7010689E-005  0.2854885E+03  0.7546771E-02  0.1092728E+00
         21   -1    0    0  502  501  0.00000000000E+00  0.00000000000E+00  0.45155380228E+03  0.45155380228E+03  0.00000000000E+00 0. -1.
         21   -1    0    0  501  502 -0.00000000000E+00 -0.00000000000E+00 -0.18049600702E+03  0.18049600702E+03  0.00000000000E+00 0. -1.
         25    1    1    2    0    0  0.61814624532E+02 -0.15391174769E+03  0.21548039901E+03  0.29927692233E+03  0.12500000000E+03 0.  0.
         25    1    1    2    0    0 -0.18340742535E+02  0.12833695051E+03  0.77774562117E+02  0.19616482411E+03  0.12500000000E+03 0.  0.
         25    1    1    2    0    0 -0.43473881996E+02  0.25574797172E+02 -0.22197165874E+02  0.13660806286E+03  0.12500000000E+03 0.  0.
</event>
<event>
 5    0  0.5561624E-005  0.2698174E+03  0.7546771E-02  0.1101384E+00
         21   -1    0    0  502  501  0.00000000000E+00  0.00000000000E+00  0.89112267797E+03  0.89112267797E+03  0.00000000000E+00 0.  1.
         21   -1    0    0  501  502 -0.00000000000E+00 -0.00000000000E+00 -0.81696323250E+02  0.81696323250E+02  0.00000000000E+00 0.  1.
         25    1    1    2    0    0  0.21500525165E+02 -0.27770025577E+02  0.25847683163E+03  0.28925545698E+03  0.12500000000E+03 0.  0.
         25    1    1    2    0    0  0.68765241490E+02  0.79916436814E+02  0.73780762937E+02  0.17939870760E+03  0.12500000000E+03 0.  0.
         25    1    1    2    0    0 -0.90265766655E+02 -0.52146411237E+02  0.47716876015E+03  0.50416483663E+03  0.12500000000E+03 0.  0.
</event>
<event>
 5    0  0.5561624E-005  0.4145693E+03  0.7546771E-02  0.1038848E+00
         21   -1    0    0  502  501  0.00000000000E+00  0.00000000000E+00  0.14131935308E+04  0.14131935308E+04  0.00000000000E+00 0.  1.
         21   -1    0    0  501  502 -0.00000000000E+00 -0.00000000000E+00 -0.12161655976E+03  0.12161655976E+03  0.00000000000E+00 0.  1.
         25    1    1    2    0    0 -0.30309481866E+03 -0.70152899897E+02  0.87524710160E+03  0.93726751108E+03  0.12500000000E+03 0.  0.
         25    1    1    2    0    0  0.73916313457E+02  0.71401245103E+02  0.20809310455E+03  0.26360861017E+03  0.12500000000E+03 0.  0.
         25    1    1    2    0    0  0.22917850520E+03 -0.12483452060E+01  0.20823676491E+03  0.33393396933E+03  0.12500000000E+03 0.  0.
</event>
<event>
 5    0  0.5561624E-005  0.2617672E+03  0.7546771E-02  0.1106086E+00
         21   -1    0    0  502  501  0.00000000000E+00  0.00000000000E+00  0.40187574973E+02  0.40187574973E+02  0.00000000000E+00 0. -1.
         21   -1    0    0  501  502 -0.00000000000E+00 -0.00000000000E+00 -0.17050553850E+04  0.17050553850E+04  0.00000000000E+00 0. -1.
         25    1    1    2    0    0 -0.23013020785E+02 -0.19926146237E+02 -0.34416544385E+03  0.36742550697E+03  0.12500000000E+03 0.  0.
         25    1    1    2    0    0  0.37868164642E+02 -0.13554044033E+03 -0.53882032426E+03  0.57075174174E+03  0.12500000000E+03 0.  0.
         25    1    1    2    0    0 -0.14855143857E+02  0.15546658657E+03 -0.78188204190E+03  0.80706571126E+03  0.12500000000E+03 0.  0.
</event>
<event>
 5    0  0.5561624E-005  0.2561117E+03  0.7546771E-02  0.1109502E+00
         21   -1    0    0  502  501  0.00000000000E+00  0.00000000000E+00  0.36760050313E+02  0.36760050313E+02  0.00000000000E+00 0.  1.
         21   -1    0    0  501  502 -0.00000000000E+00 -0.00000000000E+00 -0.17843616858E+04  0.17843616858E+04  0.00000000000E+00 0.  1.
         25    1    1    2    0    0 -0.72082699402E+02  0.57696465742E+02 -0.50912053329E+03  0.53230960458E+03  0.12500000000E+03 0.  0.
         25    1    1    2    0    0 -0.61850529012E+02 -0.78307094673E+01 -0.29478797104E+03  0.32620814799E+03  0.12500000000E+03 0.  0.
         25    1    1    2    0    0  0.13393322841E+03 -0.49865756275E+02 -0.94369313116E+03  0.96260398354E+03  0.12500000000E+03 0.  0.
</event>
<event>
 5    0  0.5561624E-005  0.2718653E+03  0.7546771E-02  0.1100217E+00
         21   -1    0    0  502  501  0.00000000000E+00  0.00000000000E+00  0.20659232468E+04  0.20659232468E+04  0.00000000000E+00 0.  1.
         21   -1    0    0  501  502 -0.00000000000E+00 -0.00000000000E+00 -0.35776127509E+02  0.35776127509E+02  0.00000000000E+00 0.  1.
         25    1    1    2    0    0  0.17470147628E+02  0.94757156485E+02  0.48371406775E+03  0.50881079401E+03  0.12500000000E+03 0.  0.
         25    1    1    2    0    0  0.65937201037E+02 -0.45755630730E+02  0.28309762841E+03  0.31970386209E+03  0.12500000000E+03 0.  0.
         25    1    1    2    0    0 -0.83407348665E+02 -0.49001525755E+02  0.12633354232E+04  0.12731847182E+04  0.12500000000E+03 0.  0.
</event>
<event>
 5    0  0.5561624E-005  0.2597819E+03  0.7546771E-02  0.1107274E+00
         21   -1    0    0  502  501  0.00000000000E+00  0.00000000000E+00  0.49025963656E+03  0.49025963656E+03  0.00000000000E+00 0. -1.
         21   -1    0    0  501  502 -0.00000000000E+00 -0.00000000000E+00 -0.13765493426E+03  0.13765493426E+03  0.00000000000E+00 0. -1.
         25    1    1    2    0    0 -0.12619164496E+03 -0.87884802758E+01  0.21969729548E+03  0.28265433003E+03  0.12500000000E+03 0.  0.
         25    1    1    2    0    0 -0.54513175571E+01  0.42486547251E+02  0.74049309166E+02  0.15146987736E+03  0.12500000000E+03 0.  0.
         25    1    1    2    0    0  0.13164296252E+03 -0.33698066976E+02  0.58858097652E+02  0.19379036343E+03  0.12500000000E+03 0.  0.
</event>
<event>
 5    0  0.5561624E-005  0.2667823E+03  0.7546771E-02  0.1103135E+00
         21   -1    0    0  502  501  0.00000000000E+00  0.00000000000E+00  0.48441089340E+02  0.48441089340E+02  0.00000000000E+00 0.  1.
         21   -1    0    0  501  502 -0.00000000000E+00 -0.00000000000E+00 -0.14692654642E+04  0.14692654642E+04  0.00000000000E+00 0.  1.
         25    1    1    2    0    0 -0.86318727040E+02  0.40934872417E+02 -0.76245744082E+03  0.77851970783E+03  0.12500000000E+03 0.  0.
         25    1    1    2    0    0  0.60617205579E+02 -0.69734815130E+02 -0.15661304939E+03  0.22065819108E+03  0.12500000000E+03 0.  0.
         25    1    1    2    0    0  0.25701521461E+02  0.28799942712E+02 -0.50175388466E+03  0.51852865463E+03  0.12500000000E+03 0.  0.
</event>
<event>
 5    0  0.5561624E-005  0.2799269E+03  0.7546771E-02  0.1095729E+00
         21   -1    0    0  502  501  0.00000000000E+00  0.00000000000E+00  0.61312106016E+03  0.61312106016E+03  0.00000000000E+00 0.  1.
         21   -1    0    0  501  502 -0.00000000000E+00 -0.00000000000E+00 -0.12780358057E+03  0.12780358057E+03  0.00000000000E+00 0.  1.
         25    1    1    2    0    0 -0.49471781885E+02  0.12618001332E+02  0.10392308184E+03  0.17038684838E+03  0.12500000000E+03 0.  0.
         25    1    1    2    0    0  0.17194089343E+03 -0.87247131540E+02  0.24859977231E+03  0.33853002760E+03  0.12500000000E+03 0.  0.
         25    1    1    2    0    0 -0.12246911155E+03  0.74629130208E+02  0.13279462544E+03  0.23200776475E+03  0.12500000000E+03 0.  0.
</event>
<event>
 5    0  0.5561624E-005  0.9930775E+03  0.7546771E-02  0.9316170E-01
         21   -1    0    0  502  501  0.00000000000E+00  0.00000000000E+00  0.62529486516E+03  0.62529486516E+03  0.00000000000E+00 0. -1.
         21   -1    0    0  501  502 -0.00000000000E+00 -0.00000000000E+00 -0.15771806617E+04  0.15771806617E+04  0.00000000000E+00 0. -1.
         25    1    1    2    0    0  0.78735719055E+02 -0.13493184508E+03 -0.82243882152E+03  0.84642573887E+03  0.12500000000E+03 0.  0.
         25    1    1    2    0    0  0.34360031345E+03  0.21791040116E+03 -0.58073440720E+03  0.72001636790E+03  0.12500000000E+03 0.  0.
         25    1    1    2    0    0 -0.42233603250E+03 -0.82978556071E+02  0.45128743214E+03  0.63603342013E+03  0.12500000000E+03 0.  0.
</event>
<event>
 5    0  0.5561624E-005  0.5021854E+03  0.7546771E-02  0.1013210E+00
         21   -1    0    0  502  501  0.00000000000E+00  0.00000000000E+00  0.58013077588E+03  0.58013077588E+03  0.00000000000E+00 0. -1.
         21   -1    0    0  501  502 -0.00000000000E+00 -0.00000000000E+00 -0.43471266878E+03  0.43471266878E+03  0.00000000000E+00 0. -1.
         25    1    1    2    0    0  0.28920954196E+03  0.34985792384E+03  0.47652165553E+02  0.47322135932E+03  0.12500000000E+03 0.  0.
         25    1    1    2    0    0 -0.13457763625E+03 -0.18579894880E+03 -0.11787362351E+02  0.26152692302E+03  0.12500000000E+03 0.  0.
         25    1    1    2    0    0 -0.15463190571E+03 -0.16405897504E+03  0.10955330390E+03  0.28009516231E+03  0.12500000000E+03 0.  0.
</event>
<event>
 5    0  0.5937952E-005  0.2458466E+03  0.7546771E-02  0.1115958E+00
         21   -1    0    0  502  501  0.00000000000E+00  0.00000000000E+00  0.43215573091E+03  0.43215573091E+03  0.00000000000E+00 0.  1.
         21   -1    0    0  501  502 -0.00000000000E+00 -0.00000000000E+00 -0.13985831075E+03  0.13985831075E+03  0.00000000000E+00 0.  1.
         25    1    1    2    0    0  0.56484293770E+02 -0.24552021341E+02  0.10379859878E+03  0.17375967974E+03  0.12500000000E+03 0.  0.
         25    1    1    2    0    0  0.48235720681E+02  0.53249932554E+02  0.18248843863E+03  0.23257100055E+03  0.12500000000E+03 0.  0.
         25    1    1    2    0    0 -0.10472001445E+03 -0.28697911213E+02  0.60103827597E+01  0.16568336137E+03  0.12500000000E+03 0.  0.
</event>
<event>
 5    0  0.5561624E-005  0.2321856E+03  0.7546771E-02  0.1125111E+00
         21   -1    0    0  502  501  0.00000000000E+00  0.00000000000E+00  0.40754128200E+03  0.40754128200E+03  0.00000000000E+00 0. -1.
         21   -1    0    0  501  502 -0.00000000000E+00 -0.00000000000E+00 -0.13228142142E+03  0.13228142142E+03  0.00000000000E+00 0. -1.
         25    1    1    2    0    0 -0.40744394475E+00  0.79805720201E+02  0.19593004867E+03  0.24572892170E+03  0.12500000000E+03 0.  0.
         25    1    1    2    0    0  0.28967075786E+02 -0.22212642933E+02 -0.47439054398E+01  0.13030731992E+03  0.12500000000E+03 0.  0.
         25    1    1    2    0    0 -0.28559631841E+02 -0.57593077268E+02  0.84073717350E+02  0.16378646180E+03  0.12500000000E+03 0.  0.
</event>
<event>
 5    0  0.5561624E-005  0.2853497E+03  0.7546771E-02  0.1092802E+00
         21   -1    0    0  502  501  0.00000000000E+00  0.00000000000E+00  0.98240135012E+02  0.98240135012E+02  0.00000000000E+00 0.  1.
         21   -1    0    0  501  502 -0.00000000000E+00 -0.00000000000E+00 -0.82883070344E+03  0.82883070344E+03  0.00000000000E+00 0.  1.
         25    1    1    2    0    0  0.16652820438E+03 -0.86912058882E+01 -0.48701086832E+03  0.52972801113E+03  0.12500000000E+03 0.  0.
         25    1    1    2    0    0 -0.12991112639E+03  0.26744157255E+02 -0.13495460446E+03  0.22678160413E+03  0.12500000000E+03 0.  0.
         25    1    1    2    0    0 -0.36617077991E+02 -0.18052951367E+02 -0.10862509565E+03  0.17056122320E+03  0.12500000000E+03 0.  0.
</event>
<event>
 5    0  0.5561624E-005  0.4949990E+03  0.7546771E-02  0.1015093E+00
         21   -1    0    0  502  501  0.00000000000E+00  0.00000000000E+00  0.59466704699E+03  0.59466704699E+03  0.00000000000E+00 0. -1.
         21   -1    0    0  501  502 -0.00000000000E+00 -0.00000000000E+00 -0.41203557601E+03  0.41203557601E+03  0.00000000000E+00 0. -1.
         25    1    1    2    0    0  0.23095278481E+02  0.27176230822E+03  0.14684486897E+03  0.33403077642E+03  0.12500000000E+03 0.  0.
         25    1    1    2    0    0 -0.23930192088E+03 -0.43010660012E+02  0.15422595910E+03  0.31388847171E+03  0.12500000000E+03 0.  0.
         25    1    1    2    0    0  0.21620664240E+03 -0.22875164820E+03 -0.11843935709E+03  0.35878337486E+03  0.12500000000E+03 0.  0.
</event>
<event>
 5    0  0.5561624E-005  0.4564746E+03  0.7546771E-02  0.1025809E+00
         21   -1    0    0  502  501  0.00000000000E+00  0.00000000000E+00  0.41445124683E+03  0.41445124683E+03  0.00000000000E+00 0. -1.
         21   -1    0    0  501  502 -0.00000000000E+00 -0.00000000000E+00 -0.50275883819E+03  0.50275883819E+03  0.00000000000E+00 0.  1.
         25    1    1    2    0    0  0.12849985513E+03  0.38109873072E+03 -0.62719081844E+02  0.42580175969E+03  0.12500000000E+03 0.  0.
         25    1    1    2    0    0 -0.15643515753E+02 -0.22939696934E+03  0.10353670138E+02  0.26191580252E+03  0.12500000000E+03 0.  0.
         25    1    1    2    0    0 -0.11285633938E+03 -0.15170176139E+03 -0.35942179648E+02  0.22949252281E+03  0.12500000000E+03 0.  0.
</event>
<event>
 5    0  0.5561624E-005  0.2702534E+03  0.7546771E-02  0.1101135E+00
         21   -1    0    0  502  501  0.00000000000E+00  0.00000000000E+00  0.32557667435E+03  0.32557667435E+03  0.00000000000E+00 0.  1.
         21   -1    0    0  501  502 -0.00000000000E+00 -0.00000000000E+00 -0.22433094730E+03  0.22433094730E+03  0.00000000000E+00 0.  1.
         25    1    1    2    0    0 -0.91979793451E+02 -0.25659079618E+02  0.11754246045E+03  0.19636675070E+03  0.12500000000E+03 0.  0.
         25    1    1    2    0    0  0.34175159085E+01 -0.61099702001E+02 -0.86654452586E+02  0.16394769639E+03  0.12500000000E+03 0.  0.
         25    1    1    2    0    0  0.88562277542E+02  0.86758781619E+02  0.70357719183E+02  0.18959317456E+03  0.12500000000E+03 0.  0.
</event>
<event>
 5    0  0.5561624E-005  0.3826093E+03  0.7546771E-02  0.1049974E+00
         21   -1    0    0  502  501  0.00000000000E+00  0.00000000000E+00  0.15626049693E+03  0.15626049693E+03  0.00000000000E+00 0.  1.
         21   -1    0    0  501  502 -0.00000000000E+00 -0.00000000000E+00 -0.93683248662E+03  0.93683248662E+03  0.00000000000E+00 0.  1.
         25    1    1    2    0    0 -0.24348679135E+03  0.35684439153E+02 -0.22346770420E+03  0.35513660974E+03  0.12500000000E+03 0.  0.
         25    1    1    2    0    0  0.27680634870E+03  0.36915503101E+02 -0.48395549010E+03  0.57255779224E+03  0.12500000000E+03 0.  0.
         25    1    1    2    0    0 -0.33319557357E+02 -0.72599942254E+02 -0.73148795394E+02  0.16539858157E+03  0.12500000000E+03 0.  0.
</event>
<event>
 5    0  0.5561624E-005  0.3750293E+03  0.7546771E-02  0.1052786E+00
         21   -1    0    0  502  501  0.00000000000E+00  0.00000000000E+00  0.85978027357E+02  0.85978027357E+02  0.00000000000E+00 0.  1.
         21   -1    0    0  501  502 -0.00000000000E+00 -0.00000000000E+00 -0.16358479396E+04  0.16358479396E+04  0.00000000000E+00 0.  1.
         25    1    1    2    0    0  0.14590192676E+03  0.43755785152E+02 -0.11529488181E+03  0.22829772390E+03  0.12500000000E+03 0.  0.
         25    1    1    2    0    0 -0.14605502946E+03 -0.53807118917E+02 -0.35987532136E+03  0.41153678402E+03  0.12500000000E+03 0.  0.
         25    1    1    2    0    0  0.15310270284E+00  0.10051333764E+02 -0.10746997091E+04  0.10819914590E+04  0.12500000000E+03 0.  0.
</event>
<event>
 5    0  0.5561624E-005  0.7153448E+03  0.7546771E-02  0.9691344E-01
         21   -1    0    0  502  501  0.00000000000E+00  0.00000000000E+00  0.84113681748E+03  0.84113681748E+03  0.00000000000E+00 0.  1.
         21   -1    0    0  501  502 -0.00000000000E+00 -0.00000000000E+00 -0.60836502598E+03  0.60836502598E+03  0.00000000000E+00 0.  1.
         25    1    1    2    0    0 -0.20047441930E+03 -0.96733696857E+02 -0.47705763170E+03  0.54106966729E+03  0.12500000000E+03 0.  0.
         25    1    1    2    0    0  0.20397820705E+03 -0.10468406734E+03  0.58468847583E+03  0.64035261901E+03  0.12500000000E+03 0.  0.
         25    1    1    2    0    0 -0.35037877492E+01  0.20141776419E+03  0.12514094736E+03  0.26807955716E+03  0.12500000000E+03 0.  0.
</event>
<event>
 5    0  0.5561624E-005  0.2840264E+03  0.7546771E-02  0.1093510E+00
         21   -1    0    0  502  501  0.00000000000E+00  0.00000000000E+00  0.19533453308E+03  0.19533453308E+03  0.00000000000E+00 0.  1.
         21   -1    0    0  501  502 -0.00000000000E+00 -0.00000000000E+00 -0.41298878536E+03  0.41298878536E+03  0.00000000000E+00 0.  1.
         25    1    1    2    0    0 -0.13528029153E+03  0.10872731448E+03 -0.85206301202E+02  0.23023357695E+03  0.12500000000E+03 0.  0.
         25    1    1    2    0    0  0.15349708670E+03 -0.11122442395E+03 -0.73431835506E+02  0.23864086527E+03  0.12500000000E+03 0.  0.
         25    1    1    2    0    0 -0.18216795174E+02  0.24971094772E+01 -0.59016115570E+02  0.13944887622E+03  0.12500000000E+03 0.  0.
</event>
<event>
 5    0  0.5561624E-005  0.4039099E+03  0.7546771E-02  0.1042434E+00
         21   -1    0    0  502  501  0.00000000000E+00  0.00000000000E+00  0.17500863541E+04  0.17500863541E+04  0.00000000000E+00 0.  1.
         21   -1    0    0  501  502 -0.00000000000E+00 -0.00000000000E+00 -0.93220107218E+02  0.93220107218E+02  0.00000000000E+00 0.  1.
         25    1    1    2    0    0  0.12633874398E+02  0.62812372232E+01  0.80735978240E+03  0.81710090379E+03  0.12500000000E+03 0.  0.
         25    1    1    2    0    0  0.24455233342E+03 -0.26839461298E+02  0.52565545733E+03  0.59368751063E+03  0.12500000000E+03 0.  0.
         25    1    1    2    0    0 -0.25718620781E+03  0.20558224075E+02  0.32385100717E+03  0.43251804692E+03  0.12500000000E+03 0.  0.
</event>
<event>
 5    0  0.5561624E-005  0.3026594E+03  0.7546771E-02  0.1083919E+00
         21   -1    0    0  502  501  0.00000000000E+00  0.00000000000E+00  0.81932152973E+03  0.81932152973E+03  0.00000000000E+00 0.  1.
         21   -1    0    0  501  502 -0.00000000000E+00 -0.00000000000E+00 -0.11180316457E+03  0.11180316457E+03  0.00000000000E+00 0.  1.
         25    1    1    2    0    0  0.40816207909E+02  0.56520868277E+02  0.58827154249E+03  0.60543288570E+03  0.12500000000E+03 0.  0.
         25    1    1    2    0    0 -0.68692362101E+02  0.30779382021E+02  0.38418945341E+02  0.15088746247E+03  0.12500000000E+03 0.  0.
         25    1    1    2    0    0  0.27876154192E+02 -0.87300250298E+02  0.80827877329E+02  0.17480434614E+03  0.12500000000E+03 0.  0.
</event>
<event>
 5    0  0.5792766E-005  0.2991933E+03  0.7546771E-02  0.1085645E+00
         21   -1    0    0  502  501  0.00000000000E+00  0.00000000000E+00  0.51325743954E+03  0.51325743954E+03  0.00000000000E+00 0. -1.
         21   -1    0    0  501  502 -0.00000000000E+00 -0.00000000000E+00 -0.17440881537E+03  0.17440881537E+03  0.00000000000E+00 0. -1.
         25    1    1    2    0    0 -0.14027891745E+02  0.37269804785E+02  0.16588095388E+03  0.21148832345E+03  0.12500000000E+03 0.  0.
         25    1    1    2    0    0 -0.34559901882E+02 -0.10203118886E+03  0.25682101592E+03  0.30526510534E+03  0.12500000000E+03 0.  0.
         25    1    1    2    0    0  0.48587793627E+02  0.64761384075E+02 -0.83853345632E+02  0.17091282611E+03  0.12500000000E+03 0.  0.
</event>
<event>
 5    0  0.5561624E-005  0.2999137E+03  0.7546771E-02  0.1085284E+00
         21   -1    0    0  502  501  0.00000000000E+00  0.00000000000E+00  0.29220869772E+04  0.29220869772E+04  0.00000000000E+00 0.  1.
         21   -1    0    0  501  502 -0.00000000000E+00 -0.00000000000E+00 -0.30782189065E+02  0.30782189065E+02  0.00000000000E+00 0.  1.
         25    1    1    2    0    0  0.17205578576E+03 -0.12511673682E+01  0.10767257640E+04  0.10975281909E+04  0.12500000000E+03 0.  0.
         25    1    1    2    0    0 -0.72747884369E+02  0.82390256413E+02  0.12974096583E+04  0.13080432831E+04  0.12500000000E+03 0.  0.
         25    1    1    2    0    0 -0.99307901396E+02 -0.81139089045E+02  0.51716936578E+03  0.54729769226E+03  0.12500000000E+03 0.  0.
</event>
<event>
 5    0  0.5561624E-005  0.2600330E+03  0.7546771E-02  0.1107123E+00
         21   -1    0    0  502  501  0.00000000000E+00  0.00000000000E+00  0.25099861231E+03  0.25099861231E+03  0.00000000000E+00 0. -1.
         21   -1    0    0  501  502 -0.00000000000E+00 -0.00000000000E+00 -0.26939248637E+03  0.26939248637E+03  0.00000000000E+00 0. -1.
         25    1    1    2    0    0  0.42450813882E+02 -0.77775803665E+02  0.13243173846E+03  0.20251990664E+03  0.12500000000E+03 0.  0.
         25    1    1    2    0    0  0.18036808187E+02  0.51389284948E+02 -0.93553799223E+02  0.16535869619E+03  0.12500000000E+03 0.  0.
         25    1    1    2    0    0 -0.60487622069E+02  0.26386518718E+02 -0.57271813290E+02  0.15251249585E+03  0.12500000000E+03 0.  0.
</event>
<event>
 5    0  0.5561624E-005  0.3834789E+03  0.7546771E-02  0.1049655E+00
         21   -1    0    0  502  501  0.00000000000E+00  0.00000000000E+00  0.15849226662E+03  0.15849226662E+03  0.00000000000E+00 0. -1.
         21   -1    0    0  501  502 -0.00000000000E+00 -0.00000000000E+00 -0.92784371842E+03  0.92784371842E+03  0.00000000000E+00 0. -1.
         25    1    1    2    0    0 -0.46838040350E+01  0.22319182023E+03 -0.55800078937E+03  0.61386187988E+03  0.12500000000E+03 0.  0.
         25    1    1    2    0    0 -0.45929801516E+02 -0.24046207430E+03 -0.19165747087E+03  0.33509572063E+03  0.12500000000E+03 0.  0.
         25    1    1    2    0    0  0.50613605551E+02  0.17270254066E+02 -0.19693191555E+02  0.13737838453E+03  0.12500000000E+03 0.  0.
</event>
<event>
 5    0  0.6386491E-005  0.3618224E+03  0.7546771E-02  0.1057865E+00
         21   -1    0    0  502  501  0.00000000000E+00  0.00000000000E+00  0.15739640405E+03  0.15739640405E+03  0.00000000000E+00 0.  1.
         21   -1    0    0  501  502 -0.00000000000E+00 -0.00000000000E+00 -0.83175616659E+03  0.83175616659E+03  0.00000000000E+00 0.  1.
         25    1    1    2    0    0 -0.18767010647E+03 -0.18888084877E+02 -0.22284075332E+03  0.31758436667E+03  0.12500000000E+03 0.  0.
         25    1    1    2    0    0  0.46573111038E+02 -0.12311065641E+03 -0.38613883582E+03  0.42667726553E+03  0.12500000000E+03 0.  0.
         25    1    1    2    0    0  0.14109699544E+03  0.14199874129E+03 -0.65380173397E+02  0.24489093842E+03  0.12500000000E+03 0.  0.
</event>
<event>
 5    0  0.5561624E-005  0.2105772E+03  0.7546771E-02  0.1141110E+00
         21   -1    0    0  502  501  0.00000000000E+00  0.00000000000E+00  0.30159347329E+02  0.30159347329E+02  0.00000000000E+00 0.  1.
         21   -1    0    0  501  502 -0.00000000000E+00 -0.00000000000E+00 -0.14702819627E+04  0.14702819627E+04  0.00000000000E+00 0.  1.
         25    1    1    2    0    0 -0.52120088723E+02  0.43513587451E+02 -0.63172870143E+03  0.64754620542E+03  0.12500000000E+03 0.  0.
         25    1    1    2    0    0  0.32164591319E+02  0.19063777952E+02 -0.37106562611E+03  0.39333533714E+03  0.12500000000E+03 0.  0.
         25    1    1    2    0    0  0.19955497404E+02 -0.62577365403E+02 -0.43732828783E+03  0.45955976747E+03  0.12500000000E+03 0.  0.
</event>
<event>
 5    0  0.5561624E-005  0.3298273E+03  0.7546771E-02  0.1071213E+00
         21   -1    0    0  502  501  0.00000000000E+00  0.00000000000E+00  0.17176810705E+04  0.17176810705E+04  0.00000000000E+00 0. -1.
         21   -1    0    0  501  502 -0.00000000000E+00 -0.00000000000E+00 -0.63333087562E+02  0.63333087562E+02  0.00000000000E+00 0. -1.
         25    1    1    2    0    0 -0.58820859257E+02 -0.14232841232E+03  0.17283078121E+03  0.26308316056E+03  0.12500000000E+03 0.  0.
         25    1    1    2    0    0  0.35331923472E+02  0.97059459057E+02  0.11265043145E+04  0.11381150442E+04  0.12500000000E+03 0.  0.
         25    1    1    2    0    0  0.23488935784E+02  0.45268953258E+02  0.35501288728E+03  0.37981595328E+03  0.12500000000E+03 0.  0.
</event>
<event>
 5    0  0.5561624E-005  0.2619906E+03  0.7546771E-02  0.1105953E+00
         21   -1    0    0  502  501  0.00000000000E+00  0.00000000000E+00  0.55423291547E+02  0.55423291547E+02  0.00000000000E+00 0. -1.
         21   -1    0    0  501  502 -0.00000000000E+00 -0.00000000000E+00 -0.12384517601E+04  0.12384517601E+04  0.00000000000E+00 0. -1.
         25    1    1    2    0    0 -0.57126690421E+02  0.12518821289E+03 -0.36807722576E+03  0.41236075411E+03  0.12500000000E+03 0.  0.
         25    1    1    2    0    0  0.31172708289E+02 -0.67903667923E+01 -0.16961223652E+03  0.21309893853E+03  0.12500000000E+03 0.  0.
         25    1    1    2    0    0  0.25953982132E+02 -0.11839784610E+03 -0.64533900632E+03  0.66841535906E+03  0.12500000000E+03 0.  0.
</event>
<event>
 5    0  0.5561624E-005  0.3460401E+03  0.7546771E-02  0.1064252E+00
         21   -1    0    0  502  501  0.00000000000E+00  0.00000000000E+00  0.16716621513E+03  0.16716621513E+03  0.00000000000E+00 0. -1.
         21   -1    0    0  501  502 -0.00000000000E+00 -0.00000000000E+00 -0.71631559160E+03  0.71631559160E+03  0.00000000000E+00 0. -1.
         25    1    1    2    0    0  0.15961436105E+03  0.16257491498E+03 -0.53174547599E+02  0.26525436801E+03  0.12500000000E+03 0.  0.
         25    1    1    2    0    0 -0.82088386779E+02 -0.48426506740E+02 -0.11688762427E+03  0.19588605490E+03  0.12500000000E+03 0.  0.
         25    1    1    2    0    0 -0.77525974272E+02 -0.11414840824E+03 -0.37908720461E+03  0.42234138382E+03  0.12500000000E+03 0.  0.
</event>
<event>
 5    0  0.5561624E-005  0.2646032E+03  0.7546771E-02  0.1104409E+00
         21   -1    0    0  502  501  0.00000000000E+00  0.00000000000E+00  0.28802754063E+02  0.28802754063E+02  0.00000000000E+00 0.  1.
         21   -1    0    0  501  502 -0.00000000000E+00 -0.00000000000E+00 -0.24308394052E+04  0.24308394052E+04  0.00000000000E+00 0.  1.
         25    1    1    2    0    0 -0.68009180845E+02  0.30004242769E+02 -0.15983899543E+04  0.16049925075E+04  0.12500000000E+03 0.  0.
         25    1    1    2    0    0  0.17371160526E+02 -0.25779404247E+01 -0.56710399925E+03  0.58098222775E+03  0.12500000000E+03 0.  0.
         25    1    1    2    0    0  0.50638020319E+02 -0.27426302345E+02 -0.23654269760E+03  0.27366742398E+03  0.12500000000E+03 0.  0.
</event>
<event>
 5    0  0.5561624E-005  0.3537393E+03  0.7546771E-02  0.1061091E+00
         21   -1    0    0  502  501  0.00000000000E+00  0.00000000000E+00  0.15697571920E+03  0.15697571920E+03  0.00000000000E+00 0.  1.
         21   -1    0    0  501  502 -0.00000000000E+00 -0.00000000000E+00 -0.79713909699E+03  0.79713909699E+03  0.00000000000E+00 0.  1.
         25    1    1    2    0    0  0.12478961693E+03 -0.26821896529E+02 -0.21994193530E+03  0.28335722601E+03  0.12500000000E+03 0.  0.
         25    1    1    2    0    0 -0.74840420390E+02  0.13124801428E+03  0.21551178995E+02  0.19727286457E+03  0.12500000000E+03 0.  0.
         25    1    1    2    0    0 -0.49949196536E+02 -0.10442611775E+03 -0.44177262148E+03  0.47348472562E+03  0.12500000000E+03 0.  0.
</event>
<event>
 5    0  0.5561624E-005  0.2236974E+03  0.7546771E-02  0.1131156E+00
         21   -1    0    0  502  501  0.00000000000E+00  0.00000000000E+00  0.39657274997E+03  0.39657274997E+03  0.00000000000E+00 0.  1.
         21   -1    0    0  501  502 -0.00000000000E+00 -0.00000000000E+00 -0.12618242349E+03  0.12618242349E+03  0.00000000000E+00 0.  1.
         25    1    1    2    0    0 -0.21855407033E+02  0.71851541830E+02  0.12156855479E+03  0.18985314428E+03  0.12500000000E+03 0.  0.
         25    1    1    2    0    0 -0.40338836023E+02 -0.14641067177E+02  0.12157976303E+03  0.17957789763E+03  0.12500000000E+03 0.  0.
         25    1    1    2    0    0  0.62194243056E+02 -0.57210474653E+02  0.27242008661E+02  0.15332413155E+03  0.12500000000E+03 0.  0.
</event>
<event>
 5    0  0.5561624E-005  0.2947704E+03  0.7546771E-02  0.1087884E+00
         21   -1    0    0  502  501  0.00000000000E+00  0.00000000000E+00  0.30377959913E+03  0.30377959913E+03  0.00000000000E+00 0. -1.
         21   -1    0    0  501  502 -0.00000000000E+00 -0.00000000000E+00 -0.28602831739E+03  0.28602831739E+03  0.00000000000E+00 0. -1.
         25    1    1    2    0    0 -0.11429840226E+03  0.36312969763E+02  0.76698447873E+02  0.18944764036E+03  0.12500000000E+03 0.  0.
         25    1    1    2    0    0  0.12789351835E+03 -0.90710350896E+02  0.69832281388E+02  0.21233621292E+03  0.12500000000E+03 0.  0.
         25    1    1    2    0    0 -0.13595116091E+02  0.54397381133E+02 -0.12877944752E+03  0.18802406324E+03  0.12500000000E+03 0.  0.
</event>
<event>
 5    0  0.5561624E-005  0.2540820E+03  0.7546771E-02  0.1110752E+00
         21   -1    0    0  502  501  0.00000000000E+00  0.00000000000E+00  0.64184307975E+03  0.64184307975E+03  0.00000000000E+00 0.  1.
         21   -1    0    0  501  502 -0.00000000000E+00 -0.00000000000E+00 -0.10058167609E+03  0.10058167609E+03  0.00000000000E+00 0.  1.
         25    1    1    2    0    0  0.10968791432E+03 -0.15453708387E+02  0.10328381503E+03  0.19637413806E+03  0.12500000000E+03 0.  0.
         25    1    1    2    0    0 -0.13916767861E+03  0.48971799176E+02  0.26186081635E+03  0.32551799800E+03  0.12500000000E+03 0.  0.
         25    1    1    2    0    0  0.29479764290E+02 -0.33518090789E+02  0.17611677228E+03  0.22053261979E+03  0.12500000000E+03 0.  0.
</event>
<event>
 5    0  0.5561624E-005  0.2989440E+03  0.7546771E-02  0.1085770E+00
         21   -1    0    0  502  501  0.00000000000E+00  0.00000000000E+00  0.94628512967E+02  0.94628512967E+02  0.00000000000E+00 0. -1.
         21   -1    0    0  501  502 -0.00000000000E+00 -0.00000000000E+00 -0.94440384596E+03  0.94440384596E+03  0.00000000000E+00 0. -1.
         25    1    1    2    0    0  0.20431881075E+02  0.72498046142E+02 -0.42358295995E+03  0.44801891971E+03  0.12500000000E+03 0.  0.
         25    1    1    2    0    0  0.44097633311E+02 -0.15844544984E+03 -0.35651678612E+03  0.41204220733E+03  0.12500000000E+03 0.  0.
         25    1    1    2    0    0 -0.64529514386E+02  0.85947403696E+02 -0.69675586925E+02  0.17897123188E+03  0.12500000000E+03 0.  0.
</event>
<event>
 5    0  0.5561624E-005  0.2476851E+03  0.7546771E-02  0.1114777E+00
         21   -1    0    0  502  501  0.00000000000E+00  0.00000000000E+00  0.10128637537E+03  0.10128637537E+03  0.00000000000E+00 0.  1.
         21   -1    0    0  501  502 -0.00000000000E+00 -0.00000000000E+00 -0.60568759413E+03  0.60568759413E+03  0.00000000000E+00 0.  1.
         25    1    1    2    0    0  0.34847467953E+02 -0.13663795524E+03 -0.15000240251E+03  0.24085264705E+03  0.12500000000E+03 0.  0.
         25    1    1    2    0    0 -0.18852270326E+02  0.63147157780E+02 -0.10086760521E+03  0.17361522230E+03  0.12500000000E+03 0.  0.
         25    1    1    2    0    0 -0.15995197626E+02  0.73490797456E+02 -0.25353121104E+03  0.29250610016E+03  0.12500000000E+03 0.  0.
</event>
<event>
 5    0  0.5957924E-005  0.3051176E+03  0.7546771E-02  0.1082710E+00
         21   -1    0    0  502  501  0.00000000000E+00  0.00000000000E+00  0.25443840978E+03  0.25443840978E+03  0.00000000000E+00 0.  1.
         21   -1    0    0  501  502 -0.00000000000E+00 -0.00000000000E+00 -0.36589121079E+03  0.36589121079E+03  0.00000000000E+00 0.  1.
         25    1    1    2    0    0  0.11605794532E+03  0.18437598819E+03  0.46009015607E+01  0.25121727645E+03  0.12500000000E+03 0.  0.
         25    1    1    2    0    0 -0.18193691517E+02 -0.13218728528E+03 -0.51338828139E+02  0.18990830439E+03  0.12500000000E+03 0.  0.
         25    1    1    2    0    0 -0.97864253806E+02 -0.52188702911E+02 -0.64714874427E+02  0.17920403973E+03  0.12500000000E+03 0.  0.
</event>
<event>
 5    0  0.5561624E-005  0.2494265E+03  0.7546771E-02  0.1113668E+00
         21   -1    0    0  502  501  0.00000000000E+00  0.00000000000E+00  0.48276038574E+03  0.48276038574E+03  0.00000000000E+00 0. -1.
         21   -1    0    0  501  502 -0.00000000000E+00 -0.00000000000E+00 -0.12887051587E+03  0.12887051587E+03  0.00000000000E+00 0. -1.
         25    1    1    2    0    0  0.39850684611E+02 -0.57603280436E+02  0.59160924998E+02  0.15502009556E+03  0.12500000000E+03 0.  0.
         25    1    1    2    0    0 -0.93816314732E+02  0.12013167876E+03  0.19022709277E+03  0.27394245377E+03  0.12500000000E+03 0.  0.
         25    1    1    2    0    0  0.53965630120E+02 -0.62528398328E+02  0.10450185211E+03  0.18266835228E+03  0.12500000000E+03 0.  0.
</event>
<event>
 5    0  0.5561624E-005  0.3512814E+03  0.7546771E-02  0.1062090E+00
         21   -1    0    0  502  501  0.00000000000E+00  0.00000000000E+00  0.99418004084E+03  0.99418004084E+03  0.00000000000E+00 0. -1.
         21   -1    0    0  501  502 -0.00000000000E+00 -0.00000000000E+00 -0.12412103535E+03  0.12412103535E+03  0.00000000000E+00 0. -1.
         25    1    1    2    0    0 -0.40454182552E+02  0.96863382734E+02  0.28283876394E+03  0.32656059497E+03  0.12500000000E+03 0.  0.
         25    1    1    2    0    0  0.24341470127E+03  0.30289627433E+00  0.29937431277E+03  0.40558696686E+03  0.12500000000E+03 0.  0.
         25    1    1    2    0    0 -0.20296051872E+03 -0.97166279009E+02  0.28784592878E+03  0.38615351436E+03  0.12500000000E+03 0.  0.
</event>
<event>
 5    0  0.5561624E-005  0.2486151E+03  0.7546771E-02  0.1114183E+00
         21   -1    0    0  502  501  0.00000000000E+00  0.00000000000E+00  0.94746487661E+02  0.94746487661E+02  0.00000000000E+00 0.  1.
         21   -1    0    0  501  502 -0.00000000000E+00 -0.00000000000E+00 -0.65236669092E+03  0.65236669092E+03  0.00000000000E+00 0.  1.
         25    1    1    2    0    0 -0.11991217835E+03  0.33184544563E+02 -0.24857396044E+03  0.30478542997E+03  0.12500000000E+03 0.  0.
         25    1    1    2    0    0  0.31569328380E+02 -0.79846911149E+02 -0.18880282371E+03  0.24216452662E+03  0.12500000000E+03 0.  0.
         25    1    1    2    0    0  0.88342849972E+02  0.46662366586E+02 -0.12024341911E+03  0.20016322199E+03  0.12500000000E+03 0.  0.
</event>
<event>
 5    0  0.6579341E-005  0.4308291E+03  0.7546771E-02  0.1033598E+00
         21   -1    0    0  502  501  0.00000000000E+00  0.00000000000E+00  0.17447986989E+03  0.17447986989E+03  0.00000000000E+00 0. -1.
         21   -1    0    0  501  502 -0.00000000000E+00 -0.00000000000E+00 -0.10638117262E+04  0.10638117262E+04  0.00000000000E+00 0. -1.
         25    1    1    2    0    0  0.24999617056E+03 -0.52606700881E+02 -0.31271411051E+03  0.42270635811E+03  0.12500000000E+03 0.  0.
         25    1    1    2    0    0 -0.67349458743E+02  0.71482679794E+02  0.36813891866E+02  0.16317470925E+03  0.12500000000E+03 0.  0.
         25    1    1    2    0    0 -0.18264671182E+03 -0.18875978913E+02 -0.61343163764E+03  0.65241052871E+03  0.12500000000E+03 0.  0.
</event>
<event>
 5    0  0.5561624E-005  0.3891329E+03  0.7546771E-02  0.1047609E+00
         21   -1    0    0  502  501  0.00000000000E+00  0.00000000000E+00  0.86257463910E+02  0.86257463910E+02  0.00000000000E+00 0.  1.
         21   -1    0    0  501  502 -0.00000000000E+00 -0.00000000000E+00 -0.17554934203E+04  0.17554934203E+04  0.00000000000E+00 0.  1.
         25    1    1    2    0    0  0.16615796296E+03 -0.12197209542E+03 -0.67561222674E+03  0.71733014828E+03  0.12500000000E+03 0.  0.
         25    1    1    2    0    0 -0.28725465232E+03  0.80782763995E+02 -0.78842915961E+03  0.85222451852E+03  0.12500000000E+03 0.  0.
         25    1    1    2    0    0  0.12109668936E+03  0.41189331421E+02 -0.20519457002E+03  0.27219621739E+03  0.12500000000E+03 0.  0.
</event>
<event>
 5    0  0.5561624E-005  0.2704710E+03  0.7546771E-02  0.1101010E+00
         21   -1    0    0  502  501  0.00000000000E+00  0.00000000000E+00  0.17291103643E+03  0.17291103643E+03  0.00000000000E+00 0. -1.
         21   -1    0    0  501  502 -0.00000000000E+00 -0.00000000000E+00 -0.42307630130E+03  0.42307630130E+03  0.00000000000E+00 0. -1.
         25    1    1    2    0    0  0.51620350708E+01 -0.10630002412E+02 -0.53108021335E+02  0.13632720010E+03  0.12500000000E+03 0.  0.
         25    1    1    2    0    0  0.16488600592E+02 -0.58717784321E+02  0.70204369493E+02  0.15579892696E+03  0.12500000000E+03 0.  0.
         25    1    1    2    0    0 -0.21650635663E+02  0.69347786734E+02 -0.26726161303E+03  0.30386121067E+03  0.12500000000E+03 0.  0.
</event>
<event>
 5    0  0.5561624E-005  0.2489298E+03  0.7546771E-02  0.1113983E+00
         21   -1    0    0  502  501  0.00000000000E+00  0.00000000000E+00  0.19080959781E+04  0.19080959781E+04  0.00000000000E+00 0.  1.
         21   -1    0    0  501  502 -0.00000000000E+00 -0.00000000000E+00 -0.32475334849E+02  0.32475334849E+02  0.00000000000E+00 0.  1.
         25    1    1    2    0    0 -0.50497431449E+01  0.21806028199E+02  0.37198024454E+03  0.39305890793E+03  0.12500000000E+03 0.  0.
         25    1    1    2    0    0 -0.11893863055E+03  0.12290908095E+02  0.94787247028E+03  0.96352720988E+03  0.12500000000E+03 0.  0.
         25    1    1    2    0    0  0.12398837369E+03 -0.34096936293E+02  0.55576792841E+03  0.58398519512E+03  0.12500000000E+03 0.  0.
</event>
<event>
 5    0  0.5561624E-005  0.2727705E+03  0.7546771E-02  0.1099704E+00
         21   -1    0    0  502  501  0.00000000000E+00  0.00000000000E+00  0.76788711427E+02  0.76788711427E+02  0.00000000000E+00 0.  1.
         21   -1    0    0  501  502 -0.00000000000E+00 -0.00000000000E+00 -0.96894152586E+03  0.96894152586E+03  0.00000000000E+00 0.  1.
         25    1    1    2    0    0 -0.30109314885E+02 -0.12385838475E+03 -0.37126043024E+03  0.41195482444E+03  0.12500000000E+03 0.  0.
         25    1    1    2    0    0  0.12404019302E+03  0.84228505160E+02 -0.23482686464E+03  0.30536710190E+03  0.12500000000E+03 0.  0.
         25    1    1    2    0    0 -0.93930878136E+02  0.39629879587E+02 -0.28606551955E+03  0.32840831095E+03  0.12500000000E+03 0.  0.
</event>
<event>
 5    0  0.5561624E-005  0.3480174E+03  0.7546771E-02  0.1063432E+00
         21   -1    0    0  502  501  0.00000000000E+00  0.00000000000E+00  0.33048547771E+03  0.33048547771E+03  0.00000000000E+00 0. -1.
         21   -1    0    0  501  502 -0.00000000000E+00 -0.00000000000E+00 -0.36647940035E+03  0.36647940035E+03  0.00000000000E+00 0. -1.
         25    1    1    2    0    0  0.70673218937E+02  0.78619012036E+02 -0.98560946872E+02  0.19108875733E+03  0.12500000000E+03 0.  0.
         25    1    1    2    0    0 -0.63118435439E+02 -0.14858005318E+03  0.21504524860E+03  0.29652896661E+03  0.12500000000E+03 0.  0.
         25    1    1    2    0    0 -0.75547834979E+01  0.69961041141E+02 -0.15247822437E+03  0.20934715412E+03  0.12500000000E+03 0.  0.
</event>
<event>
 5    0  0.5561624E-005  0.3511193E+03  0.7546771E-02  0.1062157E+00
         21   -1    0    0  502  501  0.00000000000E+00  0.00000000000E+00  0.64597958173E+02  0.64597958173E+02  0.00000000000E+00 0.  1.
         21   -1    0    0  501  502 -0.00000000000E+00 -0.00000000000E+00 -0.19084929834E+04  0.19084929834E+04  0.00000000000E+00 0.  1.
         25    1    1    2    0    0  0.18056824857E+03  0.25091194573E+02 -0.68725743327E+03  0.72192952566E+03  0.12500000000E+03 0.  0.
         25    1    1    2    0    0 -0.14311105306E+01 -0.52780847125E+02 -0.91877123859E+02  0.16387273046E+03  0.12500000000E+03 0.  0.
         25    1    1    2    0    0 -0.17913713804E+03  0.27689652552E+02 -0.10647604681E+04  0.10872886854E+04  0.12500000000E+03 0.  0.
</event>
<event>
 5    0  0.5561624E-005  0.2833802E+03  0.7546771E-02  0.1093857E+00
         21   -1    0    0  502  501  0.00000000000E+00  0.00000000000E+00  0.11281583716E+03  0.11281583716E+03  0.00000000000E+00 0.  1.
         21   -1    0    0  501  502 -0.00000000000E+00 -0.00000000000E+00 -0.71181817857E+03  0.71181817857E+03  0.00000000000E+00 0.  1.
         25    1    1    2    0    0 -0.16684122669E+02  0.40556898009E+02 -0.23583075796E+02  0.13455253022E+03  0.12500000000E+03 0.  0.
         25    1    1    2    0    0  0.68459181693E+02  0.24937171213E+02 -0.66145512319E+02  0.15908724294E+03  0.12500000000E+03 0.  0.
         25    1    1    2    0    0 -0.51775059024E+02 -0.65494069222E+02 -0.50927375330E+03  0.53099424257E+03  0.12500000000E+03 0.  0.
</event>
<event>
 5    0  0.5561624E-005  0.5970396E+03  0.7546771E-02  0.9911567E-01
         21   -1    0    0  502  501  0.00000000000E+00  0.00000000000E+00  0.70377556911E+03  0.70377556911E+03  0.00000000000E+00 0. -1.
         21   -1    0    0  501  502 -0.00000000000E+00 -0.00000000000E+00 -0.50649148197E+03  0.50649148197E+03  0.00000000000E+00 0. -1.
         25    1    1    2    0    0 -0.32893986238E+03  0.10682073136E+03 -0.26285065640E+03  0.45202607146E+03  0.12500000000E+03 0.  0.
         25    1    1    2    0    0  0.11982645735E+03  0.16119457848E+03  0.14032732715E+03  0.27506150359E+03  0.12500000000E+03 0.  0.
         25    1    1    2    0    0  0.20911340503E+03 -0.26801530984E+03  0.31980741639E+03  0.48317947602E+03  0.12500000000E+03 0.  0.
</event>
<event>
 5    0  0.5561624E-005  0.2739616E+03  0.7546771E-02  0.1099033E+00
         21   -1    0    0  502  501  0.00000000000E+00  0.00000000000E+00  0.70047527554E+03  0.70047527554E+03  0.00000000000E+00 0. -1.
         21   -1    0    0  501  502 -0.00000000000E+00 -0.00000000000E+00 -0.10714859115E+03  0.10714859115E+03  0.00000000000E+00 0. -1.
         25    1    1    2    0    0 -0.11141715276E+03  0.50688564901E+02  0.41586055219E+03  0.45116306521E+03  0.12500000000E+03 0.  0.
         25    1    1    2    0    0 -0.10699632282E+02 -0.21166582146E+02  0.44086338637E+02  0.13465181612E+03  0.12500000000E+03 0.  0.
         25    1    1    2    0    0  0.12211678504E+03 -0.29521982754E+02  0.13337979356E+03  0.22180898536E+03  0.12500000000E+03 0.  0.
</event>
<event>
 5    0  0.5561624E-005  0.3997943E+03  0.7546771E-02  0.1043851E+00
         21   -1    0    0  502  501  0.00000000000E+00  0.00000000000E+00  0.57668528055E+02  0.57668528055E+02  0.00000000000E+00 0.  1.
         21   -1    0    0  501  502 -0.00000000000E+00 -0.00000000000E+00 -0.27716239022E+04  0.27716239022E+04  0.00000000000E+00 0.  1.
         25    1    1    2    0    0  0.26383872254E+03 -0.89374744382E+02 -0.90754112650E+03  0.95752525436E+03  0.12500000000E+03 0.  0.
         25    1    1    2    0    0 -0.14468545794E+01 -0.84138418572E+02 -0.61588819482E+03  0.63405412654E+03  0.12500000000E+03 0.  0.
         25    1    1    2    0    0 -0.26239186796E+03  0.17351316295E+03 -0.11905260528E+04  0.12377130493E+04  0.12500000000E+03 0.  0.
</event>
<event>
 5    0  0.5561624E-005  0.3203391E+03  0.7546771E-02  0.1075493E+00
         21   -1    0    0  502  501  0.00000000000E+00  0.00000000000E+00  0.91611132193E+03  0.91611132193E+03  0.00000000000E+00 0. -1.
         21   -1    0    0  501  502 -0.00000000000E+00 -0.00000000000E+00 -0.11201382175E+03  0.11201382175E+03  0.00000000000E+00 0. -1.
         25    1    1    2    0    0  0.18869918843E+03 -0.14158124935E+03  0.33664381119E+03  0.42965880591E+03  0.12500000000E+03 0.  0.
         25    1    1    2    0    0 -0.17482844840E+02  0.15980632838E+02  0.15383599322E+03  0.19962851324E+03  0.12500000000E+03 0.  0.
         25    1    1    2    0    0 -0.17121634359E+03  0.12560061651E+03  0.31361769577E+03  0.39883782454E+03  0.12500000000E+03 0.  0.
</event>
<event>
 5    0  0.5561624E-005  0.4489058E+03  0.7546771E-02  0.1028049E+00
         21   -1    0    0  502  501  0.00000000000E+00  0.00000000000E+00  0.16765164482E+03  0.16765164482E+03  0.00000000000E+00 0. -1.
         21   -1    0    0  501  502 -0.00000000000E+00 -0.00000000000E+00 -0.12019950016E+04  0.12019950016E+04  0.00000000000E+00 0. -1.
         25    1    1    2    0    0 -0.75611075275E+01  0.85767613790E+02  0.20417223562E+02  0.15315063480E+03  0.12500000000E+03 0.  0.
         25    1    1    2    0    0 -0.14069798551E+03  0.15696367333E+03 -0.23376080973E+03  0.33867777317E+03  0.12500000000E+03 0.  0.
         25    1    1    2    0    0  0.14825909303E+03 -0.24273128712E+03 -0.82099977058E+03  0.87781823842E+03  0.12500000000E+03 0.  0.
</event>
<event>
 5    0  0.5561624E-005  0.2733307E+03  0.7546771E-02  0.1099388E+00
         21   -1    0    0  502  501  0.00000000000E+00  0.00000000000E+00  0.32910181786E+02  0.32910181786E+02  0.00000000000E+00 0. -1.
         21   -1    0    0  501  502 -0.00000000000E+00 -0.00000000000E+00 -0.22701086865E+04  0.22701086865E+04  0.00000000000E+00 0. -1.
         25    1    1    2    0    0  0.19994382128E+02  0.27077641441E+02 -0.11004319942E+04  0.11080201027E+04  0.12500000000E+03 0.  0.
         25    1    1    2    0    0 -0.13883345210E+03 -0.31969574024E+02 -0.48325229333E+03  0.51909012714E+03  0.12500000000E+03 0.  0.
         25    1    1    2    0    0  0.11883906997E+03  0.48919325832E+01 -0.65351421716E+03  0.67590863849E+03  0.12500000000E+03 0.  0.
</event>
<event>
 5    0  0.5561624E-005  0.4547827E+03  0.7546771E-02  0.1026305E+00
         21   -1    0    0  502  501  0.00000000000E+00  0.00000000000E+00  0.26691319442E+03  0.26691319442E+03  0.00000000000E+00 0.  1.
         21   -1    0    0  501  502 -0.00000000000E+00 -0.00000000000E+00 -0.77488596659E+03  0.77488596659E+03  0.00000000000E+00 0.  1.
         25    1    1    2    0    0  0.20184616242E+03 -0.22685886033E+02 -0.15101391806E+03  0.28228837411E+03  0.12500000000E+03 0.  0.
         25    1    1    2    0    0 -0.11375571643E+03  0.26945275033E+03 -0.34457711181E+03  0.46893873125E+03  0.12500000000E+03 0.  0.
         25    1    1    2    0    0 -0.88090445995E+02 -0.24676686429E+03 -0.12381742301E+02  0.29057205566E+03  0.12500000000E+03 0.  0.
</event>
<event>
 5    0  0.5561624E-005  0.2829594E+03  0.7546771E-02  0.1094083E+00
         21   -1    0    0  502  501  0.00000000000E+00  0.00000000000E+00  0.20030957983E+04  0.20030957983E+04  0.00000000000E+00 0. -1.
         21   -1    0    0  501  502 -0.00000000000E+00 -0.00000000000E+00 -0.39971143574E+02  0.39971143574E+02  0.00000000000E+00 0. -1.
         25    1    1    2    0    0  0.30701651060E+02 -0.46032982559E+02  0.41493833231E+03  0.43687577924E+03  0.12500000000E+03 0.  0.
         25    1    1    2    0    0  0.12842058190E+03  0.28105854965E+02  0.38745468618E+03  0.42781762327E+03  0.12500000000E+03 0.  0.
         25    1    1    2    0    0 -0.15912223296E+03  0.17927127594E+02  0.11607316363E+04  0.11783735394E+04  0.12500000000E+03 0.  0.
</event>
<event>
 5    0  0.5561624E-005  0.3035821E+03  0.7546771E-02  0.1083464E+00
         21   -1    0    0  502  501  0.00000000000E+00  0.00000000000E+00  0.18015701685E+03  0.18015701685E+03  0.00000000000E+00 0. -1.
         21   -1    0    0  501  502 -0.00000000000E+00 -0.00000000000E+00 -0.51156532464E+03  0.51156532464E+03  0.00000000000E+00 0. -1.
         25    1    1    2    0    0  0.22221444052E+03  0.30899611011E+02 -0.12692575242E+03  0.28647720706E+03  0.12500000000E+03 0.  0.
         25    1    1    2    0    0 -0.14572092440E+03  0.10576392209E+02 -0.14861343017E+03  0.24301728232E+03  0.12500000000E+03 0.  0.
         25    1    1    2    0    0 -0.76493516121E+02 -0.41476003220E+02 -0.55869125203E+02  0.16222785212E+03  0.12500000000E+03 0.  0.
</event>
<event>
 5    0  0.5561624E-005  0.4826102E+03  0.7546771E-02  0.1018420E+00
         21   -1    0    0  502  501  0.00000000000E+00  0.00000000000E+00  0.46595874744E+03  0.46595874744E+03  0.00000000000E+00 0. -1.
         21   -1    0    0  501  502 -0.00000000000E+00 -0.00000000000E+00 -0.49985671576E+03  0.49985671576E+03  0.00000000000E+00 0. -1.
         25    1    1    2    0    0  0.14395296871E+02  0.13357028001E+03  0.36057262253E+03  0.40458109248E+03  0.12500000000E+03 0.  0.
         25    1    1    2    0    0 -0.10047827740E+02 -0.50628213499E+02 -0.38813774218E+03  0.41102321315E+03  0.12500000000E+03 0.  0.
         25    1    1    2    0    0 -0.43474691305E+01 -0.82942066509E+02 -0.63328486672E+01  0.15021115756E+03  0.12500000000E+03 0.  0.
</event>
<event>
 5    0  0.5561624E-005  0.2408430E+03  0.7546771E-02  0.1119233E+00
         21   -1    0    0  502  501  0.00000000000E+00  0.00000000000E+00  0.23409242301E+03  0.23409242301E+03  0.00000000000E+00 0. -1.
         21   -1    0    0  501  502 -0.00000000000E+00 -0.00000000000E+00 -0.24778817532E+03  0.24778817532E+03  0.00000000000E+00 0. -1.
         25    1    1    2    0    0  0.46915307197E+02  0.14518887088E+02  0.63951626753E+02  0.14875030990E+03  0.12500000000E+03 0.  0.
         25    1    1    2    0    0  0.30375517684E+02  0.50431587216E+02 -0.10047356891E+03  0.17083897422E+03  0.12500000000E+03 0.  0.
         25    1    1    2    0    0 -0.77290824881E+02 -0.64950474304E+02  0.22826189840E+02  0.16229131420E+03  0.12500000000E+03 0.  0.
</event>
<event>
 5    0  0.5561624E-005  0.3730267E+03  0.7546771E-02  0.1053542E+00
         21   -1    0    0  502  501  0.00000000000E+00  0.00000000000E+00  0.47505687337E+03  0.47505687337E+03  0.00000000000E+00 0. -1.
         21   -1    0    0  501  502 -0.00000000000E+00 -0.00000000000E+00 -0.29291002709E+03  0.29291002709E+03  0.00000000000E+00 0. -1.
         25    1    1    2    0    0 -0.15739243489E+03 -0.20942501859E+03  0.85697028453E+02  0.30265524555E+03  0.12500000000E+03 0.  0.
         25    1    1    2    0    0  0.12377189713E+03  0.24215307905E+02  0.15073706591E+03  0.23292171796E+03  0.12500000000E+03 0.  0.
         25    1    1    2    0    0  0.33620537764E+02  0.18520971069E+03 -0.54287248091E+02  0.23238993696E+03  0.12500000000E+03 0.  0.
</event>
<event>
 5    0  0.5561624E-005  0.2985240E+03  0.7546771E-02  0.1085981E+00
         21   -1    0    0  502  501  0.00000000000E+00  0.00000000000E+00  0.43480210072E+03  0.43480210072E+03  0.00000000000E+00 0. -1.
         21   -1    0    0  501  502 -0.00000000000E+00 -0.00000000000E+00 -0.20495893511E+03  0.20495893511E+03  0.00000000000E+00 0. -1.
         25    1    1    2    0    0 -0.44568692798E+02  0.12977889617E+03  0.92223202948E+02  0.20726564942E+03  0.12500000000E+03 0.  0.
         25    1    1    2    0    0  0.14247989833E+03 -0.61451868811E+02  0.16345112459E+03  0.25771713901E+03  0.12500000000E+03 0.  0.
         25    1    1    2    0    0 -0.97911205535E+02 -0.68327027359E+02 -0.25831161926E+02  0.17477824740E+03  0.12500000000E+03 0.  0.
</event>
<event>
 5    0  0.5561624E-005  0.2623718E+03  0.7546771E-02  0.1105727E+00
         21   -1    0    0  502  501  0.00000000000E+00  0.00000000000E+00  0.42329720088E+02  0.42329720088E+02  0.00000000000E+00 0.  1.
         21   -1    0    0  501  502 -0.00000000000E+00 -0.00000000000E+00 -0.16262554195E+04  0.16262554195E+04  0.00000000000E+00 0.  1.
         25    1    1    2    0    0  0.41187026332E+02  0.18918288916E+02 -0.18501081122E+03  0.22783387163E+03  0.12500000000E+03 0.  0.
         25    1    1    2    0    0  0.40688221726E+02 -0.48067480652E+02 -0.10601356456E+04  0.10693355887E+04  0.12500000000E+03 0.  0.
         25    1    1    2    0    0 -0.81875248058E+02  0.29149191737E+02 -0.33877924258E+03  0.37141567929E+03  0.12500000000E+03 0.  0.
</event>
<event>
 5    0  0.5561624E-005  0.4189684E+03  0.7546771E-02  0.1037403E+00
         21   -1    0    0  502  501  0.00000000000E+00  0.00000000000E+00  0.83172439211E+03  0.83172439211E+03  0.00000000000E+00 0.  1.
         21   -1    0    0  501  502 -0.00000000000E+00 -0.00000000000E+00 -0.21104890224E+03  0.21104890224E+03  0.00000000000E+00 0.  1.
         25    1    1    2    0    0  0.20408924817E+02 -0.18532352256E+02 -0.72719324925E+02  0.14721777240E+03  0.12500000000E+03 0.  0.
         25    1    1    2    0    0 -0.67485212481E+02  0.19235876294E+03  0.93316548146E+02  0.25668877214E+03  0.12500000000E+03 0.  0.
         25    1    1    2    0    0  0.47076287664E+02 -0.17382641068E+03  0.60007826665E+03  0.63886674981E+03  0.12500000000E+03 0.  0.
</event>
<event>
 5    0  0.5561624E-005  0.2099680E+03  0.7546771E-02  0.1141591E+00
         21   -1    0    0  502  501  0.00000000000E+00  0.00000000000E+00  0.11853830597E+03  0.11853830597E+03  0.00000000000E+00 0.  1.
         21   -1    0    0  501  502 -0.00000000000E+00 -0.00000000000E+00 -0.37191811893E+03  0.37191811893E+03  0.00000000000E+00 0.  1.
         25    1    1    2    0    0 -0.29993283110E+02 -0.37873465964E+02 -0.81435801768E+02  0.15681449635E+03  0.12500000000E+03 0.  0.
         25    1    1    2    0    0  0.75972788482E+01 -0.46349111225E+02 -0.81669772973E+02  0.15652766712E+03  0.12500000000E+03 0.  0.
         25    1    1    2    0    0  0.22396004262E+02  0.84222577189E+02 -0.90274238223E+02  0.17711426143E+03  0.12500000000E+03 0.  0.
</event>
<event>
 5    0  0.5561624E-005  0.2737560E+03  0.7546771E-02  0.1099149E+00
         21   -1    0    0  502  501  0.00000000000E+00  0.00000000000E+00  0.88629733251E+02  0.88629733251E+02  0.00000000000E+00 0. -1.
         21   -1    0    0  501  502 -0.00000000000E+00 -0.00000000000E+00 -0.84556647239E+03  0.84556647239E+03  0.00000000000E+00 0. -1.
         25    1    1    2    0    0 -0.90795506090E+02 -0.84623392715E+02 -0.36370962271E+03  0.40412205108E+03  0.12500000000E+03 0.  0.
         25    1    1    2    0    0 -0.22991809888E+02  0.10168835761E+03 -0.28629152799E+03  0.32932808018E+03  0.12500000000E+03 0.  0.
         25    1    1    2    0    0  0.11378731598E+03 -0.17064964894E+02 -0.10693558844E+03  0.20074607438E+03  0.12500000000E+03 0.  0.
</event>
<event>
 5    0  0.5561624E-005  0.4439362E+03  0.7546771E-02  0.1029546E+00
         21   -1    0    0  502  501  0.00000000000E+00  0.00000000000E+00  0.19002050729E+03  0.19002050729E+03  0.00000000000E+00 0. -1.
         21   -1    0    0  501  502 -0.00000000000E+00 -0.00000000000E+00 -0.10371477347E+04  0.10371477347E+04  0.00000000000E+00 0. -1.
         25    1    1    2    0    0 -0.18988219113E+03  0.32590494927E+02 -0.18953336485E+03  0.29776716283E+03  0.12500000000E+03 0.  0.
         25    1    1    2    0    0  0.28277728203E+03  0.52692016548E+02 -0.77952139993E+02  0.32317329093E+03  0.12500000000E+03 0.  0.
         25    1    1    2    0    0 -0.92895090899E+02 -0.85282511476E+02 -0.57964172255E+03  0.60622778821E+03  0.12500000000E+03 0.  0.
</event>
<event>
 5    0  0.5561624E-005  0.3039317E+03  0.7546771E-02  0.1083292E+00
         21   -1    0    0  502  501  0.00000000000E+00  0.00000000000E+00  0.22957141175E+03  0.22957141175E+03  0.00000000000E+00 0.  1.
         21   -1    0    0  501  502 -0.00000000000E+00 -0.00000000000E+00 -0.40237798726E+03  0.40237798726E+03  0.00000000000E+00 0.  1.
         25    1    1    2    0    0  0.95495189526E+02 -0.96435768003E+02  0.20340251119E+02  0.18562843098E+03  0.12500000000E+03 0.  0.
         25    1    1    2    0    0 -0.59450444790E+02 -0.27190504372E+02 -0.22351381363E+03  0.26430494471E+03  0.12500000000E+03 0.  0.
         25    1    1    2    0    0 -0.36044744736E+02  0.12362627238E+03  0.30366986999E+02  0.18201602332E+03  0.12500000000E+03 0.  0.
</event>
<event>
 5    0  0.6253057E-005  0.4115475E+03  0.7546771E-02  0.1039853E+00
         21   -1    0    0  502  501  0.00000000000E+00  0.00000000000E+00  0.32106728285E+03  0.32106728285E+03  0.00000000000E+00 0.  1.
         21   -1    0    0  501  502 -0.00000000000E+00 -0.00000000000E+00 -0.52752604272E+03  0.52752604272E+03  0.00000000000E+00 0.  1.
         25    1    1    2    0    0  0.10430979474E+03 -0.21846374111E+03 -0.49779724455E+02  0.27696563040E+03  0.12500000000E+03 0.  0.
         25    1    1    2    0    0 -0.14757411878E+03  0.40749697291E+02 -0.26048098893E+03  0.32697706946E+03  0.12500000000E+03 0.  0.
         25    1    1    2    0    0  0.43264324039E+02  0.17771404382E+03  0.10380195351E+03  0.24465062570E+03  0.12500000000E+03 0.  0.
</event>
<event>
 5    0  0.5561624E-005  0.2802449E+03  0.7546771E-02  0.1095555E+00
         21   -1    0    0  502  501  0.00000000000E+00  0.00000000000E+00  0.49629281800E+03  0.49629281800E+03  0.00000000000E+00 0.  1.
         21   -1    0    0  501  502 -0.00000000000E+00 -0.00000000000E+00 -0.15824770125E+03  0.15824770125E+03  0.00000000000E+00 0.  1.
         25    1    1    2    0    0  0.13125235011E+03  0.26261257265E+02  0.27943645062E+02  0.18526381283E+03  0.12500000000E+03 0.  0.
         25    1    1    2    0    0 -0.10270310382E+02  0.19072536126E+01  0.25576028710E+03  0.28486389970E+03  0.12500000000E+03 0.  0.
         25    1    1    2    0    0 -0.12098203973E+03 -0.28168510878E+02  0.54341184588E+02  0.18441280673E+03  0.12500000000E+03 0.  0.
</event>
<event>
 5    0  0.5561624E-005  0.3448583E+03  0.7546771E-02  0.1064745E+00
         21   -1    0    0  502  501  0.00000000000E+00  0.00000000000E+00  0.80610802055E+02  0.80610802055E+02  0.00000000000E+00 0. -1.
         21   -1    0    0  501  502 -0.00000000000E+00 -0.00000000000E+00 -0.14753262220E+04  0.14753262220E+04  0.00000000000E+00 0. -1.
         25    1    1    2    0    0 -0.12970917906E+02 -0.15370344568E+03 -0.17211916447E+03  0.26276034842E+03  0.12500000000E+03 0.  0.
         25    1    1    2    0    0  0.15152592323E+03  0.39543614663E+02 -0.51803804675E+03  0.55543876418E+03  0.12500000000E+03 0.  0.
         25    1    1    2    0    0 -0.13855500532E+03  0.11415983101E+03 -0.70455820869E+03  0.73773791142E+03  0.12500000000E+03 0.  0.
</event>
<event>
 5    0  0.5561624E-005  0.2511632E+03  0.7546771E-02  0.1112572E+00
         21   -1    0    0  502  501  0.00000000000E+00  0.00000000000E+00  0.12345030225E+04  0.12345030225E+04  0.00000000000E+00 0.  1.
         21   -1    0    0  501  502 -0.00000000000E+00 -0.00000000000E+00 -0.51099897205E+02  0.51099897205E+02  0.00000000000E+00 0.  1.
         25    1    1    2    0    0 -0.21772643511E+02  0.22890090386E+02  0.28672787434E+03  0.31438173956E+03  0.12500000000E+03 0.  0.
         25    1    1    2    0    0 -0.11463487046E+03 -0.58778543134E+02  0.51835967792E+03  0.54855977464E+03  0.12500000000E+03 0.  0.
         25    1    1    2    0    0  0.13640751398E+03  0.35888452748E+02  0.37831557308E+03  0.42266140555E+03  0.12500000000E+03 0.  0.
</event>
<event>
 5    0  0.5561624E-005  0.2295338E+03  0.7546771E-02  0.1126968E+00
         21   -1    0    0  502  501  0.00000000000E+00  0.00000000000E+00  0.64024884758E+03  0.64024884758E+03  0.00000000000E+00 0.  1.
         21   -1    0    0  501  502 -0.00000000000E+00 -0.00000000000E+00 -0.82289541957E+02  0.82289541957E+02  0.00000000000E+00 0.  1.
         25    1    1    2    0    0  0.36287390053E+02 -0.19315631999E+02  0.47345271220E+02  0.13984435285E+03  0.12500000000E+03 0.  0.
         25    1    1    2    0    0  0.61955727043E+01 -0.44783923168E+02  0.21776379114E+03  0.25512752424E+03  0.12500000000E+03 0.  0.
         25    1    1    2    0    0 -0.42482962758E+02  0.64099555167E+02  0.29285024327E+03  0.32756651245E+03  0.12500000000E+03 0.  0.
</event>
<event>
 5    0  0.5561624E-005  0.4456356E+03  0.7546771E-02  0.1029032E+00
         21   -1    0    0  502  501  0.00000000000E+00  0.00000000000E+00  0.44484644127E+03  0.44484644127E+03  0.00000000000E+00 0. -1.
         21   -1    0    0  501  502 -0.00000000000E+00 -0.00000000000E+00 -0.44642622941E+03  0.44642622941E+03  0.00000000000E+00 0. -1.
         25    1    1    2    0    0 -0.25130265025E+03 -0.17267068986E+03  0.22317873547E+03  0.39799740844E+03  0.12500000000E+03 0.  0.
         25    1    1    2    0    0  0.17783111960E+03  0.14958206015E+02 -0.69503507112E+02  0.22869934964E+03  0.12500000000E+03 0.  0.
         25    1    1    2    0    0  0.73471530649E+02  0.15771248385E+03 -0.15525501651E+03  0.26457591260E+03  0.12500000000E+03 0.  0.
</event>
<event>
 5    0  0.5561624E-005  0.2639815E+03  0.7546771E-02  0.1104774E+00
         21   -1    0    0  502  501  0.00000000000E+00  0.00000000000E+00  0.40545871280E+03  0.40545871280E+03  0.00000000000E+00 0. -1.
         21   -1    0    0  501  502 -0.00000000000E+00 -0.00000000000E+00 -0.17187008616E+03  0.17187008616E+03  0.00000000000E+00 0.  1.
         25    1    1    2    0    0 -0.48766579811E+02  0.35482472639E+02  0.89807813564E+02  0.16531070307E+03  0.12500000000E+03 0.  0.
         25    1    1    2    0    0  0.21565749864E+02  0.10735916114E+03  0.14457043020E+03  0.22026502295E+03  0.12500000000E+03 0.  0.
         25    1    1    2    0    0  0.27200829947E+02 -0.14284163378E+03 -0.78961711924E+00  0.19175307295E+03  0.12500000000E+03 0.  0.
</event>
<event>
 5    0  0.6577739E-005  0.3078165E+03  0.7546771E-02  0.1081397E+00
         21   -1    0    0  502  501  0.00000000000E+00  0.00000000000E+00  0.28090764845E+03  0.28090764845E+03  0.00000000000E+00 0. -1.
         21   -1    0    0  501  502 -0.00000000000E+00 -0.00000000000E+00 -0.33730294216E+03  0.33730294216E+03  0.00000000000E+00 0. -1.
         25    1    1    2    0    0  0.42408185091E+02 -0.83326504313E+02  0.96036744630E+02  0.18327524875E+03  0.12500000000E+03 0.  0.
         25    1    1    2    0    0 -0.64135974318E+02  0.15036238461E+03  0.24378028349E+02  0.20722344986E+03  0.12500000000E+03 0.  0.
         25    1    1    2    0    0  0.21727789226E+02 -0.67035880298E+02 -0.17681006670E+03  0.22771189200E+03  0.12500000000E+03 0.  0.
</event>
<event>
 5    0  0.5561624E-005  0.3300154E+03  0.7546771E-02  0.1071130E+00
         21   -1    0    0  502  501  0.00000000000E+00  0.00000000000E+00  0.16268664205E+03  0.16268664205E+03  0.00000000000E+00 0.  1.
         21   -1    0    0  501  502 -0.00000000000E+00 -0.00000000000E+00 -0.66944734901E+03  0.66944734901E+03  0.00000000000E+00 0.  1.
         25    1    1    2    0    0  0.35244775821E+02  0.10995783065E+03 -0.24198977675E+03  0.29583267364E+03  0.12500000000E+03 0.  0.
         25    1    1    2    0    0  0.16535509136E+03 -0.70679983983E+02 -0.77906184433E+02  0.23244857485E+03  0.12500000000E+03 0.  0.
         25    1    1    2    0    0 -0.20059986718E+03 -0.39277846670E+02 -0.18686474579E+03  0.30385274257E+03  0.12500000000E+03 0.  0.
</event>
<event>
 5    0  0.5561624E-005  0.2654792E+03  0.7546771E-02  0.1103895E+00
         21   -1    0    0  502  501  0.00000000000E+00  0.00000000000E+00  0.48953557442E+03  0.48953557442E+03  0.00000000000E+00 0.  1.
         21   -1    0    0  501  502 -0.00000000000E+00 -0.00000000000E+00 -0.14397156896E+03  0.14397156896E+03  0.00000000000E+00 0.  1.
         25    1    1    2    0    0 -0.20741267623E+02  0.83543632419E+02  0.24142358277E+03  0.28516676703E+03  0.12500000000E+03 0.  0.
         25    1    1    2    0    0  0.35766390814E+01  0.38636996003E+02  0.11238212864E+03  0.17251189132E+03  0.12500000000E+03 0.  0.
         25    1    1    2    0    0  0.17164628541E+02 -0.12218062842E+03 -0.82417059498E+01  0.17582848504E+03  0.12500000000E+03 0.  0.
</event>
<event>
 5    0  0.5561624E-005  0.2100638E+03  0.7546771E-02  0.1141516E+00
         21   -1    0    0  502  501  0.00000000000E+00  0.00000000000E+00  0.16370934704E+04  0.16370934704E+04  0.00000000000E+00 0. -1.
         21   -1    0    0  501  502 -0.00000000000E+00 -0.00000000000E+00 -0.26954346527E+02  0.26954346527E+02  0.00000000000E+00 0. -1.
         25    1    1    2    0    0  0.68913481211E+02 -0.58216398374E+01  0.77524284212E+03  0.78829526426E+03  0.12500000000E+03 0.  0.
         25    1    1    2    0    0 -0.38036327513E+02  0.19905767832E+02  0.48372803042E+03  0.50145868147E+03  0.12500000000E+03 0.  0.
         25    1    1    2    0    0 -0.30877153698E+02 -0.14084127995E+02  0.35116825135E+03  0.37429387123E+03  0.12500000000E+03 0.  0.
</event>
<event>
 5    0  0.5561624E-005  0.3057828E+03  0.7546771E-02  0.1082385E+00
         21   -1    0    0  502  501  0.00000000000E+00  0.00000000000E+00  0.35414929222E+03  0.35414929222E+03  0.00000000000E+00 0.  1.
         21   -1    0    0  501  502 -0.00000000000E+00 -0.00000000000E+00 -0.26402177027E+03  0.26402177027E+03  0.00000000000E+00 0.  1.
         25    1    1    2    0    0 -0.10877105437E+03  0.10762711315E-01 -0.15621262470E+03  0.22772467258E+03  0.12500000000E+03 0.  0.
         25    1    1    2    0    0  0.64526261733E+02  0.27659926076E+02  0.49839248657E+02  0.15178162165E+03  0.12500000000E+03 0.  0.
         25    1    1    2    0    0  0.44244792635E+02 -0.27670688787E+02  0.19650089800E+03  0.23866476826E+03  0.12500000000E+03 0.  0.
</event>
<event>
 5    0  0.5561624E-005  0.3914202E+03  0.7546771E-02  0.1046792E+00
         21   -1    0    0  502  501  0.00000000000E+00  0.00000000000E+00  0.13454860848E+03  0.13454860848E+03  0.00000000000E+00 0.  1.
         21   -1    0    0  501  502 -0.00000000000E+00 -0.00000000000E+00 -0.11386943615E+04  0.11386943615E+04  0.00000000000E+00 0.  1.
         25    1    1    2    0    0 -0.18318378956E+03  0.18438761686E+03 -0.18266502322E+03  0.34138922759E+03  0.12500000000E+03 0.  0.
         25    1    1    2    0    0  0.95114358311E+02 -0.22566781168E+03 -0.59534445464E+03  0.65576880228E+03  0.12500000000E+03 0.  0.
         25    1    1    2    0    0  0.88069431245E+02  0.41280194820E+02 -0.22613627513E+03  0.27608494007E+03  0.12500000000E+03 0.  0.
</event>
<event>
 5    0  0.5561624E-005  0.3643355E+03  0.7546771E-02  0.1056880E+00
         21   -1    0    0  502  501  0.00000000000E+00  0.00000000000E+00  0.26980174721E+03  0.26980174721E+03  0.00000000000E+00 0. -1.
         21   -1    0    0  501  502 -0.00000000000E+00 -0.00000000000E+00 -0.49199214550E+03  0.49199214550E+03  0.00000000000E+00 0. -1.
         25    1    1    2    0    0  0.66945390862E+02  0.16196990932E+03 -0.65025128917E+02  0.22487597532E+03  0.12500000000E+03 0.  0.
         25    1    1    2    0    0  0.11362283978E+03 -0.20048042137E+03  0.33572755022E+01  0.26218089246E+03  0.12500000000E+03 0.  0.
         25    1    1    2    0    0 -0.18056823064E+03  0.38510512051E+02 -0.16052254488E+03  0.27473702494E+03  0.12500000000E+03 0.  0.
</event>
<event>
 5    0  0.5561624E-005  0.5186742E+03  0.7546771E-02  0.1009016E+00
         21   -1    0    0  502  501  0.00000000000E+00  0.00000000000E+00  0.37259044472E+03  0.37259044472E+03  0.00000000000E+00 0.  1.
         21   -1    0    0  501  502 -0.00000000000E+00 -0.00000000000E+00 -0.72203393599E+03  0.72203393599E+03  0.00000000000E+00 0.  1.
         25    1    1    2    0    0 -0.18212106355E+03 -0.21261227663E+03 -0.49513637005E+03  0.58237194894E+03  0.12500000000E+03 0.  0.
         25    1    1    2    0    0  0.17538772576E+03  0.92535835841E+02  0.22190667411E+03  0.32278678299E+03  0.12500000000E+03 0.  0.
         25    1    1    2    0    0  0.67333377992E+01  0.12007644078E+03 -0.76213795330E+02  0.18946564878E+03  0.12500000000E+03 0.  0.
</event>
<event>
 5    0  0.5846669E-005  0.6531350E+03  0.7546771E-02  0.9800914E-01
         21   -1    0    0  502  501  0.00000000000E+00  0.00000000000E+00  0.59751537343E+03  0.59751537343E+03  0.00000000000E+00 0. -1.
         21   -1    0    0  501  502 -0.00000000000E+00 -0.00000000000E+00 -0.71393194824E+03  0.71393194824E+03  0.00000000000E+00 0. -1.
         25    1    1    2    0    0  0.22799436326E+02  0.49634259606E+03 -0.18640722407E+03  0.54520495243E+03  0.12500000000E+03 0.  0.
         25    1    1    2    0    0 -0.23454816334E+03 -0.33823458766E+03 -0.80209182347E+02  0.43757741046E+03  0.12500000000E+03 0.  0.
         25    1    1    2    0    0  0.21174872702E+03 -0.15810800841E+03  0.15019983162E+03  0.32866495879E+03  0.12500000000E+03 0.  0.
</event>
<event>
 5    0  0.5561624E-005  0.3070301E+03  0.7546771E-02  0.1081778E+00
         21   -1    0    0  502  501  0.00000000000E+00  0.00000000000E+00  0.33641224074E+02  0.33641224074E+02  0.00000000000E+00 0. -1.
         21   -1    0    0  501  502 -0.00000000000E+00 -0.00000000000E+00 -0.28021414783E+04  0.28021414783E+04  0.00000000000E+00 0. -1.
         25    1    1    2    0    0 -0.73037371701E+02 -0.59553529726E+02 -0.32692171014E+03  0.36246915058E+03  0.12500000000E+03 0.  0.
         25    1    1    2    0    0  0.13570002601E+03 -0.36411209289E+02 -0.74850212284E+03  0.77176466693E+03  0.12500000000E+03 0.  0.
         25    1    1    2    0    0 -0.62662654311E+02  0.95964739015E+02 -0.16930764212E+04  0.17015488848E+04  0.12500000000E+03 0.  0.
</event>
<event>
 5    0  0.5563048E-005  0.3273724E+03  0.7546771E-02  0.1072305E+00
         21   -1    0    0  502  501  0.00000000000E+00  0.00000000000E+00  0.57922313602E+03  0.57922313602E+03  0.00000000000E+00 0.  1.
         21   -1    0    0  501  502 -0.00000000000E+00 -0.00000000000E+00 -0.18502828807E+03  0.18502828807E+03  0.00000000000E+00 0.  1.
         25    1    1    2    0    0  0.22246597089E+03 -0.98598521425E+02  0.97154830562E+02  0.29030473253E+03  0.12500000000E+03 0.  0.
         25    1    1    2    0    0 -0.12627278274E+03  0.13411935337E+02  0.88510485799E+02  0.19895678366E+03  0.12500000000E+03 0.  0.
         25    1    1    2    0    0 -0.96193188148E+02  0.85186586088E+02  0.20852953159E+03  0.27498990789E+03  0.12500000000E+03 0.  0.
</event>
<event>
 5    0  0.5561624E-005  0.2423190E+03  0.7546771E-02  0.1118258E+00
         21   -1    0    0  502  501  0.00000000000E+00  0.00000000000E+00  0.11131365975E+04  0.11131365975E+04  0.00000000000E+00 0.  1.
         21   -1    0    0  501  502 -0.00000000000E+00 -0.00000000000E+00 -0.52750500645E+02  0.52750500645E+02  0.00000000000E+00 0.  1.
         25    1    1    2    0    0  0.64885281037E+02  0.71880528035E+02  0.29812062563E+03  0.33745787505E+03  0.12500000000E+03 0.  0.
         25    1    1    2    0    0 -0.22955926806E+02 -0.28352311625E+02  0.14137940900E+03  0.19220813052E+03  0.12500000000E+03 0.  0.
         25    1    1    2    0    0 -0.41929354232E+02 -0.43528216410E+02  0.62088606224E+03  0.63622109259E+03  0.12500000000E+03 0.  0.
</event>
<event>
 5    0  0.5561624E-005  0.3555720E+03  0.7546771E-02  0.1060351E+00
         21   -1    0    0  502  501  0.00000000000E+00  0.00000000000E+00  0.33801263858E+03  0.33801263858E+03  0.00000000000E+00 0.  1.
         21   -1    0    0  501  502 -0.00000000000E+00 -0.00000000000E+00 -0.37404354133E+03  0.37404354133E+03  0.00000000000E+00 0.  1.
         25    1    1    2    0    0 -0.26540247993E+03  0.60628562025E+02 -0.67903834115E+02  0.30716482477E+03  0.12500000000E+03 0.  0.
         25    1    1    2    0    0  0.14471474113E+03  0.41707313552E+02  0.51225129682E+02  0.20231379146E+03  0.12500000000E+03 0.  0.
         25    1    1    2    0    0  0.12068773880E+03 -0.10233587558E+03 -0.19352198318E+02  0.20257756368E+03  0.12500000000E+03 0.  0.
</event>
<event>
 5    0  0.5561624E-005  0.3036573E+03  0.7546771E-02  0.1083427E+00
         21   -1    0    0  502  501  0.00000000000E+00  0.00000000000E+00  0.25527992141E+03  0.25527992141E+03  0.00000000000E+00 0. -1.
         21   -1    0    0  501  502 -0.00000000000E+00 -0.00000000000E+00 -0.36120259238E+03  0.36120259238E+03  0.00000000000E+00 0. -1.
         25    1    1    2    0    0 -0.11812386509E+03  0.11892001801E+03  0.11145902048E+03  0.23694584072E+03  0.12500000000E+03 0.  0.
         25    1    1    2    0    0  0.27974672745E+02 -0.27177411968E+02 -0.10539569166E+03  0.16809058825E+03  0.12500000000E+03 0.  0.
         25    1    1    2    0    0  0.90149192345E+02 -0.91742606039E+02 -0.11198599979E+03  0.21144608483E+03  0.12500000000E+03 0.  0.
</event>
<event>
 5    0  0.5561624E-005  0.2789019E+03  0.7546771E-02  0.1096290E+00
         21   -1    0    0  502  501  0.00000000000E+00  0.00000000000E+00  0.62055019783E+02  0.62055019783E+02  0.00000000000E+00 0.  1.
         21   -1    0    0  501  502 -0.00000000000E+00 -0.00000000000E+00 -0.12535047413E+04  0.12535047413E+04  0.00000000000E+00 0.  1.
         25    1    1    2    0    0  0.77376381028E+02 -0.74375858069E+02 -0.10708722869E+03  0.19649821158E+03  0.12500000000E+03 0.  0.
         25    1    1    2    0    0 -0.38898049463E+02  0.14573004266E+02 -0.47165863534E+03  0.48970633955E+03  0.12500000000E+03 0.  0.
         25    1    1    2    0    0 -0.38478331565E+02  0.59802853804E+02 -0.61270385753E+03  0.62935521000E+03  0.12500000000E+03 0.  0.
</event>
<event>
 5    0  0.5561624E-005  0.3488921E+03  0.7546771E-02  0.1063071E+00
         21   -1    0    0  502  501  0.00000000000E+00  0.00000000000E+00  0.44388369491E+02  0.44388369491E+02  0.00000000000E+00 0. -1.
         21   -1    0    0  501  502 -0.00000000000E+00 -0.00000000000E+00 -0.27422878155E+04  0.27422878155E+04  0.00000000000E+00 0. -1.
         25    1    1    2    0    0  0.17039769221E+03  0.34888308484E+02 -0.70200015452E+03  0.73394944276E+03  0.12500000000E+03 0.  0.
         25    1    1    2    0    0 -0.25509722171E+02  0.34413779102E+02 -0.16190473652E+04  0.16244304925E+04  0.12500000000E+03 0.  0.
         25    1    1    2    0    0 -0.14488797004E+03 -0.69302087587E+02 -0.37685192625E+03  0.42829624972E+03  0.12500000000E+03 0.  0.
</event>
<event>
 5    0  0.5561624E-005  0.4559973E+03  0.7546771E-02  0.1025949E+00
         21   -1    0    0  502  501  0.00000000000E+00  0.00000000000E+00  0.10986565699E+04  0.10986565699E+04  0.00000000000E+00 0.  1.
         21   -1    0    0  501  502 -0.00000000000E+00 -0.00000000000E+00 -0.18926160777E+03  0.18926160777E+03  0.00000000000E+00 0.  1.
         25    1    1    2    0    0  0.31724940573E+03 -0.19030910010E+03  0.33166261329E+03  0.51233761142E+03  0.12500000000E+03 0.  0.
         25    1    1    2    0    0 -0.14825481461E+03  0.19451933800E+02  0.83589022511E+02  0.21206129413E+03  0.12500000000E+03 0.  0.
         25    1    1    2    0    0 -0.16899459112E+03  0.17085716630E+03  0.49414332634E+03  0.56351927213E+03  0.12500000000E+03 0.  0.
</event>
<event>
 5    0  0.5561624E-005  0.3033577E+03  0.7546771E-02  0.1083574E+00
         21   -1    0    0  502  501  0.00000000000E+00  0.00000000000E+00  0.10245594744E+04  0.10245594744E+04  0.00000000000E+00 0. -1.
         21   -1    0    0  501  502 -0.00000000000E+00 -0.00000000000E+00 -0.89819961314E+02  0.89819961314E+02  0.00000000000E+00 0. -1.
         25    1    1    2    0    0  0.73041559026E+02 -0.30552206356E+02  0.11866401216E+03  0.18966985643E+03  0.12500000000E+03 0.  0.
         25    1    1    2    0    0 -0.18304295368E+03  0.11074364846E+03  0.51354213693E+03  0.57019242801E+03  0.12500000000E+03 0.  0.
         25    1    1    2    0    0  0.11000139465E+03 -0.80191442108E+02  0.30253336404E+03  0.35451715131E+03  0.12500000000E+03 0.  0.
</event>
<event>
 5    0  0.5561624E-005  0.4095873E+03  0.7546771E-02  0.1040510E+00
         21   -1    0    0  502  501  0.00000000000E+00  0.00000000000E+00  0.10973113441E+04  0.10973113441E+04  0.00000000000E+00 0.  1.
         21   -1    0    0  501  502 -0.00000000000E+00 -0.00000000000E+00 -0.15288435208E+03  0.15288435208E+03  0.00000000000E+00 0.  1.
         25    1    1    2    0    0 -0.11275902448E+03  0.10363917660E+03  0.62441318810E+03  0.65495992702E+03  0.12500000000E+03 0.  0.
         25    1    1    2    0    0 -0.10920465016E+03  0.80167647611E+02  0.85340209671E+02  0.20312670609E+03  0.12500000000E+03 0.  0.
         25    1    1    2    0    0  0.22196367464E+03 -0.18380682421E+03  0.23467359421E+03  0.39210906302E+03  0.12500000000E+03 0.  0.
</event>
<event>
 5    0  0.5561624E-005  0.3295634E+03  0.7546771E-02  0.1071330E+00
         21   -1    0    0  502  501  0.00000000000E+00  0.00000000000E+00  0.35309139549E+03  0.35309139549E+03  0.00000000000E+00 0. -1.
         21   -1    0    0  501  502 -0.00000000000E+00 -0.00000000000E+00 -0.30760313040E+03  0.30760313040E+03  0.00000000000E+00 0. -1.
         25    1    1    2    0    0 -0.68260287864E+02 -0.53040654986E+02  0.16937891500E+03  0.22756756101E+03  0.12500000000E+03 0.  0.
         25    1    1    2    0    0  0.54499761412E+02 -0.53659195972E+02 -0.20287630546E+03  0.25026651518E+03  0.12500000000E+03 0.  0.
         25    1    1    2    0    0  0.13760526452E+02  0.10669985096E+03  0.78985655551E+02  0.18286044970E+03  0.12500000000E+03 0.  0.
</event>
<event>
 5    0  0.5561624E-005  0.2627445E+03  0.7546771E-02  0.1105505E+00
         21   -1    0    0  502  501  0.00000000000E+00  0.00000000000E+00  0.69023936904E+03  0.69023936904E+03  0.00000000000E+00 0.  1.
         21   -1    0    0  501  502 -0.00000000000E+00 -0.00000000000E+00 -0.10001557567E+03  0.10001557567E+03  0.00000000000E+00 0.  1.
         25    1    1    2    0    0  0.67258669648E+02 -0.11864059980E+03  0.23612124004E+03  0.29996259861E+03  0.12500000000E+03 0.  0.
         25    1    1    2    0    0  0.45572357247E+02  0.23680186247E+02  0.20768597513E+03  0.24778227385E+03  0.12500000000E+03 0.  0.
         25    1    1    2    0    0 -0.11283102689E+03  0.94960413549E+02  0.14641657819E+03  0.24251007225E+03  0.12500000000E+03 0.  0.
</event>
<event>
 5    0  0.5561624E-005  0.3962938E+03  0.7546771E-02  0.1045071E+00
         21   -1    0    0  502  501  0.00000000000E+00  0.00000000000E+00  0.36984479144E+03  0.36984479144E+03  0.00000000000E+00 0.  1.
         21   -1    0    0  501  502 -0.00000000000E+00 -0.00000000000E+00 -0.42463434658E+03  0.42463434658E+03  0.00000000000E+00 0.  1.
         25    1    1    2    0    0  0.12768832066E+03 -0.18148116823E+03 -0.74791186303E+02  0.26544009344E+03  0.12500000000E+03 0.  0.
         25    1    1    2    0    0  0.68360360423E+02 -0.89372207382E+02 -0.21995895521E+02  0.16961529928E+03  0.12500000000E+03 0.  0.
         25    1    1    2    0    0 -0.19604868108E+03  0.27085337562E+03  0.41997526686E+02  0.35942374530E+03  0.12500000000E+03 0.  0.
</event>
<event>
 5    0  0.5561624E-005  0.2021688E+03  0.7546771E-02  0.1147922E+00
         21   -1    0    0  502  501  0.00000000000E+00  0.00000000000E+00  0.20835195833E+03  0.20835195833E+03  0.00000000000E+00 0. -1.
         21   -1    0    0  501  502 -0.00000000000E+00 -0.00000000000E+00 -0.19616908536E+03  0.19616908536E+03  0.00000000000E+00 0. -1.
         25    1    1    2    0    0  0.24158281367E+02 -0.36927475743E+01 -0.72246753762E+01  0.12757137170E+03  0.12500000000E+03 0.  0.
         25    1    1    2    0    0 -0.65428702882E+02  0.21120787108E+02  0.20722763018E+02  0.14415767658E+03  0.12500000000E+03 0.  0.
         25    1    1    2    0    0  0.41270421514E+02 -0.17428039534E+02 -0.13152146719E+01  0.13279199540E+03  0.12500000000E+03 0.  0.
</event>
<event>
 5    0  0.5561624E-005  0.2853842E+03  0.7546771E-02  0.1092784E+00
         21   -1    0    0  502  501  0.00000000000E+00  0.00000000000E+00  0.28139126535E+04  0.28139126535E+04  0.00000000000E+00 0.  1.
         21   -1    0    0  501  502 -0.00000000000E+00 -0.00000000000E+00 -0.28943376134E+02  0.28943376134E+02  0.00000000000E+00 0.  1.
         25    1    1    2    0    0  0.62036953849E+02 -0.67482383906E+02  0.17002147014E+04  0.17072660855E+04  0.12500000000E+03 0.  0.
         25    1    1    2    0    0  0.98408767348E+01 -0.22610245366E+02  0.74336251415E+03  0.75420215691E+03  0.12500000000E+03 0.  0.
         25    1    1    2    0    0 -0.71877830584E+02  0.90092629272E+02  0.34139206175E+03  0.38138778717E+03  0.12500000000E+03 0.  0.
</event>
<event>
 5    0  0.5561624E-005  0.4122911E+03  0.7546771E-02  0.1039605E+00
         21   -1    0    0  502  501  0.00000000000E+00  0.00000000000E+00  0.42878696507E+03  0.42878696507E+03  0.00000000000E+00 0. -1.
         21   -1    0    0  501  502 -0.00000000000E+00 -0.00000000000E+00 -0.39642982037E+03  0.39642982037E+03  0.00000000000E+00 0.  1.
         25    1    1    2    0    0  0.27107261330E+02 -0.11346447650E+03 -0.58392989307E+02  0.18067576551E+03  0.12500000000E+03 0.  0.
         25    1    1    2    0    0 -0.24151899563E+03 -0.39676983236E+02  0.19264158603E+03  0.33562101978E+03  0.12500000000E+03 0.  0.
         25    1    1    2    0    0  0.21441173430E+03  0.15314145973E+03 -0.10189145203E+03  0.30892000015E+03  0.12500000000E+03 0.  0.
</event>
<event>
 5    0  0.5561624E-005  0.3244588E+03  0.7546771E-02  0.1073615E+00
         21   -1    0    0  502  501  0.00000000000E+00  0.00000000000E+00  0.32143316671E+03  0.32143316671E+03  0.00000000000E+00 0.  1.
         21   -1    0    0  501  502 -0.00000000000E+00 -0.00000000000E+00 -0.32751295066E+03  0.32751295066E+03  0.00000000000E+00 0.  1.
         25    1    1    2    0    0 -0.78756174238E+02  0.52218763541E+02  0.15051229010E+03  0.21727467344E+03  0.12500000000E+03 0.  0.
         25    1    1    2    0    0  0.13967270731E+03  0.63506789374E+02 -0.15396571690E+03  0.25074293498E+03  0.12500000000E+03 0.  0.
         25    1    1    2    0    0 -0.60916533073E+02 -0.11572555292E+03 -0.26263571475E+01  0.18092850895E+03  0.12500000000E+03 0.  0.
</event>
<event>
 5    0  0.5561624E-005  0.2478483E+03  0.7546771E-02  0.1114672E+00
         21   -1    0    0  502  501  0.00000000000E+00  0.00000000000E+00  0.54024930687E+03  0.54024930687E+03  0.00000000000E+00 0.  1.
         21   -1    0    0  501  502 -0.00000000000E+00 -0.00000000000E+00 -0.11370448788E+03  0.11370448788E+03  0.00000000000E+00 0.  1.
         25    1    1    2    0    0  0.86073145179E+01  0.44347248585E+02  0.12359418849E+02  0.13348602756E+03  0.12500000000E+03 0.  0.
         25    1    1    2    0    0 -0.80014679110E+02 -0.70196401477E+02  0.26356922974E+03  0.31052153310E+03  0.12500000000E+03 0.  0.
         25    1    1    2    0    0  0.71407364592E+02  0.25849152893E+02  0.15061617039E+03  0.20994623409E+03  0.12500000000E+03 0.  0.
</event>
<event>
 5    0  0.5561624E-005  0.2955384E+03  0.7546771E-02  0.1087492E+00
         21   -1    0    0  502  501  0.00000000000E+00  0.00000000000E+00  0.61019222648E+03  0.61019222648E+03  0.00000000000E+00 0. -1.
         21   -1    0    0  501  502 -0.00000000000E+00 -0.00000000000E+00 -0.14314008118E+03  0.14314008118E+03  0.00000000000E+00 0. -1.
         25    1    1    2    0    0  0.12388240406E+03  0.64762978406E+02  0.14910225457E+03  0.23957791160E+03  0.12500000000E+03 0.  0.
         25    1    1    2    0    0 -0.19473944525E+03 -0.37236464152E+02  0.27489596306E+03  0.36125170769E+03  0.12500000000E+03 0.  0.
         25    1    1    2    0    0  0.70857041199E+02 -0.27526514255E+02  0.43053927669E+02  0.15250268838E+03  0.12500000000E+03 0.  0.
</event>
<event>
 5    0  0.5561624E-005  0.2774640E+03  0.7546771E-02  0.1097082E+00
         21   -1    0    0  502  501  0.00000000000E+00  0.00000000000E+00  0.24950860531E+03  0.24950860531E+03  0.00000000000E+00 0.  1.
         21   -1    0    0  501  502 -0.00000000000E+00 -0.00000000000E+00 -0.30855166388E+03  0.30855166388E+03  0.00000000000E+00 0.  1.
         25    1    1    2    0    0 -0.18225587925E+02 -0.80431832336E+01  0.11793713194E+02  0.12712575082E+03  0.12500000000E+03 0.  0.
         25    1    1    2    0    0 -0.12466193294E+03  0.99592880126E+02 -0.84773033381E+02  0.21970618217E+03  0.12500000000E+03 0.  0.
         25    1    1    2    0    0  0.14288752087E+03 -0.91549696893E+02  0.13936261624E+02  0.21122833619E+03  0.12500000000E+03 0.  0.
</event>
<event>
 5    0  0.5561624E-005  0.3386741E+03  0.7546771E-02  0.1067362E+00
         21   -1    0    0  502  501  0.00000000000E+00  0.00000000000E+00  0.14812523001E+04  0.14812523001E+04  0.00000000000E+00 0. -1.
         21   -1    0    0  501  502 -0.00000000000E+00 -0.00000000000E+00 -0.77434581754E+02  0.77434581754E+02  0.00000000000E+00 0. -1.
         25    1    1    2    0    0 -0.18345140106E+03  0.81042929476E+02  0.36079501271E+03  0.43130083952E+03  0.12500000000E+03 0.  0.
         25    1    1    2    0    0  0.14415128273E+03 -0.56560648582E+02  0.23278227705E+03  0.30625363310E+03  0.12500000000E+03 0.  0.
         25    1    1    2    0    0  0.39300118334E+02 -0.24482280894E+02  0.81024042860E+03  0.82113240925E+03  0.12500000000E+03 0.  0.
</event>
<event>
 5    0  0.5561624E-005  0.3219420E+03  0.7546771E-02  0.1074759E+00
         21   -1    0    0  502  501  0.00000000000E+00  0.00000000000E+00  0.11445079273E+03  0.11445079273E+03  0.00000000000E+00 0. -1.
         21   -1    0    0  501  502 -0.00000000000E+00 -0.00000000000E+00 -0.90560006282E+03  0.90560006282E+03  0.00000000000E+00 0. -1.
         25    1    1    2    0    0 -0.68079019775E+02  0.29952866305E+02 -0.55146884507E+03  0.57032868964E+03  0.12500000000E+03 0.  0.
         25    1    1    2    0    0  0.44326831247E+02 -0.13362671475E+03 -0.21156332473E+03  0.28320488561E+03  0.12500000000E+03 0.  0.
         25    1    1    2    0    0  0.23752188528E+02  0.10367384845E+03 -0.28117100282E+02  0.16651728030E+03  0.12500000000E+03 0.  0.
</event>
<event>
 5    0  0.5561624E-005  0.2701232E+03  0.7546771E-02  0.1101209E+00
         21   -1    0    0  502  501  0.00000000000E+00  0.00000000000E+00  0.86739176982E+03  0.86739176982E+03  0.00000000000E+00 0. -1.
         21   -1    0    0  501  502 -0.00000000000E+00 -0.00000000000E+00 -0.84121804990E+02  0.84121804990E+02  0.00000000000E+00 0. -1.
         25    1    1    2    0    0 -0.12991259893E+03  0.89997952007E+02  0.29736803882E+03  0.35920699497E+03  0.12500000000E+03 0.  0.
         25    1    1    2    0    0  0.23635557781E+02 -0.44305973945E+00  0.31224661246E+03  0.33716729214E+03  0.12500000000E+03 0.  0.
         25    1    1    2    0    0  0.10627704115E+03 -0.89554892268E+02  0.17365531355E+03  0.25513928770E+03  0.12500000000E+03 0.  0.
</event>
<event>
 5    0  0.6304368E-005  0.2845791E+03  0.7546771E-02  0.1093214E+00
         21   -1    0    0  502  501  0.00000000000E+00  0.00000000000E+00  0.34210538765E+03  0.34210538765E+03  0.00000000000E+00 0.  1.
         21   -1    0    0  501  502 -0.00000000000E+00 -0.00000000000E+00 -0.23672602366E+03  0.23672602366E+03  0.00000000000E+00 0.  1.
         25    1    1    2    0    0  0.12657870481E+03 -0.12278300351E+03 -0.14815796820E+02  0.21666181551E+03  0.12500000000E+03 0.  0.
         25    1    1    2    0    0 -0.27147874517E+02  0.68411690857E+02  0.12772675254E+03  0.19327775312E+03  0.12500000000E+03 0.  0.
         25    1    1    2    0    0 -0.99430830297E+02  0.54371312652E+02 -0.75315917305E+01  0.16889184269E+03  0.12500000000E+03 0.  0.
</event>
<event>
 5    0  0.5561624E-005  0.2840699E+03  0.7546771E-02  0.1093487E+00
         21   -1    0    0  502  501  0.00000000000E+00  0.00000000000E+00  0.37646982313E+03  0.37646982313E+03  0.00000000000E+00 0. -1.
         21   -1    0    0  501  502 -0.00000000000E+00 -0.00000000000E+00 -0.21434836588E+03  0.21434836588E+03  0.00000000000E+00 0. -1.
         25    1    1    2    0    0  0.10365453960E+03  0.86422230483E+02 -0.10150088099E+02  0.18423107715E+03  0.12500000000E+03 0.  0.
         25    1    1    2    0    0  0.44767779520E+02  0.31471516589E+02  0.33575509971E+02  0.14052375354E+03  0.12500000000E+03 0.  0.
         25    1    1    2    0    0 -0.14842231912E+03 -0.11789374707E+03  0.13869603538E+03  0.26606335832E+03  0.12500000000E+03 0.  0.
</event>
<event>
 5    0  0.5561624E-005  0.6138065E+03  0.7546771E-02  0.9877169E-01
         21   -1    0    0  502  501  0.00000000000E+00  0.00000000000E+00  0.11359270881E+04  0.11359270881E+04  0.00000000000E+00 0.  1.
         21   -1    0    0  501  502 -0.00000000000E+00 -0.00000000000E+00 -0.33167479343E+03  0.33167479343E+03  0.00000000000E+00 0.  1.
         25    1    1    2    0    0 -0.81621042288E+02  0.23678205871E+03  0.45842506120E+03  0.53712780100E+03  0.12500000000E+03 0.  0.
         25    1    1    2    0    0 -0.30661647531E+02  0.14685741315E+03  0.45715001492E+03  0.49711002058E+03  0.12500000000E+03 0.  0.
         25    1    1    2    0    0  0.11228268982E+03 -0.38363947186E+03 -0.11132278143E+03  0.43336405996E+03  0.12500000000E+03 0.  0.
</event>
<event>
 5    0  0.5561624E-005  0.3346545E+03  0.7546771E-02  0.1069096E+00
         21   -1    0    0  502  501  0.00000000000E+00  0.00000000000E+00  0.50795168319E+02  0.50795168319E+02  0.00000000000E+00 0. -1.
         21   -1    0    0  501  502 -0.00000000000E+00 -0.00000000000E+00 -0.22048089458E+04  0.22048089458E+04  0.00000000000E+00 0. -1.
         25    1    1    2    0    0  0.58895390384E+02 -0.10633596545E+03 -0.29802382429E+03  0.34528134094E+03  0.12500000000E+03 0.  0.
         25    1    1    2    0    0 -0.13785286440E+02  0.20357895062E+03 -0.64069087863E+03  0.68391828841E+03  0.12500000000E+03 0.  0.
         25    1    1    2    0    0 -0.45110103943E+02 -0.97242985167E+02 -0.12152990746E+04  0.12264044848E+04  0.12500000000E+03 0.  0.
</event>
<event>
 5    0  0.5561624E-005  0.2779387E+03  0.7546771E-02  0.1096820E+00
         21   -1    0    0  502  501  0.00000000000E+00  0.00000000000E+00  0.46376011593E+03  0.46376011593E+03  0.00000000000E+00 0. -1.
         21   -1    0    0  501  502 -0.00000000000E+00 -0.00000000000E+00 -0.16657298524E+03  0.16657298524E+03  0.00000000000E+00 0. -1.
         25    1    1    2    0    0  0.13865193944E+03 -0.59812559869E+02  0.38713107577E+02  0.19981393177E+03  0.12500000000E+03 0.  0.
         25    1    1    2    0    0  0.50670058791E+01  0.43297448204E+02  0.36020975267E+02  0.13719640749E+03  0.12500000000E+03 0.  0.
         25    1    1    2    0    0 -0.14371894532E+03  0.16515111665E+02  0.22245304785E+03  0.29332276191E+03  0.12500000000E+03 0.  0.
</event>
<event>
 5    0  0.5561624E-005  0.2715416E+03  0.7546771E-02  0.1100401E+00
         21   -1    0    0  502  501  0.00000000000E+00  0.00000000000E+00  0.12816389588E+04  0.12816389588E+04  0.00000000000E+00 0.  1.
         21   -1    0    0  501  502 -0.00000000000E+00 -0.00000000000E+00 -0.57531698389E+02  0.57531698389E+02  0.00000000000E+00 0.  1.
         25    1    1    2    0    0 -0.44138381938E+02  0.60132222256E+02  0.59051709197E+03  0.60819365075E+03  0.12500000000E+03 0.  0.
         25    1    1    2    0    0 -0.97737585135E+02 -0.12645047685E+02  0.20030447549E+03  0.25585037752E+03  0.12500000000E+03 0.  0.
         25    1    1    2    0    0  0.14187596707E+03 -0.47487174571E+02  0.43328569300E+03  0.47512662895E+03  0.12500000000E+03 0.  0.
</event>
<event>
 5    0  0.5662963E-005  0.3015478E+03  0.7546771E-02  0.1084469E+00
         21   -1    0    0  502  501  0.00000000000E+00  0.00000000000E+00  0.28977525625E+03  0.28977525625E+03  0.00000000000E+00 0.  1.
         21   -1    0    0  501  502 -0.00000000000E+00 -0.00000000000E+00 -0.31379871232E+03  0.31379871232E+03  0.00000000000E+00 0.  1.
         25    1    1    2    0    0  0.10009860699E+03  0.12684615010E+03  0.98560708042E+02  0.22682347781E+03  0.12500000000E+03 0.  0.
         25    1    1    2    0    0  0.27934779074E+02 -0.43875760825E+02 -0.11778996085E+03  0.17945726273E+03  0.12500000000E+03 0.  0.
         25    1    1    2    0    0 -0.12803338606E+03 -0.82970389276E+02 -0.47942032592E+01  0.19729322803E+03  0.12500000000E+03 0.  0.
</event>
<event>
 5    0  0.5561624E-005  0.2293794E+03  0.7546771E-02  0.1127077E+00
         21   -1    0    0  502  501  0.00000000000E+00  0.00000000000E+00  0.49944425612E+03  0.49944425612E+03  0.00000000000E+00 0.  1.
         21   -1    0    0  501  502 -0.00000000000E+00 -0.00000000000E+00 -0.10534691490E+03  0.10534691490E+03  0.00000000000E+00 0.  1.
         25    1    1    2    0    0  0.63190776253E+02  0.16051358495E+02  0.62596950791E+02  0.15425335835E+03  0.12500000000E+03 0.  0.
         25    1    1    2    0    0 -0.10949617238E+03 -0.25558577422E+01  0.14285438371E+03  0.21915364272E+03  0.12500000000E+03 0.  0.
         25    1    1    2    0    0  0.46305396130E+02 -0.13495500752E+02  0.18864600673E+03  0.23138416995E+03  0.12500000000E+03 0.  0.
</event>
<event>
 5    0  0.5561624E-005  0.3088371E+03  0.7546771E-02  0.1080905E+00
         21   -1    0    0  502  501  0.00000000000E+00  0.00000000000E+00  0.32176730156E+03  0.32176730156E+03  0.00000000000E+00 0. -1.
         21   -1    0    0  501  502 -0.00000000000E+00 -0.00000000000E+00 -0.29642644274E+03  0.29642644274E+03  0.00000000000E+00 0. -1.
         25    1    1    2    0    0 -0.12155209325E+03  0.17452989770E+03  0.23628752092E+02  0.24782839727E+03  0.12500000000E+03 0.  0.
         25    1    1    2    0    0  0.74409588532E+02 -0.83375506076E+02  0.85509394203E+02  0.18821561672E+03  0.12500000000E+03 0.  0.
         25    1    1    2    0    0  0.47142504720E+02 -0.91154391626E+02 -0.83797287476E+02  0.18214973031E+03  0.12500000000E+03 0.  0.
</event>
<event>
 5    0  0.5561624E-005  0.4651320E+03  0.7546771E-02  0.1023303E+00
         21   -1    0    0  502  501  0.00000000000E+00  0.00000000000E+00  0.15434276651E+03  0.15434276651E+03  0.00000000000E+00 0. -1.
         21   -1    0    0  501  502 -0.00000000000E+00 -0.00000000000E+00 -0.14017358510E+04  0.14017358510E+04  0.00000000000E+00 0. -1.
         25    1    1    2    0    0 -0.90144629061E+02 -0.32093513906E+01 -0.54997882170E+03  0.57117252945E+03  0.12500000000E+03 0.  0.
         25    1    1    2    0    0 -0.25080222655E+03  0.12246610635E+03 -0.38208849556E+03  0.48940404829E+03  0.12500000000E+03 0.  0.
         25    1    1    2    0    0  0.34094685561E+03 -0.11925675495E+03 -0.31532576727E+03  0.49550203981E+03  0.12500000000E+03 0.  0.
</event>
<event>
 5    0  0.5561624E-005  0.2804432E+03  0.7546771E-02  0.1095447E+00
         21   -1    0    0  502  501  0.00000000000E+00  0.00000000000E+00  0.29579247167E+03  0.29579247167E+03  0.00000000000E+00 0. -1.
         21   -1    0    0  501  502 -0.00000000000E+00 -0.00000000000E+00 -0.26589048102E+03  0.26589048102E+03  0.00000000000E+00 0. -1.
         25    1    1    2    0    0  0.25943393962E+02 -0.41510820105E+02  0.43478338393E+02  0.14110837603E+03  0.12500000000E+03 0.  0.
         25    1    1    2    0    0 -0.84040617840E+02  0.12790738259E+02  0.14433437413E+03  0.20900679412E+03  0.12500000000E+03 0.  0.
         25    1    1    2    0    0  0.58097223878E+02  0.28720081846E+02 -0.15791072188E+03  0.21156778254E+03  0.12500000000E+03 0.  0.
</event>
<event>
 5    0  0.5561624E-005  0.3497264E+03  0.7546771E-02  0.1062727E+00
         21   -1    0    0  502  501  0.00000000000E+00  0.00000000000E+00  0.25329455969E+03  0.25329455969E+03  0.00000000000E+00 0.  1.
         21   -1    0    0  501  502 -0.00000000000E+00 -0.00000000000E+00 -0.48287095834E+03  0.48287095834E+03  0.00000000000E+00 0.  1.
         25    1    1    2    0    0  0.12904927374E+03  0.11913019984E+03  0.27114555699E+02  0.21726923091E+03  0.12500000000E+03 0.  0.
         25    1    1    2    0    0  0.50367670731E+02 -0.80277919796E+02  0.26413429630E+02  0.15907267498E+03  0.12500000000E+03 0.  0.
         25    1    1    2    0    0 -0.17941694447E+03 -0.38852280049E+02 -0.28310438397E+03  0.35982361214E+03  0.12500000000E+03 0.  0.
</event>
<event>
 5    0  0.5561624E-005  0.3874223E+03  0.7546771E-02  0.1048224E+00
         21   -1    0    0  502  501  0.00000000000E+00  0.00000000000E+00  0.69209416649E+02  0.69209416649E+02  0.00000000000E+00 0. -1.
         21   -1    0    0  501  502 -0.00000000000E+00 -0.00000000000E+00 -0.21687226081E+04  0.21687226081E+04  0.00000000000E+00 0. -1.
         25    1    1    2    0    0  0.45314418798E+02  0.31203066143E+02 -0.73537068389E+02  0.15511198637E+03  0.12500000000E+03 0.  0.
         25    1    1    2    0    0 -0.22268949560E+03 -0.65149306086E+02 -0.11254143360E+04  0.11558622198E+04  0.12500000000E+03 0.  0.
         25    1    1    2    0    0  0.17737507680E+03  0.33946239943E+02 -0.90056178710E+03  0.92695781860E+03  0.12500000000E+03 0.  0.
</event>
<event>
 5    0  0.5561624E-005  0.3810683E+03  0.7546771E-02  0.1050540E+00
         21   -1    0    0  502  501  0.00000000000E+00  0.00000000000E+00  0.50583103806E+03  0.50583103806E+03  0.00000000000E+00 0. -1.
         21   -1    0    0  501  502 -0.00000000000E+00 -0.00000000000E+00 -0.28707821259E+03  0.28707821259E+03  0.00000000000E+00 0. -1.
         25    1    1    2    0    0  0.41066333013E+02  0.15259474090E+03  0.19158923601E+03  0.27803423172E+03  0.12500000000E+03 0.  0.
         25    1    1    2    0    0  0.15851934236E+03 -0.86419463390E+02 -0.97564066510E+02  0.24029243148E+03  0.12500000000E+03 0.  0.
         25    1    1    2    0    0 -0.19958567537E+03 -0.66175277506E+02  0.12472765597E+03  0.27458258745E+03  0.12500000000E+03 0.  0.
</event>
<event>
 5    0  0.5561624E-005  0.4887358E+03  0.7546771E-02  0.1016762E+00
         21   -1    0    0  502  501  0.00000000000E+00  0.00000000000E+00  0.94018927197E+03  0.94018927197E+03  0.00000000000E+00 0. -1.
         21   -1    0    0  501  502 -0.00000000000E+00 -0.00000000000E+00 -0.25405812401E+03  0.25405812401E+03  0.00000000000E+00 0. -1.
         25    1    1    2    0    0  0.15416063998E+02  0.70669065868E+02  0.38036857972E+03  0.40686241943E+03  0.12500000000E+03 0.  0.
         25    1    1    2    0    0 -0.23895005659E+03 -0.80947764758E+01 -0.11303309812E+03  0.29251348041E+03  0.12500000000E+03 0.  0.
         25    1    1    2    0    0  0.22353399260E+03 -0.62574289392E+02  0.41879566636E+03  0.49487149615E+03  0.12500000000E+03 0.  0.
</event>
<event>
 5    0  0.5561624E-005  0.4576638E+03  0.7546771E-02  0.1025461E+00
         21   -1    0    0  502  501  0.00000000000E+00  0.00000000000E+00  0.10113149333E+04  0.10113149333E+04  0.00000000000E+00 0.  1.
         21   -1    0    0  501  502 -0.00000000000E+00 -0.00000000000E+00 -0.20711265052E+03  0.20711265052E+03  0.00000000000E+00 0.  1.
         25    1    1    2    0    0 -0.65053189326E+02 -0.60839339205E+02  0.67457839643E+03  0.69181959756E+03  0.12500000000E+03 0.  0.
         25    1    1    2    0    0 -0.13309978616E+03 -0.82869812770E+02  0.15087214480E+03  0.25093896274E+03  0.12500000000E+03 0.  0.
         25    1    1    2    0    0  0.19815297549E+03  0.14370915197E+03 -0.21248258427E+02  0.27566902355E+03  0.12500000000E+03 0.  0.
</event>
<event>
 5    0  0.5561624E-005  0.2572828E+03  0.7546771E-02  0.1108787E+00
         21   -1    0    0  502  501  0.00000000000E+00  0.00000000000E+00  0.35312765313E+03  0.35312765313E+03  0.00000000000E+00 0. -1.
         21   -1    0    0  501  502 -0.00000000000E+00 -0.00000000000E+00 -0.18745192217E+03  0.18745192217E+03  0.00000000000E+00 0. -1.
         25    1    1    2    0    0  0.28334105102E+02  0.23513939303E+02  0.50532896110E+02  0.13976516176E+03  0.12500000000E+03 0.  0.
         25    1    1    2    0    0  0.14084908074E+02 -0.40738743063E+01  0.20457504020E+03  0.24018935896E+03  0.12500000000E+03 0.  0.
         25    1    1    2    0    0 -0.42419013176E+02 -0.19440064996E+02 -0.89432205346E+02  0.16062505458E+03  0.12500000000E+03 0.  0.
</event>
<event>
 5    0  0.5561624E-005  0.3112714E+03  0.7546771E-02  0.1079738E+00
         21   -1    0    0  502  501  0.00000000000E+00  0.00000000000E+00  0.85656202182E+03  0.85656202182E+03  0.00000000000E+00 0. -1.
         21   -1    0    0  501  502 -0.00000000000E+00 -0.00000000000E+00 -0.11311482475E+03  0.11311482475E+03  0.00000000000E+00 0. -1.
         25    1    1    2    0    0 -0.14485992561E+03 -0.45007235004E+02  0.33747181985E+03  0.39054100738E+03  0.12500000000E+03 0.  0.
         25    1    1    2    0    0  0.27955244735E+02 -0.77084658193E+02  0.36262959883E+02  0.15382958914E+03  0.12500000000E+03 0.  0.
         25    1    1    2    0    0  0.11690468088E+03  0.12209189320E+03  0.36971241733E+03  0.42530625004E+03  0.12500000000E+03 0.  0.
</event>
<event>
 5    0  0.5561624E-005  0.3523453E+03  0.7546771E-02  0.1061657E+00
         21   -1    0    0  502  501  0.00000000000E+00  0.00000000000E+00  0.61525507069E+03  0.61525507069E+03  0.00000000000E+00 0. -1.
         21   -1    0    0  501  502 -0.00000000000E+00 -0.00000000000E+00 -0.20178164641E+03  0.20178164641E+03  0.00000000000E+00 0. -1.
         25    1    1    2    0    0 -0.23182778506E+03  0.74141840458E+02  0.85268621234E+01  0.27374959691E+03  0.12500000000E+03 0.  0.
         25    1    1    2    0    0  0.10892074484E+03 -0.78966928040E+02  0.24293729122E+03  0.30453740632E+03  0.12500000000E+03 0.  0.
         25    1    1    2    0    0  0.12290704023E+03  0.48250875828E+01  0.16200927093E+03  0.23874971387E+03  0.12500000000E+03 0.  0.
</event>
<event>
 5    0  0.5561624E-005  0.2824376E+03  0.7546771E-02  0.1094365E+00
         21   -1    0    0  502  501  0.00000000000E+00  0.00000000000E+00  0.18328590354E+03  0.18328590354E+03  0.00000000000E+00 0. -1.
         21   -1    0    0  501  502 -0.00000000000E+00 -0.00000000000E+00 -0.43522703325E+03  0.43522703325E+03  0.00000000000E+00 0. -1.
         25    1    1    2    0    0 -0.12899211048E+03 -0.47659193711E+02 -0.29840826840E+02  0.18821752909E+03  0.12500000000E+03 0.  0.
         25    1    1    2    0    0  0.17646540859E+03  0.22436519436E+02 -0.75180277182E+02  0.23004458679E+03  0.12500000000E+03 0.  0.
         25    1    1    2    0    0 -0.47473298116E+02  0.25222674275E+02 -0.14692002569E+03  0.20025082092E+03  0.12500000000E+03 0.  0.
</event>
<event>
 5    0  0.5561624E-005  0.2395666E+03  0.7546771E-02  0.1120082E+00
         21   -1    0    0  502  501  0.00000000000E+00  0.00000000000E+00  0.44985030863E+02  0.44985030863E+02  0.00000000000E+00 0. -1.
         21   -1    0    0  501  502 -0.00000000000E+00 -0.00000000000E+00 -0.12758056307E+04  0.12758056307E+04  0.00000000000E+00 0. -1.
         25    1    1    2    0    0 -0.35706947557E+02 -0.62799104407E+02 -0.26994245476E+03  0.30612520722E+03  0.12500000000E+03 0.  0.
         25    1    1    2    0    0  0.37020544311E+02  0.92285183508E+02 -0.75727653419E+03  0.77393786897E+03  0.12500000000E+03 0.  0.
         25    1    1    2    0    0 -0.13135967534E+01 -0.29486079100E+02 -0.20360161087E+03  0.24072758535E+03  0.12500000000E+03 0.  0.
</event>
<event>
 5    0  0.5561624E-005  0.3191625E+03  0.7546771E-02  0.1076035E+00
         21   -1    0    0  502  501  0.00000000000E+00  0.00000000000E+00  0.59754247114E+03  0.59754247114E+03  0.00000000000E+00 0. -1.
         21   -1    0    0  501  502 -0.00000000000E+00 -0.00000000000E+00 -0.17047269102E+03  0.17047269102E+03  0.00000000000E+00 0. -1.
         25    1    1    2    0    0 -0.36541309315E+02  0.40036520391E+02  0.66229374935E+02  0.15149099101E+03  0.12500000000E+03 0.  0.
         25    1    1    2    0    0 -0.15481560487E+02 -0.69354274219E+02 -0.72890699991E+02  0.16120715931E+03  0.12500000000E+03 0.  0.
         25    1    1    2    0    0  0.52022869802E+02  0.29317753828E+02  0.43373110518E+03  0.45531701184E+03  0.12500000000E+03 0.  0.
</event>
<event>
 5    0  0.5561624E-005  0.2235722E+03  0.7546771E-02  0.1131248E+00
         21   -1    0    0  502  501  0.00000000000E+00  0.00000000000E+00  0.15911355036E+03  0.15911355036E+03  0.00000000000E+00 0.  1.
         21   -1    0    0  501  502 -0.00000000000E+00 -0.00000000000E+00 -0.31414364974E+03  0.31414364974E+03  0.00000000000E+00 0.  1.
         25    1    1    2    0    0  0.73988938818E+02 -0.98531602785E+01 -0.13759964278E+03  0.20032500974E+03  0.12500000000E+03 0.  0.
         25    1    1    2    0    0 -0.61234450898E+02 -0.24209450378E+02 -0.20195067046E+02  0.14271859093E+03  0.12500000000E+03 0.  0.
         25    1    1    2    0    0 -0.12754487920E+02  0.34062610657E+02  0.27646104368E+01  0.13021359943E+03  0.12500000000E+03 0.  0.
</event>
<event>
 5    0  0.5561624E-005  0.2139898E+03  0.7546771E-02  0.1138445E+00
         21   -1    0    0  502  501  0.00000000000E+00  0.00000000000E+00  0.14669184126E+03  0.14669184126E+03  0.00000000000E+00 0. -1.
         21   -1    0    0  501  502 -0.00000000000E+00 -0.00000000000E+00 -0.31216214456E+03  0.31216214456E+03  0.00000000000E+00 0. -1.
         25    1    1    2    0    0  0.55745168823E+02 -0.74079457563E+02 -0.69149070214E+02  0.17029939457E+03  0.12500000000E+03 0.  0.
         25    1    1    2    0    0 -0.54592077486E+02  0.44470644333E+02 -0.54131812846E+02  0.15334010008E+03  0.12500000000E+03 0.  0.
         25    1    1    2    0    0 -0.11530913363E+01  0.29608813229E+02 -0.42189420246E+02  0.13521449117E+03  0.12500000000E+03 0.  0.
</event>
<event>
 5    0  0.5561624E-005  0.4172446E+03  0.7546771E-02  0.1037967E+00
         21   -1    0    0  502  501  0.00000000000E+00  0.00000000000E+00  0.20982845465E+03  0.20982845465E+03  0.00000000000E+00 0.  1.
         21   -1    0    0  501  502 -0.00000000000E+00 -0.00000000000E+00 -0.82969237234E+03  0.82969237234E+03  0.00000000000E+00 0.  1.
         25    1    1    2    0    0  0.27112264337E+01  0.17069248945E+02  0.12064804407E+03  0.17458425057E+03  0.12500000000E+03 0.  0.
         25    1    1    2    0    0 -0.51931338279E+02  0.15372903373E+03 -0.50253470896E+03  0.54267450043E+03  0.12500000000E+03 0.  0.
         25    1    1    2    0    0  0.49220111845E+02 -0.17079828268E+03 -0.23797725279E+03  0.32226207599E+03  0.12500000000E+03 0.  0.
</event>
<event>
 5    0  0.5561624E-005  0.2807268E+03  0.7546771E-02  0.1095293E+00
         21   -1    0    0  502  501  0.00000000000E+00  0.00000000000E+00  0.24925040612E+03  0.24925040612E+03  0.00000000000E+00 0. -1.
         21   -1    0    0  501  502 -0.00000000000E+00 -0.00000000000E+00 -0.31617817712E+03  0.31617817712E+03  0.00000000000E+00 0. -1.
         25    1    1    2    0    0  0.44472608347E+02  0.14233529343E+03  0.59179356694E+02  0.20338226301E+03  0.12500000000E+03 0.  0.
         25    1    1    2    0    0  0.79838701579E+01 -0.20723774761E+02  0.20053977101E+02  0.12853162654E+03  0.12500000000E+03 0.  0.
         25    1    1    2    0    0 -0.52456478505E+02 -0.12161151867E+03 -0.14616110480E+03  0.23351469369E+03  0.12500000000E+03 0.  0.
</event>
<event>
 5    0  0.5561624E-005  0.2245873E+03  0.7546771E-02  0.1130509E+00
         21   -1    0    0  502  501  0.00000000000E+00  0.00000000000E+00  0.29014977288E+04  0.29014977288E+04  0.00000000000E+00 0. -1.
         21   -1    0    0  501  502 -0.00000000000E+00 -0.00000000000E+00 -0.17383931090E+02  0.17383931090E+02  0.00000000000E+00 0. -1.
         25    1    1    2    0    0 -0.76569645629E+02  0.23095459448E+02  0.82585239134E+03  0.83907894930E+03  0.12500000000E+03 0.  0.
         25    1    1    2    0    0  0.36277771110E+02  0.42407890348E+02  0.67249414736E+03  0.68628557035E+03  0.12500000000E+03 0.  0.
         25    1    1    2    0    0  0.40291874519E+02 -0.65503349796E+02  0.13857672590E+04  0.13935171403E+04  0.12500000000E+03 0.  0.
</event>
<event>
 5    0  0.5561624E-005  0.4778635E+03  0.7546771E-02  0.1019724E+00
         21   -1    0    0  502  501  0.00000000000E+00  0.00000000000E+00  0.30385597574E+03  0.30385597574E+03  0.00000000000E+00 0.  1.
         21   -1    0    0  501  502 -0.00000000000E+00 -0.00000000000E+00 -0.75151910071E+03  0.75151910071E+03  0.00000000000E+00 0.  1.
         25    1    1    2    0    0 -0.18959008034E+03 -0.31798138277E+03 -0.14285003514E+03  0.41603808827E+03  0.12500000000E+03 0.  0.
         25    1    1    2    0    0  0.12413570554E+02  0.31810489659E+03 -0.21914061882E+03  0.40619260553E+03  0.12500000000E+03 0.  0.
         25    1    1    2    0    0  0.17717650978E+03 -0.12351381913E+00 -0.85672471007E+02  0.23314438265E+03  0.12500000000E+03 0.  0.
</event>
<event>
 5    0  0.5561624E-005  0.3349495E+03  0.7546771E-02  0.1068968E+00
         21   -1    0    0  502  501  0.00000000000E+00  0.00000000000E+00  0.32327074523E+03  0.32327074523E+03  0.00000000000E+00 0. -1.
         21   -1    0    0  501  502 -0.00000000000E+00 -0.00000000000E+00 -0.34705010674E+03  0.34705010674E+03  0.00000000000E+00 0. -1.
         25    1    1    2    0    0 -0.52993661168E+02  0.19754924314E+03  0.52110676020E+02  0.24530502266E+03  0.12500000000E+03 0.  0.
         25    1    1    2    0    0  0.28914239711E+02 -0.98121596337E+02 -0.17289136165E+03  0.23660157197E+03  0.12500000000E+03 0.  0.
         25    1    1    2    0    0  0.24079421457E+02 -0.99427646799E+02  0.97001324126E+02  0.18841425734E+03  0.12500000000E+03 0.  0.
</event>
<event>
 5    0  0.5561624E-005  0.2666087E+03  0.7546771E-02  0.1103236E+00
         21   -1    0    0  502  501  0.00000000000E+00  0.00000000000E+00  0.91033047766E+02  0.91033047766E+02  0.00000000000E+00 0. -1.
         21   -1    0    0  501  502 -0.00000000000E+00 -0.00000000000E+00 -0.78081763435E+03  0.78081763435E+03  0.00000000000E+00 0. -1.
         25    1    1    2    0    0 -0.36872687675E+02  0.86481813816E+02 -0.12016514647E+03  0.19723935116E+03  0.12500000000E+03 0.  0.
         25    1    1    2    0    0  0.11706229902E+03  0.28489285760E+02 -0.27098224151E+03  0.32182541302E+03  0.12500000000E+03 0.  0.
         25    1    1    2    0    0 -0.80189611345E+02 -0.11497109958E+03 -0.29863719860E+03  0.35278591794E+03  0.12500000000E+03 0.  0.
</event>
<event>
 5    0  0.5561624E-005  0.3146392E+03  0.7546771E-02  0.1078143E+00
         21   -1    0    0  502  501  0.00000000000E+00  0.00000000000E+00  0.12510824617E+03  0.12510824617E+03  0.00000000000E+00 0.  1.
         21   -1    0    0  501  502 -0.00000000000E+00 -0.00000000000E+00 -0.79129746602E+03  0.79129746602E+03  0.00000000000E+00 0.  1.
         25    1    1    2    0    0 -0.50658010311E+00 -0.37770003831E+02  0.89388381949E+00  0.13058571454E+03  0.12500000000E+03 0.  0.
         25    1    1    2    0    0 -0.16050206400E+03  0.53454029699E+02 -0.35882562491E+03  0.41593157482E+03  0.12500000000E+03 0.  0.
         25    1    1    2    0    0  0.16100864410E+03 -0.15684025868E+02 -0.30825747875E+03  0.36988842284E+03  0.12500000000E+03 0.  0.
</event>
<event>
 5    0  0.5561624E-005  0.2451587E+03  0.7546771E-02  0.1116403E+00
         21   -1    0    0  502  501  0.00000000000E+00  0.00000000000E+00  0.85601632141E+03  0.85601632141E+03  0.00000000000E+00 0. -1.
         21   -1    0    0  501  502 -0.00000000000E+00 -0.00000000000E+00 -0.70212218049E+02  0.70212218049E+02  0.00000000000E+00 0. -1.
         25    1    1    2    0    0  0.74138119665E+02 -0.71313958028E+02  0.23663366193E+03  0.28671001265E+03  0.12500000000E+03 0.  0.
         25    1    1    2    0    0  0.15851778677E+02  0.10910173296E+03  0.24228872087E+03  0.29408041636E+03  0.12500000000E+03 0.  0.
         25    1    1    2    0    0 -0.89989898342E+02 -0.37787774932E+02  0.30688172056E+03  0.34543811045E+03  0.12500000000E+03 0.  0.
</event>
<event>
 5    0  0.5851769E-005  0.3472317E+03  0.7546771E-02  0.1063757E+00
         21   -1    0    0  502  501  0.00000000000E+00  0.00000000000E+00  0.89347667890E+03  0.89347667890E+03  0.00000000000E+00 0. -1.
         21   -1    0    0  501  502 -0.00000000000E+00 -0.00000000000E+00 -0.13494458240E+03  0.13494458240E+03  0.00000000000E+00 0. -1.
         25    1    1    2    0    0 -0.12863293628E+03 -0.53318371016E+02  0.30058901305E+03  0.35407348919E+03  0.12500000000E+03 0.  0.
         25    1    1    2    0    0  0.17063610258E+03  0.12398948811E+03  0.46380220578E+03  0.52462134797E+03  0.12500000000E+03 0.  0.
         25    1    1    2    0    0 -0.42003166296E+02 -0.70671117092E+02 -0.58591223216E+01  0.14972642413E+03  0.12500000000E+03 0.  0.
</event>
<event>
 5    0  0.5561624E-005  0.3203620E+03  0.7546771E-02  0.1075483E+00
         21   -1    0    0  502  501  0.00000000000E+00  0.00000000000E+00  0.22448162623E+03  0.22448162623E+03  0.00000000000E+00 0. -1.
         21   -1    0    0  501  502 -0.00000000000E+00 -0.00000000000E+00 -0.45719456332E+03  0.45719456332E+03  0.00000000000E+00 0. -1.
         25    1    1    2    0    0  0.14097792806E+03  0.87618674112E+02  0.97867705403E+02  0.22968433994E+03  0.12500000000E+03 0.  0.
         25    1    1    2    0    0 -0.34378955293E+02 -0.47667906047E+02 -0.16725750351E+03  0.21691983384E+03  0.12500000000E+03 0.  0.
         25    1    1    2    0    0 -0.10659897277E+03 -0.39950768065E+02 -0.16332313899E+03  0.23507201576E+03  0.12500000000E+03 0.  0.
</event>
<event>
 5    0  0.5561624E-005  0.2457822E+03  0.7546771E-02  0.1116000E+00
         21   -1    0    0  502  501  0.00000000000E+00  0.00000000000E+00  0.60386031485E+02  0.60386031485E+02  0.00000000000E+00 0. -1.
         21   -1    0    0  501  502 -0.00000000000E+00 -0.00000000000E+00 -0.10003785379E+04  0.10003785379E+04  0.00000000000E+00 0. -1.
         25    1    1    2    0    0  0.10383156907E+02  0.55301232588E+02 -0.16749226998E+03  0.21643635734E+03  0.12500000000E+03 0.  0.
         25    1    1    2    0    0  0.34768121719E+02 -0.11672395608E+03 -0.27476660999E+03  0.32550728744E+03  0.12500000000E+03 0.  0.
         25    1    1    2    0    0 -0.45151278626E+02  0.61422723492E+02 -0.49773362646E+03  0.51882092463E+03  0.12500000000E+03 0.  0.
</event>
<event>
 5    0  0.5561624E-005  0.2397890E+03  0.7546771E-02  0.1119933E+00
         21   -1    0    0  502  501  0.00000000000E+00  0.00000000000E+00  0.32064965730E+03  0.32064965730E+03  0.00000000000E+00 0. -1.
         21   -1    0    0  501  502 -0.00000000000E+00 -0.00000000000E+00 -0.17931957159E+03  0.17931957159E+03  0.00000000000E+00 0. -1.
         25    1    1    2    0    0 -0.84897335276E+02  0.32461273519E+01  0.64698827952E+02  0.16440508878E+03  0.12500000000E+03 0.  0.
         25    1    1    2    0    0  0.45407580886E+02  0.35266997662E+02  0.12961037534E+03  0.18902237677E+03  0.12500000000E+03 0.  0.
         25    1    1    2    0    0  0.39489754389E+02 -0.38513125014E+02 -0.52979117582E+02  0.14654176333E+03  0.12500000000E+03 0.  0.
</event>
<event>
 5    0  0.5561624E-005  0.3493357E+03  0.7546771E-02  0.1062888E+00
         21   -1    0    0  502  501  0.00000000000E+00  0.00000000000E+00  0.30297445825E+04  0.30297445825E+04  0.00000000000E+00 0. -1.
         21   -1    0    0  501  502 -0.00000000000E+00 -0.00000000000E+00 -0.40279118541E+02  0.40279118541E+02  0.00000000000E+00 0. -1.
         25    1    1    2    0    0  0.30617575699E+02 -0.10993058222E+03  0.38269021519E+03  0.41844828791E+03  0.12500000000E+03 0.  0.
         25    1    1    2    0    0 -0.14730834628E+03  0.19396706375E+02  0.50707426202E+03  0.54297816559E+03  0.12500000000E+03 0.  0.
         25    1    1    2    0    0  0.11669077058E+03  0.90533875849E+02  0.20997009867E+04  0.21085972475E+04  0.12500000000E+03 0.  0.
</event>
<event>
 5    0  0.5561624E-005  0.3055413E+03  0.7546771E-02  0.1082503E+00
         21   -1    0    0  502  501  0.00000000000E+00  0.00000000000E+00  0.20291374543E+04  0.20291374543E+04  0.00000000000E+00 0.  1.
         21   -1    0    0  501  502 -0.00000000000E+00 -0.00000000000E+00 -0.46007484011E+02  0.46007484011E+02  0.00000000000E+00 0.  1.
         25    1    1    2    0    0 -0.71874347944E+02  0.82125453789E+02  0.11784902543E+04  0.11901154530E+04  0.12500000000E+03 0.  0.
         25    1    1    2    0    0  0.69360073353E+02  0.34563974119E+02  0.15673325791E+03  0.21493208746E+03  0.12500000000E+03 0.  0.
         25    1    1    2    0    0  0.25142745909E+01 -0.11668942791E+03  0.64790645812E+03  0.67009739787E+03  0.12500000000E+03 0.  0.
</event>
<event>
 5    0  0.5561624E-005  0.2039971E+03  0.7546771E-02  0.1146410E+00
         21   -1    0    0  502  501  0.00000000000E+00  0.00000000000E+00  0.43974549365E+02  0.43974549365E+02  0.00000000000E+00 0.  1.
         21   -1    0    0  501  502 -0.00000000000E+00 -0.00000000000E+00 -0.94633893026E+03  0.94633893026E+03  0.00000000000E+00 0.  1.
         25    1    1    2    0    0 -0.64478923766E+02 -0.31799942071E+02 -0.31659708844E+03  0.34789004633E+03  0.12500000000E+03 0.  0.
         25    1    1    2    0    0  0.54142002589E+02  0.17117036817E+02 -0.29221179934E+03  0.32285768547E+03  0.12500000000E+03 0.  0.
         25    1    1    2    0    0  0.10336921177E+02  0.14682905254E+02 -0.29355549312E+03  0.31956574783E+03  0.12500000000E+03 0.  0.
</event>
<event>
 5    0  0.5561624E-005  0.3529287E+03  0.7546771E-02  0.1061419E+00
         21   -1    0    0  502  501  0.00000000000E+00  0.00000000000E+00  0.50582434064E+03  0.50582434064E+03  0.00000000000E+00 0.  1.
         21   -1    0    0  501  502 -0.00000000000E+00 -0.00000000000E+00 -0.24624879134E+03  0.24624879134E+03  0.00000000000E+00 0.  1.
         25    1    1    2    0    0 -0.40891368345E+01 -0.22132664931E+02  0.29416860767E+02  0.13037226543E+03  0.12500000000E+03 0.  0.
         25    1    1    2    0    0  0.25556375386E+02 -0.13601391898E+03 -0.11666632277E+03  0.21997487435E+03  0.12500000000E+03 0.  0.
         25    1    1    2    0    0 -0.21467238552E+02  0.15814658391E+03  0.34682501131E+03  0.40172599219E+03  0.12500000000E+03 0.  0.
</event>
<event>
 5    0  0.5561624E-005  0.5191872E+03  0.7546771E-02  0.1008889E+00
         21   -1    0    0  502  501  0.00000000000E+00  0.00000000000E+00  0.56131635479E+03  0.56131635479E+03  0.00000000000E+00 0. -1.
         21   -1    0    0  501  502 -0.00000000000E+00 -0.00000000000E+00 -0.48022000765E+03  0.48022000765E+03  0.00000000000E+00 0. -1.
         25    1    1    2    0    0 -0.19236671738E+03 -0.11868096016E+03 -0.23857207794E+03  0.35161308371E+03  0.12500000000E+03 0.  0.
         25    1    1    2    0    0  0.41252622445E+02  0.31033942292E+03  0.18186988776E+03  0.38303262570E+03  0.12500000000E+03 0.  0.
         25    1    1    2    0    0  0.15111409493E+03 -0.19165846276E+03  0.13779853732E+03  0.30689065304E+03  0.12500000000E+03 0.  0.
</event>
<event>
 5    0  0.5561624E-005  0.1923132E+03  0.7546771E-02  0.1156391E+00
         21   -1    0    0  502  501  0.00000000000E+00  0.00000000000E+00  0.10523161953E+03  0.10523161953E+03  0.00000000000E+00 0. -1.
         21   -1    0    0  501  502 -0.00000000000E+00 -0.00000000000E+00 -0.35145664552E+03  0.35145664552E+03  0.00000000000E+00 0. -1.
         25    1    1    2    0    0  0.96688984150E+01  0.28413485350E+02 -0.93063621391E+02  0.15870302887E+03  0.12500000000E+03 0.  0.
         25    1    1    2    0    0 -0.16935134290E+02 -0.53594788839E+01 -0.57483684057E+02  0.13872597709E+03  0.12500000000E+03 0.  0.
         25    1    1    2    0    0  0.72662358750E+01 -0.23054006466E+02 -0.95677720537E+02  0.15925925909E+03  0.12500000000E+03 0.  0.
</event>
<event>
 5    0  0.5561624E-005  0.2675445E+03  0.7546771E-02  0.1102693E+00
         21   -1    0    0  502  501  0.00000000000E+00  0.00000000000E+00  0.56036966937E+03  0.56036966937E+03  0.00000000000E+00 0.  1.
         21   -1    0    0  501  502 -0.00000000000E+00 -0.00000000000E+00 -0.12773723700E+03  0.12773723700E+03  0.00000000000E+00 0.  1.
         25    1    1    2    0    0 -0.11794422453E+03 -0.34753688156E+02  0.19013887887E+03  0.25864348474E+03  0.12500000000E+03 0.  0.
         25    1    1    2    0    0 -0.54905972856E+02  0.14531658333E+02  0.12181672230E+03  0.18354876404E+03  0.12500000000E+03 0.  0.
         25    1    1    2    0    0  0.17285019739E+03  0.20222029823E+02  0.12067683120E+03  0.24591465759E+03  0.12500000000E+03 0.  0.
</event>
<event>
 5    0  0.5561624E-005  0.3218925E+03  0.7546771E-02  0.1074782E+00
         21   -1    0    0  502  501  0.00000000000E+00  0.00000000000E+00  0.12174237883E+04  0.12174237883E+04  0.00000000000E+00 0. -1.
         21   -1    0    0  501  502 -0.00000000000E+00 -0.00000000000E+00 -0.85109881741E+02  0.85109881741E+02  0.00000000000E+00 0. -1.
         25    1    1    2    0    0  0.14708725915E+02  0.20996910272E+03  0.28627223059E+03  0.37666982985E+03  0.12500000000E+03 0.  0.
         25    1    1    2    0    0  0.31286454319E+02 -0.18518531967E+01  0.30130849424E+03  0.32771036036E+03  0.12500000000E+03 0.  0.
         25    1    1    2    0    0 -0.45995180234E+02 -0.20811724952E+03  0.54473318172E+03  0.59815347982E+03  0.12500000000E+03 0.  0.
</event>
<event>
 5    0  0.5561624E-005  0.3045805E+03  0.7546771E-02  0.1082973E+00
         21   -1    0    0  502  501  0.00000000000E+00  0.00000000000E+00  0.10207543831E+03  0.10207543831E+03  0.00000000000E+00 0. -1.
         21   -1    0    0  501  502 -0.00000000000E+00 -0.00000000000E+00 -0.90883069923E+03  0.90883069923E+03  0.00000000000E+00 0. -1.
         25    1    1    2    0    0 -0.42738259228E+02  0.24549670442E+02 -0.52175529640E+03  0.53877902190E+03  0.12500000000E+03 0.  0.
         25    1    1    2    0    0  0.29498471768E+02 -0.11794585951E+03 -0.26071917397E+03  0.31365725449E+03  0.12500000000E+03 0.  0.
         25    1    1    2    0    0  0.13239787459E+02  0.93396189072E+02 -0.24280790547E+02  0.15846986116E+03  0.12500000000E+03 0.  0.
</event>
<event>
 5    0  0.5561624E-005  0.3983618E+03  0.7546771E-02  0.1044348E+00
         21   -1    0    0  502  501  0.00000000000E+00  0.00000000000E+00  0.13106887740E+04  0.13106887740E+04  0.00000000000E+00 0.  1.
         21   -1    0    0  501  502 -0.00000000000E+00 -0.00000000000E+00 -0.12107538061E+03  0.12107538061E+03  0.00000000000E+00 0.  1.
         25    1    1    2    0    0  0.45182090024E+02  0.28579831358E+03  0.73111495480E+03  0.79616340938E+03  0.12500000000E+03 0.  0.
         25    1    1    2    0    0 -0.65461841917E+02 -0.28180505452E+02  0.21750534666E+03  0.26079296283E+03  0.12500000000E+03 0.  0.
         25    1    1    2    0    0  0.20279751893E+02 -0.25761780813E+03  0.24099309195E+03  0.37480778243E+03  0.12500000000E+03 0.  0.
</event>
<event>
 5    0  0.5561624E-005  0.2007210E+03  0.7546771E-02  0.1149132E+00
         21   -1    0    0  502  501  0.00000000000E+00  0.00000000000E+00  0.88031243052E+03  0.88031243052E+03  0.00000000000E+00 0. -1.
         21   -1    0    0  501  502 -0.00000000000E+00 -0.00000000000E+00 -0.45766635785E+02  0.45766635785E+02  0.00000000000E+00 0. -1.
         25    1    1    2    0    0 -0.23860166355E+02  0.19765659798E+02  0.26851019961E+03  0.29779643406E+03  0.12500000000E+03 0.  0.
         25    1    1    2    0    0  0.46076451350E+02  0.74519646467E+01  0.36831609029E+03  0.39174010966E+03  0.12500000000E+03 0.  0.
         25    1    1    2    0    0 -0.22216284995E+02 -0.27217624445E+02  0.19771950483E+03  0.23654252258E+03  0.12500000000E+03 0.  0.
</event>
<event>
 5    0  0.5561624E-005  0.2131223E+03  0.7546771E-02  0.1139117E+00
         21   -1    0    0  502  501  0.00000000000E+00  0.00000000000E+00  0.83551164807E+03  0.83551164807E+03  0.00000000000E+00 0.  1.
         21   -1    0    0  501  502 -0.00000000000E+00 -0.00000000000E+00 -0.54363210082E+02  0.54363210082E+02  0.00000000000E+00 0.  1.
         25    1    1    2    0    0  0.65365065569E+02  0.41750506065E+02  0.18074796655E+03  0.23304618419E+03  0.12500000000E+03 0.  0.
         25    1    1    2    0    0 -0.15303268963E+02 -0.12878010201E+02  0.24713979071E+03  0.27767446649E+03  0.12500000000E+03 0.  0.
         25    1    1    2    0    0 -0.50061796606E+02 -0.28872495863E+02  0.35326068072E+03  0.37915420747E+03  0.12500000000E+03 0.  0.
</event>
<event>
 5    0  0.5561624E-005  0.2406755E+03  0.7546771E-02  0.1119344E+00
         21   -1    0    0  502  501  0.00000000000E+00  0.00000000000E+00  0.29724752135E+03  0.29724752135E+03  0.00000000000E+00 0.  1.
         21   -1    0    0  501  502 -0.00000000000E+00 -0.00000000000E+00 -0.19487029559E+03  0.19487029559E+03  0.00000000000E+00 0.  1.
         25    1    1    2    0    0 -0.65887327358E+02  0.26666898454E+02  0.41012814537E+02  0.14953031243E+03  0.12500000000E+03 0.  0.
         25    1    1    2    0    0  0.12659273804E+02 -0.11490014840E+03  0.26488586491E+01  0.17027717924E+03  0.12500000000E+03 0.  0.
         25    1    1    2    0    0  0.53228053554E+02  0.88233249949E+02  0.58715552568E+02  0.17231032527E+03  0.12500000000E+03 0.  0.
</event>
<event>
 5    0  0.5561624E-005  0.4732951E+03  0.7546771E-02  0.1020994E+00
         21   -1    0    0  502  501  0.00000000000E+00  0.00000000000E+00  0.17189963637E+04  0.17189963637E+04  0.00000000000E+00 0. -1.
         21   -1    0    0  501  502 -0.00000000000E+00 -0.00000000000E+00 -0.13031337180E+03  0.13031337180E+03  0.00000000000E+00 0. -1.
         25    1    1    2    0    0 -0.78923573803E+02 -0.71661686149E+02  0.24364003657E+03  0.29385335660E+03  0.12500000000E+03 0.  0.
         25    1    1    2    0    0 -0.14997384040E+03 -0.16000713169E+03  0.11588658220E+03  0.27775733101E+03  0.12500000000E+03 0.  0.
         25    1    1    2    0    0  0.22889741420E+03  0.23166881784E+03  0.12291563731E+04  0.12776990479E+04  0.12500000000E+03 0.  0.
</event>
<event>
 5    0  0.5561624E-005  0.2426429E+03  0.7546771E-02  0.1118045E+00
         21   -1    0    0  502  501  0.00000000000E+00  0.00000000000E+00  0.68614224871E+02  0.68614224871E+02  0.00000000000E+00 0.  1.
         21   -1    0    0  501  502 -0.00000000000E+00 -0.00000000000E+00 -0.85806630029E+03  0.85806630029E+03  0.00000000000E+00 0.  1.
         25    1    1    2    0    0  0.49541232742E+02  0.60505902795E+02 -0.35818476655E+03  0.38734561441E+03  0.12500000000E+03 0.  0.
         25    1    1    2    0    0 -0.99037377812E+02  0.29349217266E+02 -0.21753057251E+03  0.27131960625E+03  0.12500000000E+03 0.  0.
         25    1    1    2    0    0  0.49496145069E+02 -0.89855120061E+02 -0.21373673636E+03  0.26801530450E+03  0.12500000000E+03 0.  0.
</event>
<event>
 5    0  0.5561624E-005  0.2507577E+03  0.7546771E-02  0.1112827E+00
         21   -1    0    0  502  501  0.00000000000E+00  0.00000000000E+00  0.91557224952E+03  0.91557224952E+03  0.00000000000E+00 0.  1.
         21   -1    0    0  501  502 -0.00000000000E+00 -0.00000000000E+00 -0.68677735880E+02  0.68677735880E+02  0.00000000000E+00 0.  1.
         25    1    1    2    0    0  0.70823636031E+02 -0.33678234541E+02  0.31167122083E+03  0.34483932606E+03  0.12500000000E+03 0.  0.
         25    1    1    2    0    0 -0.44943019710E+02  0.11780571537E+03  0.39017051881E+03  0.42866781468E+03  0.12500000000E+03 0.  0.
         25    1    1    2    0    0 -0.25880616321E+02 -0.84127480826E+02  0.14505277400E+03  0.21074284466E+03  0.12500000000E+03 0.  0.
</event>
<event>
 5    0  0.5561624E-005  0.2466240E+03  0.7546771E-02  0.1115457E+00
         21   -1    0    0  502  501  0.00000000000E+00  0.00000000000E+00  0.40718478334E+03  0.40718478334E+03  0.00000000000E+00 0. -1.
         21   -1    0    0  501  502 -0.00000000000E+00 -0.00000000000E+00 -0.14937537982E+03  0.14937537982E+03  0.00000000000E+00 0. -1.
         25    1    1    2    0    0 -0.10602612714E+03 -0.68445615039E+02  0.55438257808E+02  0.18607724816E+03  0.12500000000E+03 0.  0.
         25    1    1    2    0    0  0.96482111072E+02  0.43453307089E+02  0.17514119650E+03  0.23978412451E+03  0.12500000000E+03 0.  0.
         25    1    1    2    0    0  0.95440160722E+01  0.24992307950E+02  0.27229949212E+02  0.13069879048E+03  0.12500000000E+03 0.  0.
</event>
<event>
 5    0  0.5561624E-005  0.4530495E+03  0.7546771E-02  0.1026817E+00
         21   -1    0    0  502  501  0.00000000000E+00  0.00000000000E+00  0.15526607351E+03  0.15526607351E+03  0.00000000000E+00 0.  1.
         21   -1    0    0  501  502 -0.00000000000E+00 -0.00000000000E+00 -0.13219490563E+04  0.13219490563E+04  0.00000000000E+00 0.  1.
         25    1    1    2    0    0  0.12229358315E+03  0.17379456562E+03 -0.12067466925E+03  0.27449525919E+03  0.12500000000E+03 0.  0.
         25    1    1    2    0    0 -0.82026053875E+02  0.23988979670E+02 -0.92298953391E+03  0.93532797690E+03  0.12500000000E+03 0.  0.
         25    1    1    2    0    0 -0.40267529273E+02 -0.19778354529E+03 -0.12301877968E+03  0.26739189377E+03  0.12500000000E+03 0.  0.
</event>
<event>
 5    0  0.5561624E-005  0.2670992E+03  0.7546771E-02  0.1102951E+00
         21   -1    0    0  502  501  0.00000000000E+00  0.00000000000E+00  0.53451417464E+03  0.53451417464E+03  0.00000000000E+00 0.  1.
         21   -1    0    0  501  502 -0.00000000000E+00 -0.00000000000E+00 -0.13347069981E+03  0.13347069981E+03  0.00000000000E+00 0.  1.
         25    1    1    2    0    0  0.58556227237E+02  0.50347690363E+02  0.26922597347E+03  0.30671052552E+03  0.12500000000E+03 0.  0.
         25    1    1    2    0    0  0.10883604443E+02 -0.11607110014E+03  0.10779323366E+03  0.20207754540E+03  0.12500000000E+03 0.  0.
         25    1    1    2    0    0 -0.69439831680E+02  0.65723409775E+02  0.24024267698E+02  0.15919680353E+03  0.12500000000E+03 0.  0.
</event>
<event>
 5    0  0.5561624E-005  0.2440500E+03  0.7546771E-02  0.1117124E+00
         21   -1    0    0  502  501  0.00000000000E+00  0.00000000000E+00  0.13896444380E+03  0.13896444380E+03  0.00000000000E+00 0. -1.
         21   -1    0    0  501  502 -0.00000000000E+00 -0.00000000000E+00 -0.42860187256E+03  0.42860187256E+03  0.00000000000E+00 0. -1.
         25    1    1    2    0    0  0.27608878560E+02 -0.48565182700E+02 -0.12124801171E+03  0.18288495698E+03  0.12500000000E+03 0.  0.
         25    1    1    2    0    0 -0.38416323334E+02  0.59799033615E+02 -0.20779234251E+03  0.25269427363E+03  0.12500000000E+03 0.  0.
         25    1    1    2    0    0  0.10807444774E+02 -0.11233850914E+02  0.39402925461E+02  0.13198708575E+03  0.12500000000E+03 0.  0.
</event>
<event>
 5    0  0.5561624E-005  0.4302563E+03  0.7546771E-02  0.1033779E+00
         21   -1    0    0  502  501  0.00000000000E+00  0.00000000000E+00  0.51599696462E+03  0.51599696462E+03  0.00000000000E+00 0.  1.
         21   -1    0    0  501  502 -0.00000000000E+00 -0.00000000000E+00 -0.35876276931E+03  0.35876276931E+03  0.00000000000E+00 0.  1.
         25    1    1    2    0    0 -0.77203203743E+00  0.20128316674E+03 -0.10092380013E+03  0.25753858483E+03  0.12500000000E+03 0.  0.
         25    1    1    2    0    0 -0.19705564796E+03 -0.21323647731E+03  0.20557968265E+03  0.37707920861E+03  0.12500000000E+03 0.  0.
         25    1    1    2    0    0  0.19782768000E+03  0.11953310577E+02  0.52578312788E+02  0.24014194049E+03  0.12500000000E+03 0.  0.
</event>
<event>
 5    0  0.5561624E-005  0.3248044E+03  0.7546771E-02  0.1073459E+00
         21   -1    0    0  502  501  0.00000000000E+00  0.00000000000E+00  0.94133409107E+02  0.94133409107E+02  0.00000000000E+00 0. -1.
         21   -1    0    0  501  502 -0.00000000000E+00 -0.00000000000E+00 -0.11207275851E+04  0.11207275851E+04  0.00000000000E+00 0. -1.
         25    1    1    2    0    0 -0.83447976438E+02 -0.26888720778E+01 -0.42619242856E+02  0.15624402282E+03  0.12500000000E+03 0.  0.
         25    1    1    2    0    0  0.98506467193E+02 -0.76355349162E+02 -0.22895201426E+03  0.28909805994E+03  0.12500000000E+03 0.  0.
         25    1    1    2    0    0 -0.15058490755E+02  0.79044221240E+02 -0.75502291885E+03  0.76951891143E+03  0.12500000000E+03 0.  0.
</event>
<event>
 5    0  0.5561624E-005  0.2370363E+03  0.7546771E-02  0.1121783E+00
         21   -1    0    0  502  501  0.00000000000E+00  0.00000000000E+00  0.19933975887E+03  0.19933975887E+03  0.00000000000E+00 0. -1.
         21   -1    0    0  501  502 -0.00000000000E+00 -0.00000000000E+00 -0.28186163502E+03  0.28186163502E+03  0.00000000000E+00 0. -1.
         25    1    1    2    0    0  0.34578616219E+02 -0.25186806043E+02 -0.42557025163E+02  0.13880258027E+03  0.12500000000E+03 0.  0.
         25    1    1    2    0    0 -0.41415265610E+02 -0.33066834946E+02 -0.12137065379E+03  0.18211116221E+03  0.12500000000E+03 0.  0.
         25    1    1    2    0    0  0.68366493916E+01  0.58253640989E+02  0.81405802807E+02  0.16028765141E+03  0.12500000000E+03 0.  0.
</event>
<event>
 5    0  0.6635107E-005  0.2942953E+03  0.7546771E-02  0.1088128E+00
         21   -1    0    0  502  501  0.00000000000E+00  0.00000000000E+00  0.42937383082E+03  0.42937383082E+03  0.00000000000E+00 0. -1.
         21   -1    0    0  501  502 -0.00000000000E+00 -0.00000000000E+00 -0.20171170042E+03  0.20171170042E+03  0.00000000000E+00 0. -1.
         25    1    1    2    0    0  0.37237786231E+02 -0.89002862075E+02 -0.21317026630E+02  0.15933479785E+03  0.12500000000E+03 0.  0.
         25    1    1    2    0    0  0.24737290355E+02  0.10255222622E+03  0.28357658512E+03  0.32736764083E+03  0.12500000000E+03 0.  0.
         25    1    1    2    0    0 -0.61975076587E+02 -0.13549364147E+02 -0.34597428084E+02  0.14438309256E+03  0.12500000000E+03 0.  0.
</event>
<event>
 5    0  0.5561624E-005  0.3610346E+03  0.7546771E-02  0.1058175E+00
         21   -1    0    0  502  501  0.00000000000E+00  0.00000000000E+00  0.12082777187E+03  0.12082777187E+03  0.00000000000E+00 0. -1.
         21   -1    0    0  501  502 -0.00000000000E+00 -0.00000000000E+00 -0.10787749670E+04  0.10787749670E+04  0.00000000000E+00 0. -1.
         25    1    1    2    0    0  0.23574437677E+03 -0.10775003380E+03 -0.48091909904E+03  0.56044059524E+03  0.12500000000E+03 0.  0.
         25    1    1    2    0    0 -0.15150374337E+03  0.16871250674E+03 -0.25005147840E+03  0.35995560287E+03  0.12500000000E+03 0.  0.
         25    1    1    2    0    0 -0.84240633401E+02 -0.60962472936E+02 -0.22697661765E+03  0.27920654072E+03  0.12500000000E+03 0.  0.
</event>
<event>
 5    0  0.5561624E-005  0.3707550E+03  0.7546771E-02  0.1054405E+00
         21   -1    0    0  502  501  0.00000000000E+00  0.00000000000E+00  0.53763388613E+03  0.53763388613E+03  0.00000000000E+00 0.  1.
         21   -1    0    0  501  502 -0.00000000000E+00 -0.00000000000E+00 -0.25567442254E+03  0.25567442254E+03  0.00000000000E+00 0.  1.
         25    1    1    2    0    0  0.75748231470E+02  0.51397170547E+02 -0.19228372137E+02  0.15612236869E+03  0.12500000000E+03 0.  0.
         25    1    1    2    0    0 -0.15079834067E+03  0.17814027667E+03  0.55094032123E+02  0.27043381833E+03  0.12500000000E+03 0.  0.
         25    1    1    2    0    0  0.75050109201E+02 -0.22953744722E+03  0.24609380360E+03  0.36675212165E+03  0.12500000000E+03 0.  0.
</event>
<event>
 5    0  0.5561624E-005  0.2872882E+03  0.7546771E-02  0.1091774E+00
         21   -1    0    0  502  501  0.00000000000E+00  0.00000000000E+00  0.84911758867E+02  0.84911758867E+02  0.00000000000E+00 0.  1.
         21   -1    0    0  501  502 -0.00000000000E+00 -0.00000000000E+00 -0.97200357500E+03  0.97200357500E+03  0.00000000000E+00 0.  1.
         25    1    1    2    0    0 -0.88089509855E+01 -0.98003381234E+02 -0.11905034101E+03  0.19869636143E+03  0.12500000000E+03 0.  0.
         25    1    1    2    0    0  0.12177669340E+03  0.84618334917E+02 -0.27117192780E+03  0.33339022194E+03  0.12500000000E+03 0.  0.
         25    1    1    2    0    0 -0.11296774242E+03  0.13385046317E+02 -0.49686954732E+03  0.52482875049E+03  0.12500000000E+03 0.  0.
</event>
<event>
 5    0  0.5561624E-005  0.3666375E+03  0.7546771E-02  0.1055986E+00
         21   -1    0    0  502  501  0.00000000000E+00  0.00000000000E+00  0.31568217980E+03  0.31568217980E+03  0.00000000000E+00 0. -1.
         21   -1    0    0  501  502 -0.00000000000E+00 -0.00000000000E+00 -0.42581766207E+03  0.42581766207E+03  0.00000000000E+00 0. -1.
         25    1    1    2    0    0  0.26058285241E+02 -0.22109511925E+02 -0.22797705297E+03  0.26223348647E+03  0.12500000000E+03 0.  0.
         25    1    1    2    0    0 -0.58628997813E+02 -0.10449513042E+01 -0.13581502724E+03  0.19367285027E+03  0.12500000000E+03 0.  0.
         25    1    1    2    0    0  0.32570712572E+02  0.23154463229E+02  0.25365659795E+03  0.28559350512E+03  0.12500000000E+03 0.  0.
</event>
<event>
 5    0  0.5561624E-005  0.4214162E+03  0.7546771E-02  0.1036606E+00
         21   -1    0    0  502  501  0.00000000000E+00  0.00000000000E+00  0.73053613641E+03  0.73053613641E+03  0.00000000000E+00 0. -1.
         21   -1    0    0  501  502 -0.00000000000E+00 -0.00000000000E+00 -0.24309763795E+03  0.24309763795E+03  0.00000000000E+00 0. -1.
         25    1    1    2    0    0 -0.30605810097E+03  0.11588888048E+03  0.18674470767E+03  0.39698914297E+03  0.12500000000E+03 0.  0.
         25    1    1    2    0    0  0.30670333902E+03 -0.74578375052E+02  0.13580379638E+03  0.36564537916E+03  0.12500000000E+03 0.  0.
         25    1    1    2    0    0 -0.64523804307E+00 -0.41310505427E+02  0.16488999440E+03  0.21099925224E+03  0.12500000000E+03 0.  0.
</event>
<event>
 5    0  0.5561624E-005  0.3590613E+03  0.7546771E-02  0.1058956E+00
         21   -1    0    0  502  501  0.00000000000E+00  0.00000000000E+00  0.48578739659E+03  0.48578739659E+03  0.00000000000E+00 0. -1.
         21   -1    0    0  501  502 -0.00000000000E+00 -0.00000000000E+00 -0.26539386891E+03  0.26539386891E+03  0.00000000000E+00 0. -1.
         25    1    1    2    0    0  0.95255133477E+02 -0.84221148719E+02  0.16943683791E+02  0.17910564136E+03  0.12500000000E+03 0.  0.
         25    1    1    2    0    0 -0.14840954096E+03 -0.96739560026E+02  0.26030522171E+03  0.33877388148E+03  0.12500000000E+03 0.  0.
         25    1    1    2    0    0  0.53154407486E+02  0.18096070874E+03 -0.56855377824E+02  0.23330174267E+03  0.12500000000E+03 0.  0.
</event>
<event>
 5    0  0.5561624E-005  0.2883567E+03  0.7546771E-02  0.1091210E+00
         21   -1    0    0  502  501  0.00000000000E+00  0.00000000000E+00  0.50776654981E+03  0.50776654981E+03  0.00000000000E+00 0. -1.
         21   -1    0    0  501  502 -0.00000000000E+00 -0.00000000000E+00 -0.16375557524E+03  0.16375557524E+03  0.00000000000E+00 0. -1.
         25    1    1    2    0    0  0.10911379386E+03  0.11826945445E+03  0.15941878919E+03  0.25871380755E+03  0.12500000000E+03 0.  0.
         25    1    1    2    0    0 -0.10836894777E+03  0.13688008787E+02  0.19287130612E+02  0.16711727569E+03  0.12500000000E+03 0.  0.
         25    1    1    2    0    0 -0.74484608364E+00 -0.13195746324E+03  0.16530505476E+03  0.24569104182E+03  0.12500000000E+03 0.  0.
</event>
<event>
 5    0  0.6585431E-005  0.3482262E+03  0.7546771E-02  0.1063345E+00
         21   -1    0    0  502  501  0.00000000000E+00  0.00000000000E+00  0.62879008966E+03  0.62879008966E+03  0.00000000000E+00 0. -1.
         21   -1    0    0  501  502 -0.00000000000E+00 -0.00000000000E+00 -0.19284894979E+03  0.19284894979E+03  0.00000000000E+00 0. -1.
         25    1    1    2    0    0 -0.32857878017E+02  0.57690261722E+02  0.22679917315E+03  0.26733999212E+03  0.12500000000E+03 0.  0.
         25    1    1    2    0    0  0.13555493183E+03 -0.18813590175E+03  0.22422392055E+03  0.34593586633E+03  0.12500000000E+03 0.  0.
         25    1    1    2    0    0 -0.10269705382E+03  0.13044564003E+03 -0.15081953822E+02  0.20836318100E+03  0.12500000000E+03 0.  0.
</event>
<event>
 5    0  0.5561624E-005  0.3427843E+03  0.7546771E-02  0.1065616E+00
         21   -1    0    0  502  501  0.00000000000E+00  0.00000000000E+00  0.10797868059E+03  0.10797868059E+03  0.00000000000E+00 0. -1.
         21   -1    0    0  501  502 -0.00000000000E+00 -0.00000000000E+00 -0.10881880139E+04  0.10881880139E+04  0.00000000000E+00 0. -1.
         25    1    1    2    0    0  0.24997524836E+02 -0.11050215061E+03 -0.17651653854E+02  0.16962364935E+03  0.12500000000E+03 0.  0.
         25    1    1    2    0    0 -0.11324683901E+03  0.10606126619E+03 -0.62275442194E+03  0.65385159537E+03  0.12500000000E+03 0.  0.
         25    1    1    2    0    0  0.88249314176E+02  0.44408844183E+01 -0.33980325756E+03  0.37269144980E+03  0.12500000000E+03 0.  0.
</event>
<event>
 5    0  0.5561624E-005  0.3307514E+03  0.7546771E-02  0.1070805E+00
         21   -1    0    0  502  501  0.00000000000E+00  0.00000000000E+00  0.15456967700E+04  0.15456967700E+04  0.00000000000E+00 0. -1.
         21   -1    0    0  501  502 -0.00000000000E+00 -0.00000000000E+00 -0.70774882255E+02  0.70774882255E+02  0.00000000000E+00 0. -1.
         25    1    1    2    0    0 -0.13611010016E+03 -0.74466747221E+02  0.31051240077E+03  0.36893658919E+03  0.12500000000E+03 0.  0.
         25    1    1    2    0    0  0.97393484903E+02  0.17202565245E+03  0.37911079590E+03  0.44545292857E+03  0.12500000000E+03 0.  0.
         25    1    1    2    0    0  0.38716615255E+02 -0.97558905228E+02  0.78529869103E+03  0.80208213446E+03  0.12500000000E+03 0.  0.
</event>
<event>
 5    0  0.5561624E-005  0.4358160E+03  0.7546771E-02  0.1032038E+00
         21   -1    0    0  502  501  0.00000000000E+00  0.00000000000E+00  0.17010152153E+03  0.17010152153E+03  0.00000000000E+00 0. -1.
         21   -1    0    0  501  502 -0.00000000000E+00 -0.00000000000E+00 -0.11166013532E+04  0.11166013532E+04  0.00000000000E+00 0. -1.
         25    1    1    2    0    0 -0.17782242941E+03 -0.15116635567E+03 -0.43294849288E+02  0.26827509662E+03  0.12500000000E+03 0.  0.
         25    1    1    2    0    0  0.20554977505E+03  0.14307705879E+03 -0.81762682404E+03  0.86421084126E+03  0.12500000000E+03 0.  0.
         25    1    1    2    0    0 -0.27727345638E+02  0.80892968818E+01 -0.85578158312E+02  0.15421693681E+03  0.12500000000E+03 0.  0.
</event>
<event>
 5    0  0.6315252E-005  0.3088465E+03  0.7546771E-02  0.1080900E+00
         21   -1    0    0  502  501  0.00000000000E+00  0.00000000000E+00  0.57889153037E+03  0.57889153037E+03  0.00000000000E+00 0.  1.
         21   -1    0    0  501  502 -0.00000000000E+00 -0.00000000000E+00 -0.16477377989E+03  0.16477377989E+03  0.00000000000E+00 0.  1.
         25    1    1    2    0    0 -0.16554338974E+03 -0.91291424698E+01  0.80388396053E+02  0.22265500073E+03  0.12500000000E+03 0.  0.
         25    1    1    2    0    0  0.26462382876E+02 -0.13556133548E+01  0.30608942392E+03  0.33168935893E+03  0.12500000000E+03 0.  0.
         25    1    1    2    0    0  0.13908100687E+03  0.10484755825E+02  0.27639930506E+02  0.18932095059E+03  0.12500000000E+03 0.  0.
</event>
<event>
 5    0  0.5561624E-005  0.3925078E+03  0.7546771E-02  0.1046405E+00
         21   -1    0    0  502  501  0.00000000000E+00  0.00000000000E+00  0.18345886497E+03  0.18345886497E+03  0.00000000000E+00 0. -1.
         21   -1    0    0  501  502 -0.00000000000E+00 -0.00000000000E+00 -0.83976528941E+03  0.83976528941E+03  0.00000000000E+00 0. -1.
         25    1    1    2    0    0 -0.22287389324E+03 -0.11457880419E+03 -0.52043968570E+03  0.59100214984E+03  0.12500000000E+03 0.  0.
         25    1    1    2    0    0  0.15879086238E+03  0.12264149273E+02  0.13724295718E+02  0.20292437908E+03  0.12500000000E+03 0.  0.
         25    1    1    2    0    0  0.64083030858E+02  0.10231465492E+03 -0.14959103446E+03  0.22929762547E+03  0.12500000000E+03 0.  0.
</event>
<event>
 5    0  0.5561624E-005  0.2228188E+03  0.7546771E-02  0.1131799E+00
         21   -1    0    0  502  501  0.00000000000E+00  0.00000000000E+00  0.42839619343E+03  0.42839619343E+03  0.00000000000E+00 0.  1.
         21   -1    0    0  501  502 -0.00000000000E+00 -0.00000000000E+00 -0.11589322574E+03  0.11589322574E+03  0.00000000000E+00 0.  1.
         25    1    1    2    0    0  0.37560073107E+02  0.23957610396E+02  0.30180261686E+02  0.13609031701E+03  0.12500000000E+03 0.  0.
         25    1    1    2    0    0 -0.16804418904E+02  0.62682160266E+02  0.14675079302E+03  0.20340166411E+03  0.12500000000E+03 0.  0.
         25    1    1    2    0    0 -0.20755654204E+02 -0.86639770662E+02  0.13557191298E+03  0.20479743805E+03  0.12500000000E+03 0.  0.
</event>
<event>
 5    0  0.5561624E-005  0.3847845E+03  0.7546771E-02  0.1049179E+00
         21   -1    0    0  502  501  0.00000000000E+00  0.00000000000E+00  0.20814341957E+03  0.20814341957E+03  0.00000000000E+00 0.  1.
         21   -1    0    0  501  502 -0.00000000000E+00 -0.00000000000E+00 -0.71133230709E+03  0.71133230709E+03  0.00000000000E+00 0.  1.
         25    1    1    2    0    0 -0.93526031725E+02 -0.48819922446E+02 -0.55541547065E+03  0.57900073271E+03  0.12500000000E+03 0.  0.
         25    1    1    2    0    0  0.19476369492E+02 -0.46530115801E+02 -0.44046922173E+02  0.14180801105E+03  0.12500000000E+03 0.  0.
         25    1    1    2    0    0  0.74049662233E+02  0.95350038246E+02  0.96273505308E+02  0.19866698290E+03  0.12500000000E+03 0.  0.
</event>
<event>
 5    0  0.5561624E-005  0.3081309E+03  0.7546771E-02  0.1081245E+00
         21   -1    0    0  502  501  0.00000000000E+00  0.00000000000E+00  0.19007203967E+03  0.19007203967E+03  0.00000000000E+00 0.  1.
         21   -1    0    0  501  502 -0.00000000000E+00 -0.00000000000E+00 -0.49951918288E+03  0.49951918288E+03  0.00000000000E+00 0.  1.
         25    1    1    2    0    0  0.18090264528E+03 -0.46249761031E+02 -0.59801118264E+02  0.23252092639E+03  0.12500000000E+03 0.  0.
         25    1    1    2    0    0 -0.31626821746E+02 -0.77756071780E+02 -0.11827772427E+03  0.19147031783E+03  0.12500000000E+03 0.  0.
         25    1    1    2    0    0 -0.14927582354E+03  0.12400583281E+03 -0.13136830067E+03  0.26559997832E+03  0.12500000000E+03 0.  0.
</event>
<event>
 5    0  0.5855223E-005  0.3961707E+03  0.7546771E-02  0.1045114E+00
         21   -1    0    0  502  501  0.00000000000E+00  0.00000000000E+00  0.19772960180E+03  0.19772960180E+03  0.00000000000E+00 0.  1.
         21   -1    0    0  501  502 -0.00000000000E+00 -0.00000000000E+00 -0.79376692857E+03  0.79376692857E+03  0.00000000000E+00 0.  1.
         25    1    1    2    0    0 -0.17864425622E+03 -0.10536431091E+03 -0.32528788839E+03  0.40552758060E+03  0.12500000000E+03 0.  0.
         25    1    1    2    0    0 -0.52335626709E+02  0.10051724142E+03  0.45601689007E+02  0.17477770935E+03  0.12500000000E+03 0.  0.
         25    1    1    2    0    0  0.23097988293E+03  0.48470694889E+01 -0.31635112738E+03  0.41119124042E+03  0.12500000000E+03 0.  0.
</event>
<event>
 5    0  0.6201762E-005  0.2960740E+03  0.7546771E-02  0.1087220E+00
         21   -1    0    0  502  501  0.00000000000E+00  0.00000000000E+00  0.41111656062E+03  0.41111656062E+03  0.00000000000E+00 0. -1.
         21   -1    0    0  501  502 -0.00000000000E+00 -0.00000000000E+00 -0.21322368712E+03  0.21322368712E+03  0.00000000000E+00 0. -1.
         25    1    1    2    0    0 -0.45395055173E+02  0.88700820466E+02  0.68028548617E+02  0.17372803462E+03  0.12500000000E+03 0.  0.
         25    1    1    2    0    0 -0.62766868984E+00 -0.19604149769E+03 -0.53383868641E+01  0.23256431617E+03  0.12500000000E+03 0.  0.
         25    1    1    2    0    0  0.46022723863E+02  0.10734067722E+03  0.13520271175E+03  0.21804789694E+03  0.12500000000E+03 0.  0.
</event>
<event>
 5    0  0.5561624E-005  0.3005968E+03  0.7546771E-02  0.1084943E+00
         21   -1    0    0  502  501  0.00000000000E+00  0.00000000000E+00  0.12066143339E+04  0.12066143339E+04  0.00000000000E+00 0. -1.
         21   -1    0    0  501  502 -0.00000000000E+00 -0.00000000000E+00 -0.74885911083E+02  0.74885911083E+02  0.00000000000E+00 0. -1.
         25    1    1    2    0    0 -0.10436994824E+03 -0.42312256439E+02  0.82497773713E+03  0.84196002274E+03  0.12500000000E+03 0.  0.
         25    1    1    2    0    0  0.90004996504E+01 -0.47152163656E+02  0.13127222429E+03  0.18751461917E+03  0.12500000000E+03 0.  0.
         25    1    1    2    0    0  0.95369448589E+02  0.89464420095E+02  0.17547846139E+03  0.25202560306E+03  0.12500000000E+03 0.  0.
</event>
<event>
 5    0  0.5561624E-005  0.2842683E+03  0.7546771E-02  0.1093380E+00
         21   -1    0    0  502  501  0.00000000000E+00  0.00000000000E+00  0.55413691848E+03  0.55413691848E+03  0.00000000000E+00 0.  1.
         21   -1    0    0  501  502 -0.00000000000E+00 -0.00000000000E+00 -0.14582765602E+03  0.14582765602E+03  0.00000000000E+00 0.  1.
         25    1    1    2    0    0  0.45975654875E+02  0.52567750217E+02  0.95332575008E+02  0.17201868812E+03  0.12500000000E+03 0.  0.
         25    1    1    2    0    0 -0.15973855380E+03  0.71905439453E+02  0.15380154712E+03  0.26451221841E+03  0.12500000000E+03 0.  0.
         25    1    1    2    0    0  0.11376289892E+03 -0.12447318967E+03  0.15917514033E+03  0.26343366796E+03  0.12500000000E+03 0.  0.
</event>
<event>
 5    0  0.5875634E-005  0.3256989E+03  0.7546771E-02  0.1073056E+00
         21   -1    0    0  502  501  0.00000000000E+00  0.00000000000E+00  0.28557100185E+03  0.28557100185E+03  0.00000000000E+00 0. -1.
         21   -1    0    0  501  502 -0.00000000000E+00 -0.00000000000E+00 -0.37146545439E+03  0.37146545439E+03  0.00000000000E+00 0. -1.
         25    1    1    2    0    0 -0.13785260978E+03  0.83542146093E+02  0.80063320782E+02  0.21912956791E+03  0.12500000000E+03 0.  0.
         25    1    1    2    0    0  0.26407901499E+02 -0.15726780945E+03 -0.19543544965E+02  0.20356200849E+03  0.12500000000E+03 0.  0.
         25    1    1    2    0    0  0.11144470828E+03  0.73725663354E+02 -0.14641422836E+03  0.23434487984E+03  0.12500000000E+03 0.  0.
</event>
<event>
 5    0  0.5561624E-005  0.3576437E+03  0.7546771E-02  0.1059521E+00
         21   -1    0    0  502  501  0.00000000000E+00  0.00000000000E+00  0.19732661059E+04  0.19732661059E+04  0.00000000000E+00 0. -1.
         21   -1    0    0  501  502 -0.00000000000E+00 -0.00000000000E+00 -0.64820967183E+02  0.64820967183E+02  0.00000000000E+00 0. -1.
         25    1    1    2    0    0  0.81613489838E+02 -0.15795165420E+01  0.82495841131E+03  0.83835829869E+03  0.12500000000E+03 0.  0.
         25    1    1    2    0    0 -0.18550950344E+03  0.98675122915E+01  0.98361192265E+03  0.10087757719E+04  0.12500000000E+03 0.  0.
         25    1    1    2    0    0  0.10389601360E+03 -0.82879957495E+01  0.99874804730E+02  0.19095300243E+03  0.12500000000E+03 0.  0.
</event>
<event>
 5    0  0.5561624E-005  0.3620725E+03  0.7546771E-02  0.1057766E+00
         21   -1    0    0  502  501  0.00000000000E+00  0.00000000000E+00  0.29133659350E+03  0.29133659350E+03  0.00000000000E+00 0. -1.
         21   -1    0    0  501  502 -0.00000000000E+00 -0.00000000000E+00 -0.44998296913E+03  0.44998296913E+03  0.00000000000E+00 0. -1.
         25    1    1    2    0    0  0.16964189038E+03  0.18022829350E+01  0.15355968435E+03  0.26074354422E+03  0.12500000000E+03 0.  0.
         25    1    1    2    0    0 -0.13186595353E+03 -0.79243208934E+02 -0.24336410447E+03  0.31387768829E+03  0.12500000000E+03 0.  0.
         25    1    1    2    0    0 -0.37775936851E+02  0.77440925999E+02 -0.68841955521E+02  0.16669833012E+03  0.12500000000E+03 0.  0.
</event>
<event>
 5    0  0.5561624E-005  0.2922571E+03  0.7546771E-02  0.1089177E+00
         21   -1    0    0  502  501  0.00000000000E+00  0.00000000000E+00  0.67481762469E+03  0.67481762469E+03  0.00000000000E+00 0.  1.
         21   -1    0    0  501  502 -0.00000000000E+00 -0.00000000000E+00 -0.12657373582E+03  0.12657373582E+03  0.00000000000E+00 0.  1.
         25    1    1    2    0    0  0.38035104327E+02  0.12728515397E+03  0.27585002141E+03  0.33070593266E+03  0.12500000000E+03 0.  0.
         25    1    1    2    0    0 -0.67136503733E+02 -0.17638019961E+03  0.93038213052E+02  0.24474148409E+03  0.12500000000E+03 0.  0.
         25    1    1    2    0    0  0.29101399407E+02  0.49095045638E+02  0.17935565440E+03  0.22594394375E+03  0.12500000000E+03 0.  0.
</event>
<event>
 5    0  0.5561624E-005  0.2582606E+03  0.7546771E-02  0.1108193E+00
         21   -1    0    0  502  501  0.00000000000E+00  0.00000000000E+00  0.58728467448E+03  0.58728467448E+03  0.00000000000E+00 0.  1.
         21   -1    0    0  501  502 -0.00000000000E+00 -0.00000000000E+00 -0.11357100950E+03  0.11357100950E+03  0.00000000000E+00 0.  1.
         25    1    1    2    0    0  0.93400396349E+01  0.26969477374E+02  0.28583224577E+03  0.31327250402E+03  0.12500000000E+03 0.  0.
         25    1    1    2    0    0  0.92803415594E+02  0.43804889479E+02  0.10487571968E+03  0.19275699434E+03  0.12500000000E+03 0.  0.
         25    1    1    2    0    0 -0.10214345523E+03 -0.70774366853E+02  0.83005699533E+02  0.19482618562E+03  0.12500000000E+03 0.  0.
</event>
<event>
 5    0  0.5561624E-005  0.4267444E+03  0.7546771E-02  0.1034893E+00
         21   -1    0    0  502  501  0.00000000000E+00  0.00000000000E+00  0.10601537205E+03  0.10601537205E+03  0.00000000000E+00 0.  1.
         21   -1    0    0  501  502 -0.00000000000E+00 -0.00000000000E+00 -0.17177773421E+04  0.17177773421E+04  0.00000000000E+00 0.  1.
         25    1    1    2    0    0 -0.14265752074E+02 -0.10199360214E+03 -0.32730454144E+03  0.36518415821E+03  0.12500000000E+03 0.  0.
         25    1    1    2    0    0 -0.22527598800E+03 -0.11943011834E+03 -0.29577419258E+03  0.41002462967E+03  0.12500000000E+03 0.  0.
         25    1    1    2    0    0  0.23954174007E+03  0.22142372047E+03 -0.98868323602E+03  0.10485839263E+04  0.12500000000E+03 0.  0.
</event>
<event>
 5    0  0.5561624E-005  0.3257614E+03  0.7546771E-02  0.1073028E+00
         21   -1    0    0  502  501  0.00000000000E+00  0.00000000000E+00  0.47787367072E+03  0.47787367072E+03  0.00000000000E+00 0. -1.
         21   -1    0    0  501  502 -0.00000000000E+00 -0.00000000000E+00 -0.22206809573E+03  0.22206809573E+03  0.00000000000E+00 0. -1.
         25    1    1    2    0    0 -0.35638787537E+02 -0.12883342304E+03  0.13809959154E+03  0.22926986556E+03  0.12500000000E+03 0.  0.
         25    1    1    2    0    0  0.31172975116E+02  0.24283981816E+03  0.12342837370E+03  0.30133452357E+03  0.12500000000E+03 0.  0.
         25    1    1    2    0    0  0.44658124201E+01 -0.11400639512E+03 -0.57223902434E+01  0.16933737733E+03  0.12500000000E+03 0.  0.
</event>
<event>
 5    0  0.5561624E-005  0.2803375E+03  0.7546771E-02  0.1095505E+00
         21   -1    0    0  502  501  0.00000000000E+00  0.00000000000E+00  0.43156608957E+03  0.43156608957E+03  0.00000000000E+00 0.  1.
         21   -1    0    0  501  502 -0.00000000000E+00 -0.00000000000E+00 -0.18210210099E+03  0.18210210099E+03  0.00000000000E+00 0.  1.
         25    1    1    2    0    0 -0.91757843793E+02 -0.64103426588E+02  0.14281052961E+03  0.22033746519E+03  0.12500000000E+03 0.  0.
         25    1    1    2    0    0  0.26977825547E+02 -0.66725946004E+02 -0.42143390236E+02  0.15027049039E+03  0.12500000000E+03 0.  0.
         25    1    1    2    0    0  0.64780018246E+02  0.13082937259E+03  0.14879684920E+03  0.24306023498E+03  0.12500000000E+03 0.  0.
</event>
<event>
 5    0  0.5561624E-005  0.3083771E+03  0.7546771E-02  0.1081126E+00
         21   -1    0    0  502  501  0.00000000000E+00  0.00000000000E+00  0.48420151918E+03  0.48420151918E+03  0.00000000000E+00 0. -1.
         21   -1    0    0  501  502 -0.00000000000E+00 -0.00000000000E+00 -0.19639843482E+03  0.19639843482E+03  0.00000000000E+00 0. -1.
         25    1    1    2    0    0  0.24084441366E+02 -0.81165194275E+02  0.26713710598E+03  0.30684700173E+03  0.12500000000E+03 0.  0.
         25    1    1    2    0    0 -0.96776130254E+02  0.50341033940E+01  0.10501354519E+03  0.18985206414E+03  0.12500000000E+03 0.  0.
         25    1    1    2    0    0  0.72691688887E+02  0.76131090881E+02 -0.84347566811E+02  0.18390088814E+03  0.12500000000E+03 0.  0.
</event>
<event>
 5    0  0.5561624E-005  0.2561559E+03  0.7546771E-02  0.1109475E+00
         21   -1    0    0  502  501  0.00000000000E+00  0.00000000000E+00  0.22197374071E+04  0.22197374071E+04  0.00000000000E+00 0.  1.
         21   -1    0    0  501  502 -0.00000000000E+00 -0.00000000000E+00 -0.29560180100E+02  0.29560180100E+02  0.00000000000E+00 0.  1.
         25    1    1    2    0    0  0.55421080198E+02  0.28461969745E+02  0.85890559139E+03  0.87018698840E+03  0.12500000000E+03 0.  0.
         25    1    1    2    0    0  0.36317388634E+02  0.82934570571E+02  0.40601390901E+03  0.43436089835E+03  0.12500000000E+03 0.  0.
         25    1    1    2    0    0 -0.91738468831E+02 -0.11139654032E+03  0.92525772660E+03  0.94474970044E+03  0.12500000000E+03 0.  0.
</event>
<event>
 5    0  0.5743423E-005  0.2971587E+03  0.7546771E-02  0.1086670E+00
         21   -1    0    0  502  501  0.00000000000E+00  0.00000000000E+00  0.12522912072E+04  0.12522912072E+04  0.00000000000E+00 0.  1.
         21   -1    0    0  501  502 -0.00000000000E+00 -0.00000000000E+00 -0.70513387824E+02  0.70513387824E+02  0.00000000000E+00 0.  1.
         25    1    1    2    0    0  0.77213834384E+02  0.76913721115E+02  0.47860240216E+03  0.50652043993E+03  0.12500000000E+03 0.  0.
         25    1    1    2    0    0 -0.56578404971E+02  0.11718880278E+03  0.35119083164E+03  0.39483456236E+03  0.12500000000E+03 0.  0.
         25    1    1    2    0    0 -0.20635429413E+02 -0.19410252390E+03  0.35198458557E+03  0.42144959273E+03  0.12500000000E+03 0.  0.
</event>
<event>
 5    0  0.5561624E-005  0.2670183E+03  0.7546771E-02  0.1102998E+00
         21   -1    0    0  502  501  0.00000000000E+00  0.00000000000E+00  0.10076613707E+04  0.10076613707E+04  0.00000000000E+00 0. -1.
         21   -1    0    0  501  502 -0.00000000000E+00 -0.00000000000E+00 -0.70756661825E+02  0.70756661825E+02  0.00000000000E+00 0. -1.
         25    1    1    2    0    0  0.14496296108E+02 -0.42835253802E+02  0.35659198016E+03  0.38056253347E+03  0.12500000000E+03 0.  0.
         25    1    1    2    0    0 -0.12398532944E+03  0.54677454352E+02  0.15422718151E+03  0.24036016610E+03  0.12500000000E+03 0.  0.
         25    1    1    2    0    0  0.10948903334E+03 -0.11842200549E+02  0.42608554721E+03  0.45749533295E+03  0.12500000000E+03 0.  0.
</event>
<event>
 5    0  0.5561624E-005  0.4588497E+03  0.7546771E-02  0.1025115E+00
         21   -1    0    0  502  501  0.00000000000E+00  0.00000000000E+00  0.21049975255E+03  0.21049975255E+03  0.00000000000E+00 0.  1.
         21   -1    0    0  501  502 -0.00000000000E+00 -0.00000000000E+00 -0.10002058234E+04  0.10002058234E+04  0.00000000000E+00 0.  1.
         25    1    1    2    0    0  0.20168669190E+03  0.13131036828E+03 -0.46341425814E+03  0.53693361709E+03  0.12500000000E+03 0.  0.
         25    1    1    2    0    0 -0.20443880201E+03  0.11238903083E+03 -0.29776171812E+03  0.39838870315E+03  0.12500000000E+03 0.  0.
         25    1    1    2    0    0  0.27521101143E+01 -0.24369939911E+03 -0.28530094586E+02  0.27538325572E+03  0.12500000000E+03 0.  0.
</event>
<event>
 5    0  0.5561624E-005  0.3929623E+03  0.7546771E-02  0.1046244E+00
         21   -1    0    0  502  501  0.00000000000E+00  0.00000000000E+00  0.49613316733E+03  0.49613316733E+03  0.00000000000E+00 0.  1.
         21   -1    0    0  501  502 -0.00000000000E+00 -0.00000000000E+00 -0.31124578488E+03  0.31124578488E+03  0.00000000000E+00 0.  1.
         25    1    1    2    0    0  0.15511680754E+02  0.31567906351E+03  0.14733120094E+03  0.37043942305E+03  0.12500000000E+03 0.  0.
         25    1    1    2    0    0 -0.59608579926E+02 -0.10971199268E+03 -0.37802228443E+02  0.18067626467E+03  0.12500000000E+03 0.  0.
         25    1    1    2    0    0  0.44096899172E+02 -0.20596707083E+03  0.75358409950E+02  0.25626326450E+03  0.12500000000E+03 0.  0.
</event>
<event>
 5    0  0.5561624E-005  0.2927277E+03  0.7546771E-02  0.1088934E+00
         21   -1    0    0  502  501  0.00000000000E+00  0.00000000000E+00  0.34954420650E+03  0.34954420650E+03  0.00000000000E+00 0.  1.
         21   -1    0    0  501  502 -0.00000000000E+00 -0.00000000000E+00 -0.24514632735E+03  0.24514632735E+03  0.00000000000E+00 0.  1.
         25    1    1    2    0    0  0.13800592212E+03 -0.45950651668E+01 -0.52500217087E+02  0.19351491405E+03  0.12500000000E+03 0.  0.
         25    1    1    2    0    0  0.22990952170E+02  0.69582570088E+02  0.11060804715E+03  0.18228948965E+03  0.12500000000E+03 0.  0.
         25    1    1    2    0    0 -0.16099687429E+03 -0.64987504921E+02  0.46290049093E+02  0.21888613015E+03  0.12500000000E+03 0.  0.
</event>
<event>
 5    0  0.5561624E-005  0.3887445E+03  0.7546771E-02  0.1047748E+00
         21   -1    0    0  502  501  0.00000000000E+00  0.00000000000E+00  0.25654620170E+03  0.25654620170E+03  0.00000000000E+00 0.  1.
         21   -1    0    0  501  502 -0.00000000000E+00 -0.00000000000E+00 -0.58906464537E+03  0.58906464537E+03  0.00000000000E+00 0.  1.
         25    1    1    2    0    0 -0.15174061453E+02 -0.69952114097E+02  0.15708741755E+03  0.21313143166E+03  0.12500000000E+03 0.  0.
         25    1    1    2    0    0  0.64449854842E+02  0.73413465433E+02 -0.40557307610E+02  0.16374741493E+03  0.12500000000E+03 0.  0.
         25    1    1    2    0    0 -0.49275793389E+02 -0.34613513367E+01 -0.44904855362E+03  0.46873200048E+03  0.12500000000E+03 0.  0.
</event>
<event>
 5    0  0.5561624E-005  0.3438516E+03  0.7546771E-02  0.1065167E+00
         21   -1    0    0  502  501  0.00000000000E+00  0.00000000000E+00  0.16923619294E+03  0.16923619294E+03  0.00000000000E+00 0. -1.
         21   -1    0    0  501  502 -0.00000000000E+00 -0.00000000000E+00 -0.69863279943E+03  0.69863279943E+03  0.00000000000E+00 0. -1.
         25    1    1    2    0    0  0.60457552829E+02  0.38445691049E+02 -0.47567800696E+03  0.49701886600E+03  0.12500000000E+03 0.  0.
         25    1    1    2    0    0 -0.30057592884E+01  0.34457143517E+02  0.90878610715E+02  0.15836745630E+03  0.12500000000E+03 0.  0.
         25    1    1    2    0    0 -0.57451793541E+02 -0.72902834566E+02 -0.14459721024E+03  0.21248267006E+03  0.12500000000E+03 0.  0.
</event>
<event>
 5    0  0.5561624E-005  0.3705918E+03  0.7546771E-02  0.1054467E+00
         21   -1    0    0  502  501  0.00000000000E+00  0.00000000000E+00  0.46145888246E+03  0.46145888246E+03  0.00000000000E+00 0.  1.
         21   -1    0    0  501  502 -0.00000000000E+00 -0.00000000000E+00 -0.29761756360E+03  0.29761756360E+03  0.00000000000E+00 0. -1.
         25    1    1    2    0    0 -0.39696115227E+02  0.66696036956E+02  0.16391563033E+02  0.14804670293E+03  0.12500000000E+03 0.  0.
         25    1    1    2    0    0  0.18976191649E+03  0.16635138738E+03  0.11869575595E+03  0.30560767581E+03  0.12500000000E+03 0.  0.
         25    1    1    2    0    0 -0.15006580126E+03 -0.23304742434E+03  0.28753999871E+02  0.30542206732E+03  0.12500000000E+03 0.  0.
</event>
<event>
 5    0  0.5561624E-005  0.3970830E+03  0.7546771E-02  0.1044794E+00
         21   -1    0    0  502  501  0.00000000000E+00  0.00000000000E+00  0.13930688978E+03  0.13930688978E+03  0.00000000000E+00 0.  1.
         21   -1    0    0  501  502 -0.00000000000E+00 -0.00000000000E+00 -0.11318527075E+04  0.11318527075E+04  0.00000000000E+00 0.  1.
         25    1    1    2    0    0  0.14184517587E+03 -0.13474271334E+03 -0.32277799292E+03  0.39760066076E+03  0.12500000000E+03 0.  0.
         25    1    1    2    0    0 -0.11248242400E+03  0.30429294877E+03 -0.39810711720E+03  0.52854590259E+03  0.12500000000E+03 0.  0.
         25    1    1    2    0    0 -0.29362751869E+02 -0.16955023542E+03 -0.27166070761E+03  0.34501303394E+03  0.12500000000E+03 0.  0.
</event>
<event>
 5    0  0.5561624E-005  0.3641363E+03  0.7546771E-02  0.1056958E+00
         21   -1    0    0  502  501  0.00000000000E+00  0.00000000000E+00  0.12502703970E+03  0.12502703970E+03  0.00000000000E+00 0. -1.
         21   -1    0    0  501  502 -0.00000000000E+00 -0.00000000000E+00 -0.10605326792E+04  0.10605326792E+04  0.00000000000E+00 0.  1.
         25    1    1    2    0    0 -0.25283845179E+03 -0.25959016148E+02 -0.39313428249E+03  0.48454176011E+03  0.12500000000E+03 0.  0.
         25    1    1    2    0    0  0.18495235382E+03 -0.77739582132E+02 -0.43429438485E+03  0.49445670035E+03  0.12500000000E+03 0.  0.
         25    1    1    2    0    0  0.67886097964E+02  0.10369859828E+03 -0.10807697218E+03  0.20656125846E+03  0.12500000000E+03 0.  0.
</event>
<event>
 5    0  0.5561624E-005  0.5386240E+03  0.7546771E-02  0.1004162E+00
         21   -1    0    0  502  501  0.00000000000E+00  0.00000000000E+00  0.15529195959E+04  0.15529195959E+04  0.00000000000E+00 0. -1.
         21   -1    0    0  501  502 -0.00000000000E+00 -0.00000000000E+00 -0.18681956884E+03  0.18681956884E+03  0.00000000000E+00 0. -1.
         25    1    1    2    0    0  0.99660786011E+02 -0.79829358585E+02  0.55035183793E+03  0.57863386029E+03  0.12500000000E+03 0.  0.
         25    1    1    2    0    0 -0.36227951161E+03  0.23353747590E+03  0.65747587483E+03  0.79604379476E+03  0.12500000000E+03 0.  0.
         25    1    1    2    0    0  0.26261872560E+03 -0.15370811732E+03  0.15827231426E+03  0.36506150965E+03  0.12500000000E+03 0.  0.
</event>
<event>
 5    0  0.5561624E-005  0.2848164E+03  0.7546771E-02  0.1093087E+00
         21   -1    0    0  502  501  0.00000000000E+00  0.00000000000E+00  0.40118934912E+02  0.40118934912E+02  0.00000000000E+00 0. -1.
         21   -1    0    0  501  502 -0.00000000000E+00 -0.00000000000E+00 -0.20219974762E+04  0.20219974762E+04  0.00000000000E+00 0. -1.
         25    1    1    2    0    0  0.28436129099E+01  0.86729649215E+02 -0.62893490324E+03  0.64708131692E+03  0.12500000000E+03 0.  0.
         25    1    1    2    0    0  0.12214652865E+03 -0.12498809260E+03 -0.51926625464E+03  0.56196462608E+03  0.12500000000E+03 0.  0.
         25    1    1    2    0    0 -0.12499014156E+03  0.38258443385E+02 -0.83367738341E+03  0.85307046812E+03  0.12500000000E+03 0.  0.
</event>
<event>
 5    0  0.7326200E-005  0.3098236E+03  0.7546771E-02  0.1080430E+00
         21   -1    0    0  502  501  0.00000000000E+00  0.00000000000E+00  0.57020119814E+03  0.57020119814E+03  0.00000000000E+00 0. -1.
         21   -1    0    0  501  502 -0.00000000000E+00 -0.00000000000E+00 -0.16834527748E+03  0.16834527748E+03  0.00000000000E+00 0. -1.
         25    1    1    2    0    0 -0.54189980809E+02 -0.82780764738E+02  0.15078127409E+03  0.21942926342E+03  0.12500000000E+03 0.  0.
         25    1    1    2    0    0 -0.53117574981E+01 -0.93147707270E+02 -0.30971646918E+02  0.15902500763E+03  0.12500000000E+03 0.  0.
         25    1    1    2    0    0  0.59501738307E+02  0.17592847201E+03  0.28204629349E+03  0.36009220458E+03  0.12500000000E+03 0.  0.
</event>
<event>
 5    0  0.6170856E-005  0.3511012E+03  0.7546771E-02  0.1062164E+00
         21   -1    0    0  502  501  0.00000000000E+00  0.00000000000E+00  0.65342147602E+03  0.65342147602E+03  0.00000000000E+00 0.  1.
         21   -1    0    0  501  502 -0.00000000000E+00 -0.00000000000E+00 -0.18865621762E+03  0.18865621762E+03  0.00000000000E+00 0.  1.
         25    1    1    2    0    0 -0.15681806252E+03 -0.59910632541E+01  0.42622530352E+03  0.47108471311E+03  0.12500000000E+03 0.  0.
         25    1    1    2    0    0  0.21305071671E+02 -0.42294178072E+02 -0.70814193159E+02  0.15126914269E+03  0.12500000000E+03 0.  0.
         25    1    1    2    0    0  0.13551299085E+03  0.48285241326E+02  0.10935414805E+03  0.21972383783E+03  0.12500000000E+03 0.  0.
</event>
<event>
 5    0  0.5561624E-005  0.2077968E+03  0.7546771E-02  0.1143323E+00
         21   -1    0    0  502  501  0.00000000000E+00  0.00000000000E+00  0.22998745658E+03  0.22998745658E+03  0.00000000000E+00 0.  1.
         21   -1    0    0  501  502 -0.00000000000E+00 -0.00000000000E+00 -0.18774720596E+03  0.18774720596E+03  0.00000000000E+00 0.  1.
         25    1    1    2    0    0  0.59889890427E+02  0.39562715957E+02  0.84161950276E+01  0.14438781046E+03  0.12500000000E+03 0.  0.
         25    1    1    2    0    0 -0.51458751689E+02 -0.16945905879E+02 -0.14866279470E+02  0.13704442023E+03  0.12500000000E+03 0.  0.
         25    1    1    2    0    0 -0.84311387380E+01 -0.22616810079E+02  0.48690335066E+02  0.13630243185E+03  0.12500000000E+03 0.  0.
</event>
<event>
 5    0  0.5561624E-005  0.2769185E+03  0.7546771E-02  0.1097384E+00
         21   -1    0    0  502  501  0.00000000000E+00  0.00000000000E+00  0.86848812500E+02  0.86848812500E+02  0.00000000000E+00 0.  1.
         21   -1    0    0  501  502 -0.00000000000E+00 -0.00000000000E+00 -0.88295779630E+03  0.88295779630E+03  0.00000000000E+00 0.  1.
         25    1    1    2    0    0  0.12407865643E+03 -0.57692352314E+02 -0.14270952863E+03  0.23391222725E+03  0.12500000000E+03 0.  0.
         25    1    1    2    0    0 -0.11634536962E+03  0.66447284851E+02 -0.52612043097E+03  0.55711685899E+03  0.12500000000E+03 0.  0.
         25    1    1    2    0    0 -0.77332868112E+01 -0.87549325367E+01 -0.12727902421E+03  0.17877752256E+03  0.12500000000E+03 0.  0.
</event>
<event>
 5    0  0.5770931E-005  0.3262420E+03  0.7546771E-02  0.1072812E+00
         21   -1    0    0  502  501  0.00000000000E+00  0.00000000000E+00  0.58284463100E+03  0.58284463100E+03  0.00000000000E+00 0.  1.
         21   -1    0    0  501  502 -0.00000000000E+00 -0.00000000000E+00 -0.18261101514E+03  0.18261101514E+03  0.00000000000E+00 0.  1.
         25    1    1    2    0    0  0.48565408727E+02 -0.87197862138E+02  0.28335610322E+03  0.32538860969E+03  0.12500000000E+03 0.  0.
         25    1    1    2    0    0 -0.16048997118E+03 -0.43692556807E+02  0.30008737177E+02  0.21021796945E+03  0.12500000000E+03 0.  0.
         25    1    1    2    0    0  0.11192456246E+03  0.13089041895E+03  0.86868775463E+02  0.22984906701E+03  0.12500000000E+03 0.  0.
</event>
<event>
 5    0  0.5561624E-005  0.2708561E+03  0.7546771E-02  0.1100791E+00
         21   -1    0    0  502  501  0.00000000000E+00  0.00000000000E+00  0.38695990394E+03  0.38695990394E+03  0.00000000000E+00 0. -1.
         21   -1    0    0  501  502 -0.00000000000E+00 -0.00000000000E+00 -0.18958814549E+03  0.18958814549E+03  0.00000000000E+00 0. -1.
         25    1    1    2    0    0 -0.24919374092E+02  0.13121173353E+03  0.23957253929E+02  0.18448968599E+03  0.12500000000E+03 0.  0.
         25    1    1    2    0    0  0.66758997057E+02 -0.66677637639E+01  0.15445925759E+03  0.20972335353E+03  0.12500000000E+03 0.  0.
         25    1    1    2    0    0 -0.41839622965E+02 -0.12454396976E+03  0.18955246927E+02  0.18233500991E+03  0.12500000000E+03 0.  0.
</event>
<event>
 5    0  0.5561624E-005  0.2306733E+03  0.7546771E-02  0.1126167E+00
         21   -1    0    0  502  501  0.00000000000E+00  0.00000000000E+00  0.26189243732E+03  0.26189243732E+03  0.00000000000E+00 0.  1.
         21   -1    0    0  501  502 -0.00000000000E+00 -0.00000000000E+00 -0.20317561569E+03  0.20317561569E+03  0.00000000000E+00 0.  1.
         25    1    1    2    0    0  0.52864832469E+02  0.98226297758E+02  0.21856534313E+02  0.16895503596E+03  0.12500000000E+03 0.  0.
         25    1    1    2    0    0 -0.17297913301E+02 -0.57818368500E+01 -0.17687968871E+02  0.12755591591E+03  0.12500000000E+03 0.  0.
         25    1    1    2    0    0 -0.35566919168E+02 -0.92444460908E+02  0.54548256188E+02  0.16855710114E+03  0.12500000000E+03 0.  0.
</event>
<event>
 5    0  0.5561624E-005  0.4266836E+03  0.7546771E-02  0.1034913E+00
         21   -1    0    0  502  501  0.00000000000E+00  0.00000000000E+00  0.18664152982E+04  0.18664152982E+04  0.00000000000E+00 0. -1.
         21   -1    0    0  501  502 -0.00000000000E+00 -0.00000000000E+00 -0.97544678824E+02  0.97544678824E+02  0.00000000000E+00 0. -1.
         25    1    1    2    0    0 -0.23231704909E+03 -0.31108422835E+02  0.26873859745E+03  0.37786820325E+03  0.12500000000E+03 0.  0.
         25    1    1    2    0    0  0.28951135624E+02  0.16296931664E+03  0.37664886051E+03  0.42998433756E+03  0.12500000000E+03 0.  0.
         25    1    1    2    0    0  0.20336591347E+03 -0.13186089381E+03  0.11234831614E+04  0.11561074362E+04  0.12500000000E+03 0.  0.
</event>
<event>
 5    0  0.5561624E-005  0.4563862E+03  0.7546771E-02  0.1025835E+00
         21   -1    0    0  502  501  0.00000000000E+00  0.00000000000E+00  0.49941924220E+03  0.49941924220E+03  0.00000000000E+00 0.  1.
         21   -1    0    0  501  502 -0.00000000000E+00 -0.00000000000E+00 -0.41706107504E+03  0.41706107504E+03  0.00000000000E+00 0.  1.
         25    1    1    2    0    0  0.68912779581E+02 -0.21659949530E+03  0.28426869738E+03  0.38483503591E+03  0.12500000000E+03 0.  0.
         25    1    1    2    0    0  0.31478468242E+01  0.29965953363E+03 -0.14610114494E+03  0.35605658201E+03  0.12500000000E+03 0.  0.
         25    1    1    2    0    0 -0.72060626405E+02 -0.83060038332E+02 -0.55809385283E+02  0.17558869933E+03  0.12500000000E+03 0.  0.
</event>
<event>
 5    0  0.5561624E-005  0.3109154E+03  0.7546771E-02  0.1079908E+00
         21   -1    0    0  502  501  0.00000000000E+00  0.00000000000E+00  0.50646983495E+03  0.50646983495E+03  0.00000000000E+00 0. -1.
         21   -1    0    0  501  502 -0.00000000000E+00 -0.00000000000E+00 -0.19086700961E+03  0.19086700961E+03  0.00000000000E+00 0. -1.
         25    1    1    2    0    0  0.84523829349E+02  0.84334579251E+02  0.74514447374E+02  0.18823921444E+03  0.12500000000E+03 0.  0.
         25    1    1    2    0    0 -0.93821016906E+02  0.65480293457E+02 -0.32888206179E+02  0.17261716644E+03  0.12500000000E+03 0.  0.
         25    1    1    2    0    0  0.92971875569E+01 -0.14981487271E+03  0.27397658414E+03  0.33648046368E+03  0.12500000000E+03 0.  0.
</event>
<event>
 5    0  0.5633503E-005  0.3128141E+03  0.7546771E-02  0.1079005E+00
         21   -1    0    0  502  501  0.00000000000E+00  0.00000000000E+00  0.44470009246E+03  0.44470009246E+03  0.00000000000E+00 0. -1.
         21   -1    0    0  501  502 -0.00000000000E+00 -0.00000000000E+00 -0.22004190627E+03  0.22004190627E+03  0.00000000000E+00 0. -1.
         25    1    1    2    0    0 -0.10036245120E+03 -0.46824727501E+02  0.67278957307E+02  0.18004620188E+03  0.12500000000E+03 0.  0.
         25    1    1    2    0    0 -0.13580781542E+03 -0.10989371317E+02  0.69312072864E+02  0.19746820619E+03  0.12500000000E+03 0.  0.
         25    1    1    2    0    0  0.23617026663E+03  0.57814098817E+02  0.88067156018E+02  0.28722759065E+03  0.12500000000E+03 0.  0.
</event>
<event>
 5    0  0.5561624E-005  0.4371073E+03  0.7546771E-02  0.1031638E+00
         21   -1    0    0  502  501  0.00000000000E+00  0.00000000000E+00  0.92319691410E+03  0.92319691410E+03  0.00000000000E+00 0. -1.
         21   -1    0    0  501  502 -0.00000000000E+00 -0.00000000000E+00 -0.20695781089E+03  0.20695781089E+03  0.00000000000E+00 0. -1.
         25    1    1    2    0    0  0.16537161035E+03 -0.28890266869E+03  0.41996522298E+03  0.55028021044E+03  0.12500000000E+03 0.  0.
         25    1    1    2    0    0 -0.19218437689E+03  0.29117651368E+03  0.21856179128E+03  0.43024743282E+03  0.12500000000E+03 0.  0.
         25    1    1    2    0    0  0.26812766539E+02 -0.22738449884E+01  0.77712088954E+02  0.14962708174E+03  0.12500000000E+03 0.  0.
</event>
<event>
 5    0  0.5561624E-005  0.3026470E+03  0.7546771E-02  0.1083925E+00
         21   -1    0    0  502  501  0.00000000000E+00  0.00000000000E+00  0.26003790038E+03  0.26003790038E+03  0.00000000000E+00 0. -1.
         21   -1    0    0  501  502 -0.00000000000E+00 -0.00000000000E+00 -0.35223797857E+03  0.35223797857E+03  0.00000000000E+00 0. -1.
         25    1    1    2    0    0 -0.70072930964E+02 -0.22310116249E+02 -0.31735536769E+02  0.14845908943E+03  0.12500000000E+03 0.  0.
         25    1    1    2    0    0 -0.64834382706E+02  0.82470548010E+02 -0.17473830597E+03  0.23908861128E+03  0.12500000000E+03 0.  0.
         25    1    1    2    0    0  0.13490731367E+03 -0.60160431761E+02  0.11427376455E+03  0.22472817824E+03  0.12500000000E+03 0.  0.
</event>
<event>
 5    0  0.5561624E-005  0.2372379E+03  0.7546771E-02  0.1121647E+00
         21   -1    0    0  502  501  0.00000000000E+00  0.00000000000E+00  0.52569708043E+03  0.52569708043E+03  0.00000000000E+00 0.  1.
         21   -1    0    0  501  502 -0.00000000000E+00 -0.00000000000E+00 -0.10706128311E+03  0.10706128311E+03  0.00000000000E+00 0.  1.
         25    1    1    2    0    0  0.58837967066E+02 -0.20708803844E+02  0.20866452641E+03  0.25111082316E+03  0.12500000000E+03 0.  0.
         25    1    1    2    0    0 -0.17759139620E+02 -0.41294045633E+01 -0.71855930175E+01  0.12652696064E+03  0.12500000000E+03 0.  0.
         25    1    1    2    0    0 -0.41078827446E+02  0.24838208407E+02  0.21715686392E+03  0.25512057974E+03  0.12500000000E+03 0.  0.
</event>
<event>
 5    0  0.5561624E-005  0.2611140E+03  0.7546771E-02  0.1106476E+00
         21   -1    0    0  502  501  0.00000000000E+00  0.00000000000E+00  0.69112495864E+03  0.69112495864E+03  0.00000000000E+00 0. -1.
         21   -1    0    0  501  502 -0.00000000000E+00 -0.00000000000E+00 -0.98651495404E+02  0.98651495404E+02  0.00000000000E+00 0. -1.
         25    1    1    2    0    0  0.74895851654E+02  0.90818933960E+02  0.18947667165E+03  0.25570271109E+03  0.12500000000E+03 0.  0.
         25    1    1    2    0    0 -0.80505054534E+02  0.54305280156E+02  0.16731119650E+03  0.23032186986E+03  0.12500000000E+03 0.  0.
         25    1    1    2    0    0  0.56092028800E+01 -0.14512421412E+03  0.23568559508E+03  0.30375187309E+03  0.12500000000E+03 0.  0.
</event>
<event>
 5    0  0.5561624E-005  0.2966037E+03  0.7546771E-02  0.1086951E+00
         21   -1    0    0  502  501  0.00000000000E+00  0.00000000000E+00  0.17644048667E+03  0.17644048667E+03  0.00000000000E+00 0. -1.
         21   -1    0    0  501  502 -0.00000000000E+00 -0.00000000000E+00 -0.49860300406E+03  0.49860300406E+03  0.00000000000E+00 0. -1.
         25    1    1    2    0    0 -0.50008234817E+02  0.10582272640E+03 -0.10998678750E+03  0.20352239777E+03  0.12500000000E+03 0.  0.
         25    1    1    2    0    0  0.14252028876E+03 -0.23608440663E+02 -0.22498684253E+03  0.29514991189E+03  0.12500000000E+03 0.  0.
         25    1    1    2    0    0 -0.92512053944E+02 -0.82214285733E+02  0.12811112634E+02  0.17637118107E+03  0.12500000000E+03 0.  0.
</event>
<event>
 5    0  0.5561624E-005  0.2902187E+03  0.7546771E-02  0.1090235E+00
         21   -1    0    0  502  501  0.00000000000E+00  0.00000000000E+00  0.37738211792E+03  0.37738211792E+03  0.00000000000E+00 0. -1.
         21   -1    0    0  501  502 -0.00000000000E+00 -0.00000000000E+00 -0.22318728194E+03  0.22318728194E+03  0.00000000000E+00 0. -1.
         25    1    1    2    0    0  0.25985070858E+02 -0.34180908468E+02  0.82547779757E+02  0.15582905491E+03  0.12500000000E+03 0.  0.
         25    1    1    2    0    0 -0.18589682557E+03 -0.18183945647E+02  0.69010111979E+02  0.23510780760E+03  0.12500000000E+03 0.  0.
         25    1    1    2    0    0  0.15991175472E+03  0.52364854115E+02  0.26369442423E+01  0.20963253735E+03  0.12500000000E+03 0.  0.
</event>
<event>
 5    0  0.5561624E-005  0.3072042E+03  0.7546771E-02  0.1081694E+00
         21   -1    0    0  502  501  0.00000000000E+00  0.00000000000E+00  0.11561509959E+03  0.11561509959E+03  0.00000000000E+00 0.  1.
         21   -1    0    0  501  502 -0.00000000000E+00 -0.00000000000E+00 -0.81628129905E+03  0.81628129905E+03  0.00000000000E+00 0.  1.
         25    1    1    2    0    0 -0.12010250370E+03 -0.40332493401E+02 -0.29676891012E+03  0.34604639492E+03  0.12500000000E+03 0.  0.
         25    1    1    2    0    0  0.12349340822E+03  0.15516404280E+03 -0.31945625820E+03  0.39623705399E+03  0.12500000000E+03 0.  0.
         25    1    1    2    0    0 -0.33909045150E+01 -0.11483154940E+03 -0.84441031136E+02  0.18961294974E+03  0.12500000000E+03 0.  0.
</event>
<event>
 5    0  0.5561624E-005  0.4114352E+03  0.7546771E-02  0.1039890E+00
         21   -1    0    0  502  501  0.00000000000E+00  0.00000000000E+00  0.37563651804E+03  0.37563651804E+03  0.00000000000E+00 0. -1.
         21   -1    0    0  501  502 -0.00000000000E+00 -0.00000000000E+00 -0.45064550011E+03  0.45064550011E+03  0.00000000000E+00 0.  1.
         25    1    1    2    0    0 -0.14745591428E+03 -0.16503426697E+03 -0.16806220658E+03  0.30471209561E+03  0.12500000000E+03 0.  0.
         25    1    1    2    0    0  0.11202359721E+03 -0.11569413280E+03  0.35893530775E+02  0.20699701507E+03  0.12500000000E+03 0.  0.
         25    1    1    2    0    0  0.35432317076E+02  0.28072839977E+03  0.57159693723E+02  0.31457290748E+03  0.12500000000E+03 0.  0.
</event>
<event>
 5    0  0.5561624E-005  0.2763668E+03  0.7546771E-02  0.1097690E+00
         21   -1    0    0  502  501  0.00000000000E+00  0.00000000000E+00  0.84691586806E+02  0.84691586806E+02  0.00000000000E+00 0. -1.
         21   -1    0    0  501  502 -0.00000000000E+00 -0.00000000000E+00 -0.90184405246E+03  0.90184405246E+03  0.00000000000E+00 0. -1.
         25    1    1    2    0    0 -0.69592019582E+02  0.54002579659E+01 -0.11093074451E+03  0.18111554890E+03  0.12500000000E+03 0.  0.
         25    1    1    2    0    0 -0.40659481256E+02 -0.18361045502E+02 -0.75026426599E+02  0.15246076904E+03  0.12500000000E+03 0.  0.
         25    1    1    2    0    0  0.11025150084E+03  0.12960787536E+02 -0.63119529454E+03  0.65295932132E+03  0.12500000000E+03 0.  0.
</event>
<event>
 5    0  0.5561624E-005  0.4203624E+03  0.7546771E-02  0.1036948E+00
         21   -1    0    0  502  501  0.00000000000E+00  0.00000000000E+00  0.95122543136E+03  0.95122543136E+03  0.00000000000E+00 0. -1.
         21   -1    0    0  501  502 -0.00000000000E+00 -0.00000000000E+00 -0.18576516312E+03  0.18576516312E+03  0.00000000000E+00 0. -1.
         25    1    1    2    0    0 -0.28640620788E+02 -0.14746199897E+03  0.10271277815E+03  0.22077192098E+03  0.12500000000E+03 0.  0.
         25    1    1    2    0    0 -0.17952684838E+03  0.25814931565E+03  0.23469225708E+03  0.41179656870E+03  0.12500000000E+03 0.  0.
         25    1    1    2    0    0  0.20816746917E+03 -0.11068731668E+03  0.42805523302E+03  0.50442210480E+03  0.12500000000E+03 0.  0.
</event>
<event>
 5    0  0.5561624E-005  0.3133414E+03  0.7546771E-02  0.1078755E+00
         21   -1    0    0  502  501  0.00000000000E+00  0.00000000000E+00  0.14833319355E+03  0.14833319355E+03  0.00000000000E+00 0. -1.
         21   -1    0    0  501  502 -0.00000000000E+00 -0.00000000000E+00 -0.66190727103E+03  0.66190727103E+03  0.00000000000E+00 0. -1.
         25    1    1    2    0    0  0.39230131821E+02 -0.45228390774E+02 -0.20600086180E+03  0.24828605607E+03  0.12500000000E+03 0.  0.
         25    1    1    2    0    0  0.17273393570E+03 -0.36084244196E+01 -0.18691797148E+03  0.28357249749E+03  0.12500000000E+03 0.  0.
         25    1    1    2    0    0 -0.21196406752E+03  0.48836815193E+02 -0.12065524419E+03  0.27838191103E+03  0.12500000000E+03 0.  0.
</event>
<event>
 5    0  0.5561624E-005  0.2978122E+03  0.7546771E-02  0.1086339E+00
         21   -1    0    0  502  501  0.00000000000E+00  0.00000000000E+00  0.10032668430E+04  0.10032668430E+04  0.00000000000E+00 0. -1.
         21   -1    0    0  501  502 -0.00000000000E+00 -0.00000000000E+00 -0.88403326154E+02  0.88403326154E+02  0.00000000000E+00 0. -1.
         25    1    1    2    0    0 -0.92239066946E+02  0.15199283836E+03  0.31225787858E+03  0.38044690973E+03  0.12500000000E+03 0.  0.
         25    1    1    2    0    0  0.36514354145E+02 -0.18760568282E+03  0.43992394806E+03  0.49566850854E+03  0.12500000000E+03 0.  0.
         25    1    1    2    0    0  0.55724712801E+02  0.35612844453E+02  0.16268169025E+03  0.21555475093E+03  0.12500000000E+03 0.  0.
</event>
<event>
 5    0  0.5561624E-005  0.2590984E+03  0.7546771E-02  0.1107686E+00
         21   -1    0    0  502  501  0.00000000000E+00  0.00000000000E+00  0.65457760135E+02  0.65457760135E+02  0.00000000000E+00 0. -1.
         21   -1    0    0  501  502 -0.00000000000E+00 -0.00000000000E+00 -0.10255774358E+04  0.10255774358E+04  0.00000000000E+00 0. -1.
         25    1    1    2    0    0  0.10476822201E+03  0.43156448578E+02 -0.28055003547E+03  0.32737162644E+03  0.12500000000E+03 0.  0.
         25    1    1    2    0    0  0.49020659709E+02  0.10083404905E+02 -0.19044440222E+03  0.23323543999E+03  0.12500000000E+03 0.  0.
         25    1    1    2    0    0 -0.15378888171E+03 -0.53239853483E+02 -0.48912523794E+03  0.53042812946E+03  0.12500000000E+03 0.  0.
</event>
<event>
 5    0  0.5561624E-005  0.3083164E+03  0.7546771E-02  0.1081156E+00
         21   -1    0    0  502  501  0.00000000000E+00  0.00000000000E+00  0.10505004815E+04  0.10505004815E+04  0.00000000000E+00 0. -1.
         21   -1    0    0  501  502 -0.00000000000E+00 -0.00000000000E+00 -0.90489230536E+02  0.90489230536E+02  0.00000000000E+00 0. -1.
         25    1    1    2    0    0 -0.96264567614E+02 -0.10552975506E+03  0.50602672903E+03  0.54045485166E+03  0.12500000000E+03 0.  0.
         25    1    1    2    0    0  0.14867957506E+02  0.75086451542E+02  0.41959395727E+03  0.44445823239E+03  0.12500000000E+03 0.  0.
         25    1    1    2    0    0  0.81396610108E+02  0.30443303522E+02  0.34390564664E+02  0.15607662799E+03  0.12500000000E+03 0.  0.
</event>
<event>
 5    0  0.5561624E-005  0.2609900E+03  0.7546771E-02  0.1106550E+00
         21   -1    0    0  502  501  0.00000000000E+00  0.00000000000E+00  0.94754447450E+03  0.94754447450E+03  0.00000000000E+00 0.  1.
         21   -1    0    0  501  502 -0.00000000000E+00 -0.00000000000E+00 -0.71886620809E+02  0.71886620809E+02  0.00000000000E+00 0.  1.
         25    1    1    2    0    0 -0.11370326088E+02 -0.45013396053E+01  0.72090462288E+02  0.14481567984E+03  0.12500000000E+03 0.  0.
         25    1    1    2    0    0 -0.38119498837E+02  0.39456155000E+02  0.13579935632E+03  0.19255219951E+03  0.12500000000E+03 0.  0.
         25    1    1    2    0    0  0.49489824925E+02 -0.34954815394E+02  0.66776803509E+03  0.68206321597E+03  0.12500000000E+03 0.  0.
</event>
<event>
 5    0  0.5561624E-005  0.2765651E+03  0.7546771E-02  0.1097580E+00
         21   -1    0    0  502  501  0.00000000000E+00  0.00000000000E+00  0.36783844507E+03  0.36783844507E+03  0.00000000000E+00 0.  1.
         21   -1    0    0  501  502 -0.00000000000E+00 -0.00000000000E+00 -0.20793973336E+03  0.20793973336E+03  0.00000000000E+00 0.  1.
         25    1    1    2    0    0  0.73307778824E+02 -0.84161425964E+02  0.11512930220E+03  0.20331485996E+03  0.12500000000E+03 0.  0.
         25    1    1    2    0    0 -0.59084941367E+02 -0.75876853461E+02 -0.19683738440E+02  0.15893639214E+03  0.12500000000E+03 0.  0.
         25    1    1    2    0    0 -0.14222837457E+02  0.16003827943E+03  0.64453147953E+02  0.21352692633E+03  0.12500000000E+03 0.  0.
</event>
<event>
 5    0  0.6565108E-005  0.2926925E+03  0.7546771E-02  0.1088952E+00
         21   -1    0    0  502  501  0.00000000000E+00  0.00000000000E+00  0.33791077915E+03  0.33791077915E+03  0.00000000000E+00 0.  1.
         21   -1    0    0  501  502 -0.00000000000E+00 -0.00000000000E+00 -0.25352521482E+03  0.25352521482E+03  0.00000000000E+00 0.  1.
         25    1    1    2    0    0  0.86801951277E+02 -0.97986763317E+02  0.92196601367E+02  0.20312852541E+03  0.12500000000E+03 0.  0.
         25    1    1    2    0    0 -0.18049261611E+02  0.51505253636E+02  0.12717168194E+03  0.18648378933E+03  0.12500000000E+03 0.  0.
         25    1    1    2    0    0 -0.68752689665E+02  0.46481509681E+02 -0.13498271897E+03  0.20182367923E+03  0.12500000000E+03 0.  0.
</event>
<event>
 5    0  0.7404341E-005  0.3374891E+03  0.7546771E-02  0.1067870E+00
         21   -1    0    0  502  501  0.00000000000E+00  0.00000000000E+00  0.78818932612E+03  0.78818932612E+03  0.00000000000E+00 0. -1.
         21   -1    0    0  501  502 -0.00000000000E+00 -0.00000000000E+00 -0.14450704268E+03  0.14450704268E+03  0.00000000000E+00 0. -1.
         25    1    1    2    0    0  0.14986763623E+03 -0.97281740266E+02  0.11120280572E+03  0.24477563069E+03  0.12500000000E+03 0.  0.
         25    1    1    2    0    0  0.13099169422E+02  0.58689988410E+01  0.41623295539E+03  0.43483434379E+03  0.12500000000E+03 0.  0.
         25    1    1    2    0    0 -0.16296680565E+03  0.91412741425E+02  0.11624652233E+03  0.25308639432E+03  0.12500000000E+03 0.  0.
</event>
<event>
 5    0  0.5561624E-005  0.2410178E+03  0.7546771E-02  0.1119117E+00
         21   -1    0    0  502  501  0.00000000000E+00  0.00000000000E+00  0.26800249657E+03  0.26800249657E+03  0.00000000000E+00 0. -1.
         21   -1    0    0  501  502 -0.00000000000E+00 -0.00000000000E+00 -0.21675008370E+03  0.21675008370E+03  0.00000000000E+00 0. -1.
         25    1    1    2    0    0 -0.10531457063E+03  0.35292573845E+02  0.48919874296E+02  0.17422651537E+03  0.12500000000E+03 0.  0.
         25    1    1    2    0    0  0.43430067494E+02 -0.75694981977E+01 -0.71170430482E+02  0.15044500072E+03  0.12500000000E+03 0.  0.
         25    1    1    2    0    0  0.61884503138E+02 -0.27723075648E+02  0.73502969059E+02  0.16008106419E+03  0.12500000000E+03 0.  0.
</event>
<event>
 5    0  0.5561624E-005  0.2499649E+03  0.7546771E-02  0.1113327E+00
         21   -1    0    0  502  501  0.00000000000E+00  0.00000000000E+00  0.21003920798E+03  0.21003920798E+03  0.00000000000E+00 0.  1.
         21   -1    0    0  501  502 -0.00000000000E+00 -0.00000000000E+00 -0.29747991634E+03  0.29747991634E+03  0.00000000000E+00 0.  1.
         25    1    1    2    0    0 -0.66843346222E+02 -0.79240037511E+02  0.72189971051E+02  0.17771721470E+03  0.12500000000E+03 0.  0.
         25    1    1    2    0    0  0.19300734827E+02  0.58206535790E+02 -0.30125270976E+02  0.14245368063E+03  0.12500000000E+03 0.  0.
         25    1    1    2    0    0  0.47542611394E+02  0.21033501721E+02 -0.12950540844E+03  0.18734822899E+03  0.12500000000E+03 0.  0.
</event>
<event>
 5    0  0.5561624E-005  0.3590703E+03  0.7546771E-02  0.1058953E+00
         21   -1    0    0  502  501  0.00000000000E+00  0.00000000000E+00  0.10493556777E+03  0.10493556777E+03  0.00000000000E+00 0. -1.
         21   -1    0    0  501  502 -0.00000000000E+00 -0.00000000000E+00 -0.12286726540E+04  0.12286726540E+04  0.00000000000E+00 0. -1.
         25    1    1    2    0    0  0.12908112835E+03  0.10759262815E+03 -0.60392335923E+03  0.63920774022E+03  0.12500000000E+03 0.  0.
         25    1    1    2    0    0 -0.16265661230E+03 -0.44616236539E+02 -0.68716340223E+02  0.22089526364E+03  0.12500000000E+03 0.  0.
         25    1    1    2    0    0  0.33575483948E+02 -0.62976391611E+02 -0.45109738673E+03  0.47350521786E+03  0.12500000000E+03 0.  0.
</event>
<event>
 5    0  0.5561624E-005  0.4454445E+03  0.7546771E-02  0.1029089E+00
         21   -1    0    0  502  501  0.00000000000E+00  0.00000000000E+00  0.11742211073E+03  0.11742211073E+03  0.00000000000E+00 0.  1.
         21   -1    0    0  501  502 -0.00000000000E+00 -0.00000000000E+00 -0.16898077947E+04  0.16898077947E+04  0.00000000000E+00 0.  1.
         25    1    1    2    0    0  0.14360345005E+03 -0.30629022053E+03 -0.55227869599E+03  0.65960018807E+03  0.12500000000E+03 0.  0.
         25    1    1    2    0    0  0.36527471777E+02  0.19679881543E+02 -0.12116047965E+03  0.17895925726E+03  0.12500000000E+03 0.  0.
         25    1    1    2    0    0 -0.18013092183E+03  0.28661033898E+03 -0.89894650837E+03  0.96867046013E+03  0.12500000000E+03 0.  0.
</event>
<event>
 5    0  0.5561624E-005  0.2566883E+03  0.7546771E-02  0.1109149E+00
         21   -1    0    0  502  501  0.00000000000E+00  0.00000000000E+00  0.90818434458E+03  0.90818434458E+03  0.00000000000E+00 0. -1.
         21   -1    0    0  501  502 -0.00000000000E+00 -0.00000000000E+00 -0.72550143709E+02  0.72550143709E+02  0.00000000000E+00 0. -1.
         25    1    1    2    0    0 -0.40610717391E+02  0.89613632307E+02  0.15702369731E+03  0.22352018920E+03  0.12500000000E+03 0.  0.
         25    1    1    2    0    0  0.91377586185E+02 -0.11390413022E+03  0.46778930262E+03  0.50574286528E+03  0.12500000000E+03 0.  0.
         25    1    1    2    0    0 -0.50766868794E+02  0.24290497913E+02  0.21082120094E+03  0.25147143381E+03  0.12500000000E+03 0.  0.
</event>
<event>
 5    0  0.5561624E-005  0.2411265E+03  0.7546771E-02  0.1119045E+00
         21   -1    0    0  502  501  0.00000000000E+00  0.00000000000E+00  0.23012792690E+04  0.23012792690E+04  0.00000000000E+00 0. -1.
         21   -1    0    0  501  502 -0.00000000000E+00 -0.00000000000E+00 -0.25265062785E+02  0.25265062785E+02  0.00000000000E+00 0. -1.
         25    1    1    2    0    0 -0.76793246986E+02 -0.38055464499E+02  0.11452278656E+04  0.11552130909E+04  0.12500000000E+03 0.  0.
         25    1    1    2    0    0  0.10895329119E+03 -0.12791155638E+02  0.58374340013E+03  0.60697264396E+03  0.12500000000E+03 0.  0.
         25    1    1    2    0    0 -0.32160044205E+02  0.50846620137E+02  0.54704294046E+03  0.56435859693E+03  0.12500000000E+03 0.  0.
</event>
<event>
 5    0  0.5561624E-005  0.3643007E+03  0.7546771E-02  0.1056894E+00
         21   -1    0    0  502  501  0.00000000000E+00  0.00000000000E+00  0.41034366265E+03  0.41034366265E+03  0.00000000000E+00 0.  1.
         21   -1    0    0  501  502 -0.00000000000E+00 -0.00000000000E+00 -0.32342409787E+03  0.32342409787E+03  0.00000000000E+00 0.  1.
         25    1    1    2    0    0  0.15029972624E+00  0.11728585903E+03 -0.13663009512E+03  0.21920031527E+03  0.12500000000E+03 0.  0.
         25    1    1    2    0    0 -0.13625004940E+03 -0.18809508194E+03  0.15012984245E+03  0.30349267768E+03  0.12500000000E+03 0.  0.
         25    1    1    2    0    0  0.13609974968E+03  0.70809222914E+02  0.73419817454E+02  0.21107476757E+03  0.12500000000E+03 0.  0.
</event>
<event>
 5    0  0.5561624E-005  0.2759029E+03  0.7546771E-02  0.1097948E+00
         21   -1    0    0  502  501  0.00000000000E+00  0.00000000000E+00  0.75236168736E+02  0.75236168736E+02  0.00000000000E+00 0. -1.
         21   -1    0    0  501  502 -0.00000000000E+00 -0.00000000000E+00 -0.10117795341E+04  0.10117795341E+04  0.00000000000E+00 0. -1.
         25    1    1    2    0    0  0.43196782195E+01 -0.15300487689E+03 -0.39375105584E+03  0.44056105814E+03  0.12500000000E+03 0.  0.
         25    1    1    2    0    0  0.74303704831E+01  0.12384098997E+03 -0.46175970578E+03  0.49420524793E+03  0.12500000000E+03 0.  0.
         25    1    1    2    0    0 -0.11750048703E+02  0.29163886923E+02 -0.81032603732E+02  0.15224939676E+03  0.12500000000E+03 0.  0.
</event>
<event>
 5    0  0.5561624E-005  0.3846910E+03  0.7546771E-02  0.1049213E+00
         21   -1    0    0  502  501  0.00000000000E+00  0.00000000000E+00  0.42062202206E+03  0.42062202206E+03  0.00000000000E+00 0.  1.
         21   -1    0    0  501  502 -0.00000000000E+00 -0.00000000000E+00 -0.35182939075E+03  0.35182939075E+03  0.00000000000E+00 0.  1.
         25    1    1    2    0    0  0.15853426252E+03 -0.14581826805E+03  0.48902337283E+02  0.25379621408E+03  0.12500000000E+03 0.  0.
         25    1    1    2    0    0  0.14373197293E+02 -0.86671398392E+02 -0.98320218382E+02  0.18168760399E+03  0.12500000000E+03 0.  0.
         25    1    1    2    0    0 -0.17290745981E+03  0.23248966645E+03  0.11821051240E+03  0.33696759474E+03  0.12500000000E+03 0.  0.
</event>
<event>
 5    0  0.5561624E-005  0.3455631E+03  0.7546771E-02  0.1064451E+00
         21   -1    0    0  502  501  0.00000000000E+00  0.00000000000E+00  0.84095745739E+03  0.84095745739E+03  0.00000000000E+00 0.  1.
         21   -1    0    0  501  502 -0.00000000000E+00 -0.00000000000E+00 -0.14199750329E+03  0.14199750329E+03  0.00000000000E+00 0.  1.
         25    1    1    2    0    0  0.63789322318E+02 -0.10837980038E+03  0.31481288233E+02  0.18008700753E+03  0.12500000000E+03 0.  0.
         25    1    1    2    0    0 -0.16633904656E+03  0.13660468241E+03  0.54149399020E+03  0.59596162552E+03  0.12500000000E+03 0.  0.
         25    1    1    2    0    0  0.10254972424E+03 -0.28224882030E+02  0.12598467567E+03  0.20690632762E+03  0.12500000000E+03 0.  0.
</event>
<event>
 5    0  0.5561624E-005  0.3303491E+03  0.7546771E-02  0.1070982E+00
         21   -1    0    0  502  501  0.00000000000E+00  0.00000000000E+00  0.10927609190E+04  0.10927609190E+04  0.00000000000E+00 0. -1.
         21   -1    0    0  501  502 -0.00000000000E+00 -0.00000000000E+00 -0.99866810164E+02  0.99866810164E+02  0.00000000000E+00 0. -1.
         25    1    1    2    0    0 -0.56325304486E+02 -0.33500652486E+02  0.93028277026E+02  0.16903873511E+03  0.12500000000E+03 0.  0.
         25    1    1    2    0    0  0.17691877876E+03  0.15917079658E+03  0.42975251834E+03  0.50690021088E+03  0.12500000000E+03 0.  0.
         25    1    1    2    0    0 -0.12059347428E+03 -0.12567014410E+03  0.47011331342E+03  0.51668878313E+03  0.12500000000E+03 0.  0.
</event>
<event>
 5    0  0.5561624E-005  0.2599958E+03  0.7546771E-02  0.1107146E+00
         21   -1    0    0  502  501  0.00000000000E+00  0.00000000000E+00  0.10826541553E+04  0.10826541553E+04  0.00000000000E+00 0.  1.
         21   -1    0    0  501  502 -0.00000000000E+00 -0.00000000000E+00 -0.62437122582E+02  0.62437122582E+02  0.00000000000E+00 0.  1.
         25    1    1    2    0    0  0.24748243709E+02 -0.72447347450E+02  0.32280275391E+03  0.35452462770E+03  0.12500000000E+03 0.  0.
         25    1    1    2    0    0  0.90978994068E+02  0.11094665542E+03  0.44125231837E+03  0.48053610288E+03  0.12500000000E+03 0.  0.
         25    1    1    2    0    0 -0.11572723778E+03 -0.38499307966E+02  0.25616196045E+03  0.31003054730E+03  0.12500000000E+03 0.  0.
</event>
<event>
 5    0  0.5561624E-005  0.3275427E+03  0.7546771E-02  0.1072229E+00
         21   -1    0    0  502  501  0.00000000000E+00  0.00000000000E+00  0.19213189910E+03  0.19213189910E+03  0.00000000000E+00 0.  1.
         21   -1    0    0  501  502 -0.00000000000E+00 -0.00000000000E+00 -0.55838830146E+03  0.55838830146E+03  0.00000000000E+00 0.  1.
         25    1    1    2    0    0 -0.93179241062E+02 -0.53041219259E+02 -0.13961385938E+02  0.16527450560E+03  0.12500000000E+03 0.  0.
         25    1    1    2    0    0 -0.83628889456E+02  0.11687409291E+03 -0.31611805095E+02  0.19307421103E+03  0.12500000000E+03 0.  0.
         25    1    1    2    0    0  0.17680813052E+03 -0.63832873649E+02 -0.32068321132E+03  0.39217148392E+03  0.12500000000E+03 0.  0.
</event>
<event>
 5    0  0.5561624E-005  0.3451973E+03  0.7546771E-02  0.1064604E+00
         21   -1    0    0  502  501  0.00000000000E+00  0.00000000000E+00  0.86213501813E+02  0.86213501813E+02  0.00000000000E+00 0.  1.
         21   -1    0    0  501  502 -0.00000000000E+00 -0.00000000000E+00 -0.13821639585E+04  0.13821639585E+04  0.00000000000E+00 0. -1.
         25    1    1    2    0    0 -0.23589116011E+03 -0.17973453896E+02 -0.31809628197E+03  0.41566564576E+03  0.12500000000E+03 0.  0.
         25    1    1    2    0    0  0.18570258303E+03  0.83404064904E+02 -0.55952194476E+03  0.60838433087E+03  0.12500000000E+03 0.  0.
         25    1    1    2    0    0  0.50188577086E+02 -0.65430611009E+02 -0.41833222995E+03  0.44432748367E+03  0.12500000000E+03 0.  0.
</event>
<event>
 5    0  0.5561624E-005  0.3110650E+03  0.7546771E-02  0.1079837E+00
         21   -1    0    0  502  501  0.00000000000E+00  0.00000000000E+00  0.13311944753E+03  0.13311944753E+03  0.00000000000E+00 0. -1.
         21   -1    0    0  501  502 -0.00000000000E+00 -0.00000000000E+00 -0.72687675683E+03  0.72687675683E+03  0.00000000000E+00 0. -1.
         25    1    1    2    0    0  0.25917760064E+02 -0.16584498700E+03 -0.11535142794E+03  0.23897121569E+03  0.12500000000E+03 0.  0.
         25    1    1    2    0    0 -0.12478028216E+03  0.55229630687E+02 -0.32382923658E+03  0.37297560964E+03  0.12500000000E+03 0.  0.
         25    1    1    2    0    0  0.98862522097E+02  0.11061535631E+03 -0.15457664478E+03  0.24804937904E+03  0.12500000000E+03 0.  0.
</event>
<event>
 5    0  0.5561624E-005  0.3297344E+03  0.7546771E-02  0.1071254E+00
         21   -1    0    0  502  501  0.00000000000E+00  0.00000000000E+00  0.80754566309E+03  0.80754566309E+03  0.00000000000E+00 0.  1.
         21   -1    0    0  501  502 -0.00000000000E+00 -0.00000000000E+00 -0.13463607301E+03  0.13463607301E+03  0.00000000000E+00 0.  1.
         25    1    1    2    0    0 -0.21999290901E+03  0.67854564742E+02  0.19106186745E+03  0.32423873791E+03  0.12500000000E+03 0.  0.
         25    1    1    2    0    0  0.15946020994E+03  0.88016360675E+01  0.15715343435E+03  0.25656817667E+03  0.12500000000E+03 0.  0.
         25    1    1    2    0    0  0.60532699075E+02 -0.76656200810E+02  0.32469428828E+03  0.36137482151E+03  0.12500000000E+03 0.  0.
</event>
<event>
 5    0  0.5583621E-005  0.4270248E+03  0.7546771E-02  0.1034804E+00
         21   -1    0    0  502  501  0.00000000000E+00  0.00000000000E+00  0.75785959326E+03  0.75785959326E+03  0.00000000000E+00 0.  1.
         21   -1    0    0  501  502 -0.00000000000E+00 -0.00000000000E+00 -0.24061212537E+03  0.24061212537E+03  0.00000000000E+00 0. -1.
         25    1    1    2    0    0  0.28817022656E+02 -0.16187928801E+03 -0.78468295578E+02  0.22094704816E+03  0.12500000000E+03 0.  0.
         25    1    1    2    0    0 -0.36804424548E+02  0.19379537328E+03  0.81547833273E+02  0.24735856864E+03  0.12500000000E+03 0.  0.
         25    1    1    2    0    0  0.79874018918E+01 -0.31916085272E+02  0.51416793019E+03  0.53016610183E+03  0.12500000000E+03 0.  0.
</event>
<event>
 5    0  0.5561624E-005  0.2922678E+03  0.7546771E-02  0.1089171E+00
         21   -1    0    0  502  501  0.00000000000E+00  0.00000000000E+00  0.12631364264E+03  0.12631364264E+03  0.00000000000E+00 0. -1.
         21   -1    0    0  501  502 -0.00000000000E+00 -0.00000000000E+00 -0.67625686484E+03  0.67625686484E+03  0.00000000000E+00 0. -1.
         25    1    1    2    0    0  0.16161786296E+01 -0.19442432131E+02 -0.97992083364E+02  0.16002521240E+03  0.12500000000E+03 0.  0.
         25    1    1    2    0    0 -0.89878520569E+02  0.13334177192E+03 -0.39341183180E+03  0.44300795253E+03  0.12500000000E+03 0.  0.
         25    1    1    2    0    0  0.88262341939E+02 -0.11389933979E+03 -0.58539307035E+02  0.19953734256E+03  0.12500000000E+03 0.  0.
</event>
<event>
 5    0  0.5561624E-005  0.2483298E+03  0.7546771E-02  0.1114365E+00
         21   -1    0    0  502  501  0.00000000000E+00  0.00000000000E+00  0.16889249410E+03  0.16889249410E+03  0.00000000000E+00 0. -1.
         21   -1    0    0  501  502 -0.00000000000E+00 -0.00000000000E+00 -0.36512972933E+03  0.36512972933E+03  0.00000000000E+00 0. -1.
         25    1    1    2    0    0 -0.58347525611E+02 -0.46486596409E+02 -0.68796435941E+02  0.16100741284E+03  0.12500000000E+03 0.  0.
         25    1    1    2    0    0  0.49275245732E+02 -0.18555224876E+02  0.51489493333E+02  0.14508106057E+03  0.12500000000E+03 0.  0.
         25    1    1    2    0    0  0.90722798789E+01  0.65041821285E+02 -0.17893029262E+03  0.22793375002E+03  0.12500000000E+03 0.  0.
</event>
<event>
 5    0  0.5561624E-005  0.2668967E+03  0.7546771E-02  0.1103069E+00
         21   -1    0    0  502  501  0.00000000000E+00  0.00000000000E+00  0.38438526883E+03  0.38438526883E+03  0.00000000000E+00 0.  1.
         21   -1    0    0  501  502 -0.00000000000E+00 -0.00000000000E+00 -0.18531886286E+03  0.18531886286E+03  0.00000000000E+00 0.  1.
         25    1    1    2    0    0 -0.24224804693E+02  0.70484887090E+02 -0.82699994701E+02  0.16738951459E+03  0.12500000000E+03 0.  0.
         25    1    1    2    0    0  0.15003898945E+02 -0.88903344239E+02  0.19594790412E+03  0.24929801991E+03  0.12500000000E+03 0.  0.
         25    1    1    2    0    0  0.92209057480E+01  0.18418457149E+02  0.85818496555E+02  0.15301659720E+03  0.12500000000E+03 0.  0.
</event>
<event>
 5    0  0.5561624E-005  0.3255866E+03  0.7546771E-02  0.1073107E+00
         21   -1    0    0  502  501  0.00000000000E+00  0.00000000000E+00  0.66049290141E+03  0.66049290141E+03  0.00000000000E+00 0. -1.
         21   -1    0    0  501  502 -0.00000000000E+00 -0.00000000000E+00 -0.16049629195E+03  0.16049629195E+03  0.00000000000E+00 0. -1.
         25    1    1    2    0    0  0.18433375858E+03 -0.52235847735E+02  0.18883429056E+03  0.29663261390E+03  0.12500000000E+03 0.  0.
         25    1    1    2    0    0 -0.37472319169E+02 -0.10365727567E+03  0.78122394991E+02  0.18405736634E+03  0.12500000000E+03 0.  0.
         25    1    1    2    0    0 -0.14686143941E+03  0.15589312341E+03  0.23303992391E+03  0.34029921312E+03  0.12500000000E+03 0.  0.
</event>
<event>
 5    0  0.5561624E-005  0.4959910E+03  0.7546771E-02  0.1014831E+00
         21   -1    0    0  502  501  0.00000000000E+00  0.00000000000E+00  0.65271543420E+03  0.65271543420E+03  0.00000000000E+00 0.  1.
         21   -1    0    0  501  502 -0.00000000000E+00 -0.00000000000E+00 -0.37689786247E+03  0.37689786247E+03  0.00000000000E+00 0.  1.
         25    1    1    2    0    0  0.36450694080E+02 -0.11903195836E+03 -0.17336445892E+01  0.17642354076E+03  0.12500000000E+03 0.  0.
         25    1    1    2    0    0  0.33041966711E+03 -0.66927085099E+02  0.39299239350E+02  0.36169852273E+03  0.12500000000E+03 0.  0.
         25    1    1    2    0    0 -0.36687036119E+03  0.18595904346E+03  0.23825197696E+03  0.49149123318E+03  0.12500000000E+03 0.  0.
</event>
<event>
 5    0  0.5561624E-005  0.3238450E+03  0.7546771E-02  0.1073893E+00
         21   -1    0    0  502  501  0.00000000000E+00  0.00000000000E+00  0.66922747464E+03  0.66922747464E+03  0.00000000000E+00 0.  1.
         21   -1    0    0  501  502 -0.00000000000E+00 -0.00000000000E+00 -0.15671143953E+03  0.15671143953E+03  0.00000000000E+00 0.  1.
         25    1    1    2    0    0  0.77979029626E+01  0.72843029879E+02 -0.50121063507E+02  0.15331025830E+03  0.12500000000E+03 0.  0.
         25    1    1    2    0    0  0.96005436905E+02 -0.58233930013E+02  0.43234159597E+03  0.46384532996E+03  0.12500000000E+03 0.  0.
         25    1    1    2    0    0 -0.10380333987E+03 -0.14609099866E+02  0.13029550265E+03  0.20878332591E+03  0.12500000000E+03 0.  0.
</event>
<event>
 5    0  0.5561624E-005  0.2274541E+03  0.7546771E-02  0.1128445E+00
         21   -1    0    0  502  501  0.00000000000E+00  0.00000000000E+00  0.98824394399E+03  0.98824394399E+03  0.00000000000E+00 0. -1.
         21   -1    0    0  501  502 -0.00000000000E+00 -0.00000000000E+00 -0.52350829458E+02  0.52350829458E+02  0.00000000000E+00 0. -1.
         25    1    1    2    0    0 -0.11442671152E+02  0.26341702021E+02  0.38785575286E+03  0.40851181747E+03  0.12500000000E+03 0.  0.
         25    1    1    2    0    0 -0.18683454613E+02  0.78622554406E+02  0.26726782640E+03  0.30592101687E+03  0.12500000000E+03 0.  0.
         25    1    1    2    0    0  0.30126125765E+02 -0.10496425643E+03  0.28076953527E+03  0.32616193910E+03  0.12500000000E+03 0.  0.
</event>
<event>
 5    0  0.5561624E-005  0.3659904E+03  0.7546771E-02  0.1056237E+00
         21   -1    0    0  502  501  0.00000000000E+00  0.00000000000E+00  0.10505921412E+03  0.10505921412E+03  0.00000000000E+00 0.  1.
         21   -1    0    0  501  502 -0.00000000000E+00 -0.00000000000E+00 -0.12749855589E+04  0.12749855589E+04  0.00000000000E+00 0.  1.
         25    1    1    2    0    0  0.10695665192E+03 -0.24641619043E+03 -0.38666239654E+03  0.48712777912E+03  0.12500000000E+03 0.  0.
         25    1    1    2    0    0 -0.41168956224E+02  0.19110038432E+03 -0.65287495341E+03  0.69288162382E+03  0.12500000000E+03 0.  0.
         25    1    1    2    0    0 -0.65787695701E+02  0.55315806106E+02 -0.13038899488E+03  0.20003537011E+03  0.12500000000E+03 0.  0.
</event>
<event>
 5    0  0.5561624E-005  0.2987647E+03  0.7546771E-02  0.1085860E+00
         21   -1    0    0  502  501  0.00000000000E+00  0.00000000000E+00  0.11764725320E+04  0.11764725320E+04  0.00000000000E+00 0. -1.
         21   -1    0    0  501  502 -0.00000000000E+00 -0.00000000000E+00 -0.75871184129E+02  0.75871184129E+02  0.00000000000E+00 0. -1.
         25    1    1    2    0    0  0.67379646496E+02 -0.91562012940E+02  0.45960260796E+03  0.48967660371E+03  0.12500000000E+03 0.  0.
         25    1    1    2    0    0 -0.38207385954E+02  0.20380214249E+03  0.35520227101E+03  0.42987064444E+03  0.12500000000E+03 0.  0.
         25    1    1    2    0    0 -0.29172260541E+02 -0.11224012955E+03  0.28579646895E+03  0.33279646802E+03  0.12500000000E+03 0.  0.
</event>
<event>
 5    0  0.5561624E-005  0.4335829E+03  0.7546771E-02  0.1032734E+00
         21   -1    0    0  502  501  0.00000000000E+00  0.00000000000E+00  0.32093531368E+03  0.32093531368E+03  0.00000000000E+00 0.  1.
         21   -1    0    0  501  502 -0.00000000000E+00 -0.00000000000E+00 -0.58576952272E+03  0.58576952272E+03  0.00000000000E+00 0.  1.
         25    1    1    2    0    0  0.49709950045E+02 -0.19828810616E+02  0.92694311116E+01  0.13629080386E+03  0.12500000000E+03 0.  0.
         25    1    1    2    0    0 -0.17143203409E+03  0.16771023557E+03 -0.41970094911E+03  0.49928904666E+03  0.12500000000E+03 0.  0.
         25    1    1    2    0    0  0.12172208405E+03 -0.14788142496E+03  0.14559730896E+03  0.27112498588E+03  0.12500000000E+03 0.  0.
</event>
<event>
 5    0  0.5561624E-005  0.3453713E+03  0.7546771E-02  0.1064531E+00
         21   -1    0    0  502  501  0.00000000000E+00  0.00000000000E+00  0.49518320054E+03  0.49518320054E+03  0.00000000000E+00 0. -1.
         21   -1    0    0  501  502 -0.00000000000E+00 -0.00000000000E+00 -0.24088319372E+03  0.24088319372E+03  0.00000000000E+00 0. -1.
         25    1    1    2    0    0  0.14579506779E+01 -0.15078568691E+03 -0.13057233386E+03  0.23539877520E+03  0.12500000000E+03 0.  0.
         25    1    1    2    0    0 -0.56517278636E+02  0.41206871486E+02  0.20028103608E+03  0.24623099410E+03  0.12500000000E+03 0.  0.
         25    1    1    2    0    0  0.55059327958E+02  0.10957881543E+03  0.18459130460E+03  0.25443662496E+03  0.12500000000E+03 0.  0.
</event>
<event>
 5    0  0.5561624E-005  0.3576769E+03  0.7546771E-02  0.1059508E+00
         21   -1    0    0  502  501  0.00000000000E+00  0.00000000000E+00  0.66255824747E+03  0.66255824747E+03  0.00000000000E+00 0.  1.
         21   -1    0    0  501  502 -0.00000000000E+00 -0.00000000000E+00 -0.19308905513E+03  0.19308905513E+03  0.00000000000E+00 0.  1.
         25    1    1    2    0    0 -0.79643366357E+02 -0.13313617248E+03 -0.38826471338E+02  0.20297980467E+03  0.12500000000E+03 0.  0.
         25    1    1    2    0    0  0.18212019406E+03  0.84655024494E+02  0.34122037815E+03  0.41519945174E+03  0.12500000000E+03 0.  0.
         25    1    1    2    0    0 -0.10247682770E+03  0.48481147987E+02  0.16707528553E+03  0.23746804619E+03  0.12500000000E+03 0.  0.
</event>
<event>
 5    0  0.5561624E-005  0.3442365E+03  0.7546771E-02  0.1065006E+00
         21   -1    0    0  502  501  0.00000000000E+00  0.00000000000E+00  0.30601061086E+03  0.30601061086E+03  0.00000000000E+00 0. -1.
         21   -1    0    0  501  502 -0.00000000000E+00 -0.00000000000E+00 -0.38723739292E+03  0.38723739292E+03  0.00000000000E+00 0. -1.
         25    1    1    2    0    0 -0.18489842453E+03 -0.44039718560E+02 -0.19862754459E+03  0.30200136701E+03  0.12500000000E+03 0.  0.
         25    1    1    2    0    0  0.14443834556E+02  0.61803559138E+02 -0.15322574638E+02  0.14102512390E+03  0.12500000000E+03 0.  0.
         25    1    1    2    0    0  0.17045458997E+03 -0.17763840577E+02  0.13272333717E+03  0.25022151287E+03  0.12500000000E+03 0.  0.
</event>
<event>
 5    0  0.5561624E-005  0.5861720E+03  0.7546771E-02  0.9934517E-01
         21   -1    0    0  502  501  0.00000000000E+00  0.00000000000E+00  0.19877631926E+03  0.19877631926E+03  0.00000000000E+00 0.  1.
         21   -1    0    0  501  502 -0.00000000000E+00 -0.00000000000E+00 -0.17285639955E+04  0.17285639955E+04  0.00000000000E+00 0.  1.
         25    1    1    2    0    0  0.17409882822E+03  0.12756985368E+03 -0.45644984931E+03  0.52014991539E+03  0.12500000000E+03 0.  0.
         25    1    1    2    0    0  0.24275317492E+03 -0.10991348835E+03 -0.88500548592E+03  0.93266810225E+03  0.12500000000E+03 0.  0.
         25    1    1    2    0    0 -0.41685200314E+03 -0.17656365331E+02 -0.18833234099E+03  0.47452229707E+03  0.12500000000E+03 0.  0.
</event>
<event>
 5    0  0.5561624E-005  0.2577637E+03  0.7546771E-02  0.1108494E+00
         21   -1    0    0  502  501  0.00000000000E+00  0.00000000000E+00  0.15726212763E+03  0.15726212763E+03  0.00000000000E+00 0. -1.
         21   -1    0    0  501  502 -0.00000000000E+00 -0.00000000000E+00 -0.42249298581E+03  0.42249298581E+03  0.00000000000E+00 0. -1.
         25    1    1    2    0    0  0.85522908252E+02 -0.12369168887E+03 -0.15729545843E+03  0.25095948473E+03  0.12500000000E+03 0.  0.
         25    1    1    2    0    0 -0.31256703588E+02  0.10393047397E+03 -0.23309819351E+02  0.16717318151E+03  0.12500000000E+03 0.  0.
         25    1    1    2    0    0 -0.54266204664E+02  0.19761214906E+02 -0.84625580404E+02  0.16162244721E+03  0.12500000000E+03 0.  0.
</event>
<event>
 5    0  0.5561624E-005  0.3606777E+03  0.7546771E-02  0.1058316E+00
         21   -1    0    0  502  501  0.00000000000E+00  0.00000000000E+00  0.13038462674E+03  0.13038462674E+03  0.00000000000E+00 0. -1.
         21   -1    0    0  501  502 -0.00000000000E+00 -0.00000000000E+00 -0.99772818507E+03  0.99772818507E+03  0.00000000000E+00 0. -1.
         25    1    1    2    0    0  0.87536412058E+02  0.62796797301E+02  0.32900373334E+02  0.16826614559E+03  0.12500000000E+03 0.  0.
         25    1    1    2    0    0 -0.12436504233E+03 -0.52466770949E+02 -0.67295065588E+03  0.69764389989E+03  0.12500000000E+03 0.  0.
         25    1    1    2    0    0  0.36828630273E+02 -0.10330026351E+02 -0.22729327578E+03  0.26220276633E+03  0.12500000000E+03 0.  0.
</event>
<event>
 5    0  0.5561624E-005  0.5342346E+03  0.7546771E-02  0.1005210E+00
         21   -1    0    0  502  501  0.00000000000E+00  0.00000000000E+00  0.13199769694E+04  0.13199769694E+04  0.00000000000E+00 0. -1.
         21   -1    0    0  501  502 -0.00000000000E+00 -0.00000000000E+00 -0.21622087799E+03  0.21622087799E+03  0.00000000000E+00 0.  1.
         25    1    1    2    0    0  0.17253509766E+02  0.20921794424E+03  0.32892502357E+03  0.40973955499E+03  0.12500000000E+03 0.  0.
         25    1    1    2    0    0  0.69547367888E+02 -0.37706825193E+03  0.80256972846E+03  0.89819845916E+03  0.12500000000E+03 0.  0.
         25    1    1    2    0    0 -0.86800877654E+02  0.16785030769E+03 -0.27738660670E+02  0.22825983320E+03  0.12500000000E+03 0.  0.
</event>
<event>
 5    0  0.5561624E-005  0.2588469E+03  0.7546771E-02  0.1107838E+00
         21   -1    0    0  502  501  0.00000000000E+00  0.00000000000E+00  0.23584336862E+03  0.23584336862E+03  0.00000000000E+00 0.  1.
         21   -1    0    0  501  502 -0.00000000000E+00 -0.00000000000E+00 -0.28409411359E+03  0.28409411359E+03  0.00000000000E+00 0.  1.
         25    1    1    2    0    0  0.11741446424E+03  0.42289859060E+02 -0.58014838316E+02  0.18591748185E+03  0.12500000000E+03 0.  0.
         25    1    1    2    0    0 -0.16971246443E+01  0.53985633389E+02 -0.14133985756E+02  0.13690178376E+03  0.12500000000E+03 0.  0.
         25    1    1    2    0    0 -0.11571733960E+03 -0.96275492449E+02  0.23898079094E+02  0.19711821660E+03  0.12500000000E+03 0.  0.
</event>
<event>
 5    0  0.5561624E-005  0.3241800E+03  0.7546771E-02  0.1073741E+00
         21   -1    0    0  502  501  0.00000000000E+00  0.00000000000E+00  0.18703430611E+03  0.18703430611E+03  0.00000000000E+00 0. -1.
         21   -1    0    0  501  502 -0.00000000000E+00 -0.00000000000E+00 -0.56188976344E+03  0.56188976344E+03  0.00000000000E+00 0. -1.
         25    1    1    2    0    0 -0.34223274588E+02  0.10174618917E+03  0.83743933813E+02  0.18482847720E+03  0.12500000000E+03 0.  0.
         25    1    1    2    0    0  0.70239653715E+02  0.15976205713E+02 -0.14373326168E+03  0.20364945032E+03  0.12500000000E+03 0.  0.
         25    1    1    2    0    0 -0.36016379127E+02 -0.11772239488E+03 -0.31486612946E+03  0.36044614203E+03  0.12500000000E+03 0.  0.
</event>
<event>
 5    0  0.5561624E-005  0.2698278E+03  0.7546771E-02  0.1101378E+00
         21   -1    0    0  502  501  0.00000000000E+00  0.00000000000E+00  0.22957056765E+03  0.22957056765E+03  0.00000000000E+00 0.  1.
         21   -1    0    0  501  502 -0.00000000000E+00 -0.00000000000E+00 -0.31714447903E+03  0.31714447903E+03  0.00000000000E+00 0.  1.
         25    1    1    2    0    0  0.75282114557E+02  0.16099363623E+02  0.19013998394E+02  0.14803080225E+03  0.12500000000E+03 0.  0.
         25    1    1    2    0    0  0.13693064716E+02 -0.11831192590E+03  0.21794762959E+02  0.17402650236E+03  0.12500000000E+03 0.  0.
         25    1    1    2    0    0 -0.88975179273E+02  0.10221256227E+03 -0.12838267273E+03  0.22465774207E+03  0.12500000000E+03 0.  0.
</event>
<event>
 5    0  0.5561624E-005  0.3297938E+03  0.7546771E-02  0.1071228E+00
         21   -1    0    0  502  501  0.00000000000E+00  0.00000000000E+00  0.91880028351E+03  0.91880028351E+03  0.00000000000E+00 0. -1.
         21   -1    0    0  501  502 -0.00000000000E+00 -0.00000000000E+00 -0.11837606829E+03  0.11837606829E+03  0.00000000000E+00 0. -1.
         25    1    1    2    0    0  0.36448276191E+02 -0.98632153907E+02  0.67056587898E+02  0.17657396355E+03  0.12500000000E+03 0.  0.
         25    1    1    2    0    0  0.64457410144E+02 -0.22829057619E+02  0.54595528733E+02  0.15258307689E+03  0.12500000000E+03 0.  0.
         25    1    1    2    0    0 -0.10090568634E+03  0.12146121153E+03  0.67877209859E+03  0.70801931137E+03  0.12500000000E+03 0.  0.
</event>
<event>
 5    0  0.5561624E-005  0.3063637E+03  0.7546771E-02  0.1082102E+00
         21   -1    0    0  502  501  0.00000000000E+00  0.00000000000E+00  0.20719561615E+04  0.20719561615E+04  0.00000000000E+00 0.  1.
         21   -1    0    0  501  502 -0.00000000000E+00 -0.00000000000E+00 -0.45299565679E+02  0.45299565679E+02  0.00000000000E+00 0.  1.
         25    1    1    2    0    0 -0.11725944347E+03 -0.16360038030E+03  0.91940015945E+03  0.94944010591E+03  0.12500000000E+03 0.  0.
         25    1    1    2    0    0  0.63124055388E+00  0.15503127760E+03  0.55564238270E+03  0.59025295675E+03  0.12500000000E+03 0.  0.
         25    1    1    2    0    0  0.11662820292E+03  0.85691026975E+01  0.55161405371E+03  0.57756266456E+03  0.12500000000E+03 0.  0.
</event>
<event>
 5    0  0.5561624E-005  0.3265432E+03  0.7546771E-02  0.1072677E+00
         21   -1    0    0  502  501  0.00000000000E+00  0.00000000000E+00  0.18002031432E+04  0.18002031432E+04  0.00000000000E+00 0.  1.
         21   -1    0    0  501  502 -0.00000000000E+00 -0.00000000000E+00 -0.59232474152E+02  0.59232474152E+02  0.00000000000E+00 0.  1.
         25    1    1    2    0    0 -0.14129172726E+02 -0.22846869586E+03  0.49096817664E+03  0.55594273894E+03  0.12500000000E+03 0.  0.
         25    1    1    2    0    0  0.51385709926E+02  0.17302074751E+03  0.61939120046E+03  0.65715076616E+03  0.12500000000E+03 0.  0.
         25    1    1    2    0    0 -0.37256537200E+02  0.55447948343E+02  0.63061129190E+03  0.64634211221E+03  0.12500000000E+03 0.  0.
</event>
<event>
 5    0  0.5561624E-005  0.2746068E+03  0.7546771E-02  0.1098672E+00
         21   -1    0    0  502  501  0.00000000000E+00  0.00000000000E+00  0.37153407166E+03  0.37153407166E+03  0.00000000000E+00 0.  1.
         21   -1    0    0  501  502 -0.00000000000E+00 -0.00000000000E+00 -0.20296627322E+03  0.20296627322E+03  0.00000000000E+00 0.  1.
         25    1    1    2    0    0  0.10873733880E+03 -0.92761052566E+02  0.15287817868E+03  0.24377276148E+03  0.12500000000E+03 0.  0.
         25    1    1    2    0    0 -0.13045430737E+03  0.62867606323E+02 -0.27817235182E+02  0.19331182274E+03  0.12500000000E+03 0.  0.
         25    1    1    2    0    0  0.21716968578E+02  0.29893446243E+02  0.43506854942E+02  0.13741576067E+03  0.12500000000E+03 0.  0.
</event>
<event>
 5    0  0.5561624E-005  0.2706901E+03  0.7546771E-02  0.1100885E+00
         21   -1    0    0  502  501  0.00000000000E+00  0.00000000000E+00  0.30424292538E+03  0.30424292538E+03  0.00000000000E+00 0. -1.
         21   -1    0    0  501  502 -0.00000000000E+00 -0.00000000000E+00 -0.24083753799E+03  0.24083753799E+03  0.00000000000E+00 0. -1.
         25    1    1    2    0    0 -0.67756555167E+02 -0.20950210225E+02 -0.62669683472E+02  0.15678759933E+03  0.12500000000E+03 0.  0.
         25    1    1    2    0    0  0.15692212097E+03 -0.35265853528E+02  0.66890573325E+02  0.21440051603E+03  0.12500000000E+03 0.  0.
         25    1    1    2    0    0 -0.89165565805E+02  0.56216063754E+02  0.59184497537E+02  0.17389234801E+03  0.12500000000E+03 0.  0.
</event>
<event>
 5    0  0.5561624E-005  0.2168013E+03  0.7546771E-02  0.1136291E+00
         21   -1    0    0  502  501  0.00000000000E+00  0.00000000000E+00  0.20617338483E+03  0.20617338483E+03  0.00000000000E+00 0.  1.
         21   -1    0    0  501  502 -0.00000000000E+00 -0.00000000000E+00 -0.22797705429E+03  0.22797705429E+03  0.00000000000E+00 0.  1.
         25    1    1    2    0    0 -0.71244573659E+02 -0.47899720758E+02 -0.37819877220E+02  0.15628664574E+03  0.12500000000E+03 0.  0.
         25    1    1    2    0    0  0.33497768820E+02 -0.12532200559E+02 -0.14373605263E+02  0.13080809262E+03  0.12500000000E+03 0.  0.
         25    1    1    2    0    0  0.37746804839E+02  0.60431921317E+02  0.30389813024E+02  0.14705570076E+03  0.12500000000E+03 0.  0.
</event>
<event>
 5    0  0.5561624E-005  0.2941384E+03  0.7546771E-02  0.1088208E+00
         21   -1    0    0  502  501  0.00000000000E+00  0.00000000000E+00  0.29621774159E+03  0.29621774159E+03  0.00000000000E+00 0.  1.
         21   -1    0    0  501  502 -0.00000000000E+00 -0.00000000000E+00 -0.29207355992E+03  0.29207355992E+03  0.00000000000E+00 0.  1.
         25    1    1    2    0    0 -0.60232307206E+02 -0.73490932023E+02 -0.11540442699E+02  0.15743897147E+03  0.12500000000E+03 0.  0.
         25    1    1    2    0    0  0.19666744968E+02  0.97229988025E+02 -0.14934220726E+03  0.21856016631E+03  0.12500000000E+03 0.  0.
         25    1    1    2    0    0  0.40565562238E+02 -0.23739056002E+02  0.16502683163E+03  0.21229216372E+03  0.12500000000E+03 0.  0.
</event>
<event>
 5    0  0.5561624E-005  0.2865451E+03  0.7546771E-02  0.1092167E+00
         21   -1    0    0  502  501  0.00000000000E+00  0.00000000000E+00  0.65814688087E+03  0.65814688087E+03  0.00000000000E+00 0.  1.
         21   -1    0    0  501  502 -0.00000000000E+00 -0.00000000000E+00 -0.12475651540E+03  0.12475651540E+03  0.00000000000E+00 0.  1.
         25    1    1    2    0    0  0.83151202453E+02  0.11322971268E+03  0.65899339553E+02  0.19925564799E+03  0.12500000000E+03 0.  0.
         25    1    1    2    0    0 -0.47317358701E+02 -0.15835392743E+03  0.32574392237E+03  0.38606864898E+03  0.12500000000E+03 0.  0.
         25    1    1    2    0    0 -0.35833843752E+02  0.45124214746E+02  0.14174710355E+03  0.19757909930E+03  0.12500000000E+03 0.  0.
</event>
<event>
 5    0  0.5561624E-005  0.2498070E+03  0.7546771E-02  0.1113427E+00
         21   -1    0    0  502  501  0.00000000000E+00  0.00000000000E+00  0.62777315461E+02  0.62777315461E+02  0.00000000000E+00 0. -1.
         21   -1    0    0  501  502 -0.00000000000E+00 -0.00000000000E+00 -0.99404596321E+03  0.99404596321E+03  0.00000000000E+00 0. -1.
         25    1    1    2    0    0  0.19460338510E+02 -0.99368813402E+02 -0.49294134040E+03  0.51852582474E+03  0.12500000000E+03 0.  0.
         25    1    1    2    0    0 -0.56431163940E+02  0.30974213520E+02 -0.11012972293E+03  0.17859852754E+03  0.12500000000E+03 0.  0.
         25    1    1    2    0    0  0.36970825431E+02  0.68394599882E+02 -0.32819758442E+03  0.35969892639E+03  0.12500000000E+03 0.  0.
</event>
<event>
 5    0  0.5561624E-005  0.2445730E+03  0.7546771E-02  0.1116783E+00
         21   -1    0    0  502  501  0.00000000000E+00  0.00000000000E+00  0.23072533471E+03  0.23072533471E+03  0.00000000000E+00 0.  1.
         21   -1    0    0  501  502 -0.00000000000E+00 -0.00000000000E+00 -0.25925182954E+03  0.25925182954E+03  0.00000000000E+00 0.  1.
         25    1    1    2    0    0 -0.46582398711E+02 -0.55768175714E+02 -0.86763427149E+02  0.16862058469E+03  0.12500000000E+03 0.  0.
         25    1    1    2    0    0  0.11183735633E+03  0.31232188707E+02  0.12363303214E+02  0.17105816306E+03  0.12500000000E+03 0.  0.
         25    1    1    2    0    0 -0.65254957620E+02  0.24535987008E+02  0.45873629103E+02  0.15029841649E+03  0.12500000000E+03 0.  0.
</event>
<event>
 5    0  0.5561624E-005  0.2765762E+03  0.7546771E-02  0.1097574E+00
         21   -1    0    0  502  501  0.00000000000E+00  0.00000000000E+00  0.76050322288E+02  0.76050322288E+02  0.00000000000E+00 0.  1.
         21   -1    0    0  501  502 -0.00000000000E+00 -0.00000000000E+00 -0.10058388485E+04  0.10058388485E+04  0.00000000000E+00 0.  1.
         25    1    1    2    0    0 -0.72102376787E+02 -0.86623372631E+01 -0.80314654021E+02  0.16537603356E+03  0.12500000000E+03 0.  0.
         25    1    1    2    0    0 -0.55286598719E+02 -0.57519746490E+02 -0.45418667134E+03  0.47778202316E+03  0.12500000000E+03 0.  0.
         25    1    1    2    0    0  0.12738897551E+03  0.66182083754E+02 -0.39528720080E+03  0.43873111402E+03  0.12500000000E+03 0.  0.
</event>
<event>
 5    0  0.5561624E-005  0.2211763E+03  0.7546771E-02  0.1133009E+00
         21   -1    0    0  502  501  0.00000000000E+00  0.00000000000E+00  0.49267430480E+03  0.49267430480E+03  0.00000000000E+00 0. -1.
         21   -1    0    0  501  502 -0.00000000000E+00 -0.00000000000E+00 -0.99292647877E+02  0.99292647877E+02  0.00000000000E+00 0. -1.
         25    1    1    2    0    0 -0.11507190947E+02  0.27496303484E+02  0.12561160491E+03  0.17969901902E+03  0.12500000000E+03 0.  0.
         25    1    1    2    0    0 -0.60141542268E+02  0.36146040797E+02  0.18591006662E+03  0.23475752222E+03  0.12500000000E+03 0.  0.
         25    1    1    2    0    0  0.71648733215E+02 -0.63642344281E+02  0.81859985390E+02  0.17751041143E+03  0.12500000000E+03 0.  0.
</event>
<event>
 5    0  0.5561624E-005  0.4062549E+03  0.7546771E-02  0.1041635E+00
         21   -1    0    0  502  501  0.00000000000E+00  0.00000000000E+00  0.65574263015E+03  0.65574263015E+03  0.00000000000E+00 0.  1.
         21   -1    0    0  501  502 -0.00000000000E+00 -0.00000000000E+00 -0.25168873380E+03  0.25168873380E+03  0.00000000000E+00 0.  1.
         25    1    1    2    0    0  0.28982341573E+02  0.59669269845E+02 -0.11597829279E+02  0.14198558917E+03  0.12500000000E+03 0.  0.
         25    1    1    2    0    0  0.23034638940E+03 -0.69989965387E+02  0.14594201207E+02  0.27165427491E+03  0.12500000000E+03 0.  0.
         25    1    1    2    0    0 -0.25932873098E+03  0.10320695542E+02  0.40105752442E+03  0.49379149989E+03  0.12500000000E+03 0.  0.
</event>
<event>
 5    0  0.5561624E-005  0.2346517E+03  0.7546771E-02  0.1123408E+00
         21   -1    0    0  502  501  0.00000000000E+00  0.00000000000E+00  0.23037260898E+03  0.23037260898E+03  0.00000000000E+00 0. -1.
         21   -1    0    0  501  502 -0.00000000000E+00 -0.00000000000E+00 -0.23901026244E+03  0.23901026244E+03  0.00000000000E+00 0. -1.
         25    1    1    2    0    0  0.10894996501E+03 -0.25443512199E+02 -0.37951993540E+02  0.17199657265E+03  0.12500000000E+03 0.  0.
         25    1    1    2    0    0 -0.21379750717E+02 -0.22479975567E+02 -0.19215189760E+02  0.13021776591E+03  0.12500000000E+03 0.  0.
         25    1    1    2    0    0 -0.87570214294E+02  0.47923487766E+02  0.48529529837E+02  0.16716853286E+03  0.12500000000E+03 0.  0.
</event>
<event>
 5    0  0.5824784E-005  0.3256188E+03  0.7546771E-02  0.1073092E+00
         21   -1    0    0  502  501  0.00000000000E+00  0.00000000000E+00  0.44047949861E+03  0.44047949861E+03  0.00000000000E+00 0. -1.
         21   -1    0    0  501  502 -0.00000000000E+00 -0.00000000000E+00 -0.24070947600E+03  0.24070947600E+03  0.00000000000E+00 0. -1.
         25    1    1    2    0    0  0.11400300106E+03  0.11293071634E+03  0.12117012400E+03  0.23676408067E+03  0.12500000000E+03 0.  0.
         25    1    1    2    0    0 -0.99281217415E+02 -0.13817942398E+03 -0.92516029613E+02  0.23050928198E+03  0.12500000000E+03 0.  0.
         25    1    1    2    0    0 -0.14721783640E+02  0.25248707643E+02  0.17111592823E+03  0.21391561197E+03  0.12500000000E+03 0.  0.
</event>
<event>
 5    0  0.5561624E-005  0.3248476E+03  0.7546771E-02  0.1073440E+00
         21   -1    0    0  502  501  0.00000000000E+00  0.00000000000E+00  0.14351010057E+04  0.14351010057E+04  0.00000000000E+00 0. -1.
         21   -1    0    0  501  502 -0.00000000000E+00 -0.00000000000E+00 -0.73532084399E+02  0.73532084399E+02  0.00000000000E+00 0. -1.
         25    1    1    2    0    0  0.27562666243E+02 -0.14317748017E+03  0.71353940326E+03  0.73893367186E+03  0.12500000000E+03 0.  0.
         25    1    1    2    0    0  0.20593100551E+02 -0.58429877054E+02  0.10323457870E+03  0.17355259883E+03  0.12500000000E+03 0.  0.
         25    1    1    2    0    0 -0.48155766794E+02  0.20160735722E+03  0.54479493938E+03  0.59614681944E+03  0.12500000000E+03 0.  0.
</event>
<event>
 5    0  0.5561624E-005  0.3151612E+03  0.7546771E-02  0.1077898E+00
         21   -1    0    0  502  501  0.00000000000E+00  0.00000000000E+00  0.66295045933E+03  0.66295045933E+03  0.00000000000E+00 0.  1.
         21   -1    0    0  501  502 -0.00000000000E+00 -0.00000000000E+00 -0.14982508268E+03  0.14982508268E+03  0.00000000000E+00 0.  1.
         25    1    1    2    0    0 -0.38082212974E+02 -0.15173481028E+03  0.27670278828E+03  0.34155986392E+03  0.12500000000E+03 0.  0.
         25    1    1    2    0    0 -0.16255630127E+02 -0.28913189943E+02  0.20550862518E+03  0.24281477114E+03  0.12500000000E+03 0.  0.
         25    1    1    2    0    0  0.54337843101E+02  0.18064800022E+03  0.30913963187E+02  0.22840090695E+03  0.12500000000E+03 0.  0.
</event>
<event>
 5    0  0.5561624E-005  0.2664815E+03  0.7546771E-02  0.1103310E+00
         21   -1    0    0  502  501  0.00000000000E+00  0.00000000000E+00  0.55472704874E+03  0.55472704874E+03  0.00000000000E+00 0. -1.
         21   -1    0    0  501  502 -0.00000000000E+00 -0.00000000000E+00 -0.12801316761E+03  0.12801316761E+03  0.00000000000E+00 0. -1.
         25    1    1    2    0    0  0.12899169364E+03  0.15970549322E+02  0.19548580930E+03  0.26595792357E+03  0.12500000000E+03 0.  0.
         25    1    1    2    0    0 -0.92557283353E+02  0.81662919373E+02  0.74411828272E+02  0.19078208325E+03  0.12500000000E+03 0.  0.
         25    1    1    2    0    0 -0.36434410283E+02 -0.97633468695E+02  0.15681624356E+03  0.22600020953E+03  0.12500000000E+03 0.  0.
</event>
<event>
 5    0  0.5561624E-005  0.4294161E+03  0.7546771E-02  0.1034045E+00
         21   -1    0    0  502  501  0.00000000000E+00  0.00000000000E+00  0.17007312756E+03  0.17007312756E+03  0.00000000000E+00 0. -1.
         21   -1    0    0  501  502 -0.00000000000E+00 -0.00000000000E+00 -0.10842286663E+04  0.10842286663E+04  0.00000000000E+00 0. -1.
         25    1    1    2    0    0  0.12347474982E+03 -0.10613395398E+03 -0.31052302824E+03  0.37223645858E+03  0.12500000000E+03 0.  0.
         25    1    1    2    0    0 -0.34447573071E+03  0.91764215544E+01 -0.39924122797E+03  0.54200211612E+03  0.12500000000E+03 0.  0.
         25    1    1    2    0    0  0.22100098090E+03  0.96957532422E+02 -0.20439128249E+03  0.34006321914E+03  0.12500000000E+03 0.  0.
</event>
<event>
 5    0  0.5561624E-005  0.2862702E+03  0.7546771E-02  0.1092313E+00
         21   -1    0    0  502  501  0.00000000000E+00  0.00000000000E+00  0.13803615493E+03  0.13803615493E+03  0.00000000000E+00 0. -1.
         21   -1    0    0  501  502 -0.00000000000E+00 -0.00000000000E+00 -0.59368978483E+03  0.59368978483E+03  0.00000000000E+00 0. -1.
         25    1    1    2    0    0  0.19169175344E+02  0.96998645432E+02 -0.42777209690E+03  0.45649771236E+03  0.12500000000E+03 0.  0.
         25    1    1    2    0    0  0.10638656971E+00 -0.58052110336E+02  0.81789824450E+01  0.13806503752E+03  0.12500000000E+03 0.  0.
         25    1    1    2    0    0 -0.19275561914E+02 -0.38946535095E+02 -0.36060515442E+02  0.13716318988E+03  0.12500000000E+03 0.  0.
</event>
<event>
 5    0  0.5561624E-005  0.3224733E+03  0.7546771E-02  0.1074517E+00
         21   -1    0    0  502  501  0.00000000000E+00  0.00000000000E+00  0.21849549370E+03  0.21849549370E+03  0.00000000000E+00 0.  1.
         21   -1    0    0  501  502 -0.00000000000E+00 -0.00000000000E+00 -0.47593208392E+03  0.47593208392E+03  0.00000000000E+00 0.  1.
         25    1    1    2    0    0 -0.12172056816E+03  0.17671589389E+03 -0.42651417309E+01  0.24836987599E+03  0.12500000000E+03 0.  0.
         25    1    1    2    0    0  0.67596522088E+02 -0.17349788111E+03 -0.11510757910E+03  0.25208244547E+03  0.12500000000E+03 0.  0.
         25    1    1    2    0    0  0.54124046072E+02 -0.32180127795E+01 -0.13806386938E+03  0.19397525615E+03  0.12500000000E+03 0.  0.
</event>
<event>
 5    0  0.5561624E-005  0.2323066E+03  0.7546771E-02  0.1125027E+00
         21   -1    0    0  502  501  0.00000000000E+00  0.00000000000E+00  0.38947337415E+02  0.38947337415E+02  0.00000000000E+00 0.  1.
         21   -1    0    0  501  502 -0.00000000000E+00 -0.00000000000E+00 -0.13856243118E+04  0.13856243118E+04  0.00000000000E+00 0.  1.
         25    1    1    2    0    0 -0.17916949240E+02  0.99105149777E+01 -0.15293331094E+03  0.19857702026E+03  0.12500000000E+03 0.  0.
         25    1    1    2    0    0  0.44252293579E+02  0.33704572155E+01 -0.38722191743E+03  0.40931093170E+03  0.12500000000E+03 0.  0.
         25    1    1    2    0    0 -0.26335344339E+02 -0.13280972193E+02 -0.80652174597E+03  0.81668369722E+03  0.12500000000E+03 0.  0.
</event>
<event>
 5    0  0.5561624E-005  0.3463819E+03  0.7546771E-02  0.1064110E+00
         21   -1    0    0  502  501  0.00000000000E+00  0.00000000000E+00  0.22705618872E+03  0.22705618872E+03  0.00000000000E+00 0. -1.
         21   -1    0    0  501  502 -0.00000000000E+00 -0.00000000000E+00 -0.52841721691E+03  0.52841721691E+03  0.00000000000E+00 0. -1.
         25    1    1    2    0    0  0.24689210705E+02 -0.10789358187E+03 -0.25819135136E+03  0.30747090277E+03  0.12500000000E+03 0.  0.
         25    1    1    2    0    0  0.52786786049E+02 -0.63490157744E+02 -0.13742253620E+03  0.20329141243E+03  0.12500000000E+03 0.  0.
         25    1    1    2    0    0 -0.77475996754E+02  0.17138373962E+03  0.94252859371E+02  0.24471109043E+03  0.12500000000E+03 0.  0.
</event>
<event>
 5    0  0.5561624E-005  0.3338703E+03  0.7546771E-02  0.1069437E+00
         21   -1    0    0  502  501  0.00000000000E+00  0.00000000000E+00  0.85648507861E+02  0.85648507861E+02  0.00000000000E+00 0. -1.
         21   -1    0    0  501  502 -0.00000000000E+00 -0.00000000000E+00 -0.13014749277E+04  0.13014749277E+04  0.00000000000E+00 0. -1.
         25    1    1    2    0    0  0.67623408497E+02  0.24631313782E+03 -0.70392275947E+03  0.75919387415E+03  0.12500000000E+03 0.  0.
         25    1    1    2    0    0 -0.15098342166E+02 -0.10499863134E+03 -0.18819417894E+03  0.24958910534E+03  0.12500000000E+03 0.  0.
         25    1    1    2    0    0 -0.52525066331E+02 -0.14131450649E+03 -0.32370948146E+03  0.37834045611E+03  0.12500000000E+03 0.  0.
</event>
<event>
 5    0  0.5561624E-005  0.8435636E+03  0.7546771E-02  0.9499017E-01
         21   -1    0    0  502  501  0.00000000000E+00  0.00000000000E+00  0.11691353565E+04  0.11691353565E+04  0.00000000000E+00 0.  1.
         21   -1    0    0  501  502 -0.00000000000E+00 -0.00000000000E+00 -0.60865453735E+03  0.60865453735E+03  0.00000000000E+00 0.  1.
         25    1    1    2    0    0 -0.12723686881E+03  0.41469088406E+03 -0.42547241007E+03  0.62033017163E+03  0.12500000000E+03 0.  0.
         25    1    1    2    0    0  0.75848733531E+02 -0.42405530887E+03  0.87129493761E+03  0.97997745058E+03  0.12500000000E+03 0.  0.
         25    1    1    2    0    0  0.51388135280E+02  0.93644248038E+01  0.11465829158E+03  0.17748227159E+03  0.12500000000E+03 0.  0.
</event>
<event>
 5    0  0.5561624E-005  0.3892792E+03  0.7546771E-02  0.1047556E+00
         21   -1    0    0  502  501  0.00000000000E+00  0.00000000000E+00  0.51846255341E+03  0.51846255341E+03  0.00000000000E+00 0.  1.
         21   -1    0    0  501  502 -0.00000000000E+00 -0.00000000000E+00 -0.29228395314E+03  0.29228395314E+03  0.00000000000E+00 0.  1.
         25    1    1    2    0    0 -0.19229451528E+03  0.21179752170E+03  0.28237372298E+03  0.42094570937E+03  0.12500000000E+03 0.  0.
         25    1    1    2    0    0  0.78409463940E+02 -0.71415673697E+02 -0.43768067947E+02  0.16967288015E+03  0.12500000000E+03 0.  0.
         25    1    1    2    0    0  0.11388505134E+03 -0.14038184800E+03 -0.12427054758E+02  0.22012791704E+03  0.12500000000E+03 0.  0.
</event>
<event>
 5    0  0.5561624E-005  0.3276525E+03  0.7546771E-02  0.1072180E+00
         21   -1    0    0  502  501  0.00000000000E+00  0.00000000000E+00  0.22460102304E+03  0.22460102304E+03  0.00000000000E+00 0.  1.
         21   -1    0    0  501  502 -0.00000000000E+00 -0.00000000000E+00 -0.47798594073E+03  0.47798594073E+03  0.00000000000E+00 0.  1.
         25    1    1    2    0    0 -0.82312010940E+02  0.22336252916E+02  0.98798788233E+02  0.18072181909E+03  0.12500000000E+03 0.  0.
         25    1    1    2    0    0  0.78024969926E+02  0.11508924762E+03 -0.11113452575E+03  0.21750704279E+03  0.12500000000E+03 0.  0.
         25    1    1    2    0    0  0.42870410141E+01 -0.13742550054E+03 -0.24104918017E+03  0.30435810188E+03  0.12500000000E+03 0.  0.
</event>
<event>
 5    0  0.5561624E-005  0.5413740E+03  0.7546771E-02  0.1003510E+00
         21   -1    0    0  502  501  0.00000000000E+00  0.00000000000E+00  0.45578713950E+03  0.45578713950E+03  0.00000000000E+00 0.  1.
         21   -1    0    0  501  502 -0.00000000000E+00 -0.00000000000E+00 -0.64303228103E+03  0.64303228103E+03  0.00000000000E+00 0.  1.
         25    1    1    2    0    0  0.28283511205E+03  0.45876018049E+02 -0.42004681031E+03  0.52360732663E+03  0.12500000000E+03 0.  0.
         25    1    1    2    0    0  0.50661389830E+02  0.67603638444E+01  0.15737458751E+03  0.20737415396E+03  0.12500000000E+03 0.  0.
         25    1    1    2    0    0 -0.33349650188E+03 -0.52636381893E+02  0.75427081276E+02  0.36783793994E+03  0.12500000000E+03 0.  0.
</event>
<event>
 5    0  0.5561624E-005  0.3565215E+03  0.7546771E-02  0.1059970E+00
         21   -1    0    0  502  501  0.00000000000E+00  0.00000000000E+00  0.51664821530E+02  0.51664821530E+02  0.00000000000E+00 0.  1.
         21   -1    0    0  501  502 -0.00000000000E+00 -0.00000000000E+00 -0.24602345744E+04  0.24602345744E+04  0.00000000000E+00 0.  1.
         25    1    1    2    0    0  0.24494503144E+03 -0.38621523876E+02 -0.87582431493E+03  0.91879427575E+03  0.12500000000E+03 0.  0.
         25    1    1    2    0    0 -0.14373574754E+03  0.14192473480E+03 -0.97468968831E+03  0.10032186122E+04  0.12500000000E+03 0.  0.
         25    1    1    2    0    0 -0.10120928390E+03 -0.10330321092E+03 -0.55805574959E+03  0.58988650789E+03  0.12500000000E+03 0.  0.
</event>
<event>
 5    0  0.5561624E-005  0.2710014E+03  0.7546771E-02  0.1100708E+00
         21   -1    0    0  502  501  0.00000000000E+00  0.00000000000E+00  0.44775566863E+03  0.44775566863E+03  0.00000000000E+00 0.  1.
         21   -1    0    0  501  502 -0.00000000000E+00 -0.00000000000E+00 -0.16402190407E+03  0.16402190407E+03  0.00000000000E+00 0.  1.
         25    1    1    2    0    0  0.39671734226E+02  0.91165178512E+01  0.23632070446E+03  0.27042454169E+03  0.12500000000E+03 0.  0.
         25    1    1    2    0    0 -0.14806302823E+02  0.93526370348E+02  0.77573434645E+02  0.17495441211E+03  0.12500000000E+03 0.  0.
         25    1    1    2    0    0 -0.24865431402E+02 -0.10264288820E+03 -0.30160374542E+02  0.16639861889E+03  0.12500000000E+03 0.  0.
</event>
<event>
 5    0  0.5561624E-005  0.3576426E+03  0.7546771E-02  0.1059521E+00
         21   -1    0    0  502  501  0.00000000000E+00  0.00000000000E+00  0.83198620651E+02  0.83198620651E+02  0.00000000000E+00 0.  1.
         21   -1    0    0  501  502 -0.00000000000E+00 -0.00000000000E+00 -0.15373844374E+04  0.15373844374E+04  0.00000000000E+00 0.  1.
         25    1    1    2    0    0 -0.21907850135E+02 -0.70325239711E+01 -0.86414896896E+01  0.12739342854E+03  0.12500000000E+03 0.  0.
         25    1    1    2    0    0  0.33106446550E+02 -0.55358445028E+02 -0.23007568469E+03  0.26966722998E+03  0.12500000000E+03 0.  0.
         25    1    1    2    0    0 -0.11198596415E+02  0.62390968999E+02 -0.12154686424E+04  0.12235223996E+04  0.12500000000E+03 0.  0.
</event>
<event>
 5    0  0.5561624E-005  0.3034654E+03  0.7546771E-02  0.1083521E+00
         21   -1    0    0  502  501  0.00000000000E+00  0.00000000000E+00  0.35195283490E+03  0.35195283490E+03  0.00000000000E+00 0. -1.
         21   -1    0    0  501  502 -0.00000000000E+00 -0.00000000000E+00 -0.26165786356E+03  0.26165786356E+03  0.00000000000E+00 0. -1.
         25    1    1    2    0    0  0.10814906187E+03 -0.47337040873E+02  0.77657543050E+01  0.17211136500E+03  0.12500000000E+03 0.  0.
         25    1    1    2    0    0  0.10205149443E+03 -0.48910306583E+02  0.10269483349E+02  0.16892953529E+03  0.12500000000E+03 0.  0.
         25    1    1    2    0    0 -0.21020055630E+03  0.96247347456E+02  0.72259733685E+02  0.27256979816E+03  0.12500000000E+03 0.  0.
</event>
<event>
 5    0  0.5561624E-005  0.4818354E+03  0.7546771E-02  0.1018632E+00
         21   -1    0    0  502  501  0.00000000000E+00  0.00000000000E+00  0.75615758166E+02  0.75615758166E+02  0.00000000000E+00 0. -1.
         21   -1    0    0  501  502 -0.00000000000E+00 -0.00000000000E+00 -0.30703297373E+04  0.30703297373E+04  0.00000000000E+00 0. -1.
         25    1    1    2    0    0 -0.55186185650E+02  0.21823726388E+03 -0.13436975323E+04  0.13681451227E+04  0.12500000000E+03 0.  0.
         25    1    1    2    0    0 -0.59003700464E+02  0.17461722650E+03 -0.71008544687E+03  0.74419013317E+03  0.12500000000E+03 0.  0.
         25    1    1    2    0    0  0.11418988611E+03 -0.39285449038E+03 -0.94093099993E+03  0.10336102396E+04  0.12500000000E+03 0.  0.
</event>
<event>
 5    0  0.5561624E-005  0.2475507E+03  0.7546771E-02  0.1114863E+00
         21   -1    0    0  502  501  0.00000000000E+00  0.00000000000E+00  0.24999567810E+02  0.24999567810E+02  0.00000000000E+00 0.  1.
         21   -1    0    0  501  502 -0.00000000000E+00 -0.00000000000E+00 -0.24512962937E+04  0.24512962937E+04  0.00000000000E+00 0.  1.
         25    1    1    2    0    0  0.50375596223E+02 -0.36909393797E+01 -0.36276187299E+03  0.38700452222E+03  0.12500000000E+03 0.  0.
         25    1    1    2    0    0  0.56767257388E+02 -0.39452723331E+02 -0.64771600120E+03  0.66327977287E+03  0.12500000000E+03 0.  0.
         25    1    1    2    0    0 -0.10714285361E+03  0.43143662710E+02 -0.14158188517E+04  0.14260115664E+04  0.12500000000E+03 0.  0.
</event>
<event>
 5    0  0.5561624E-005  0.2868099E+03  0.7546771E-02  0.1092027E+00
         21   -1    0    0  502  501  0.00000000000E+00  0.00000000000E+00  0.13859352850E+04  0.13859352850E+04  0.00000000000E+00 0. -1.
         21   -1    0    0  501  502 -0.00000000000E+00 -0.00000000000E+00 -0.59353375546E+02  0.59353375546E+02  0.00000000000E+00 0. -1.
         25    1    1    2    0    0  0.69264092788E+02  0.15161117849E+03  0.68344916158E+03  0.71450067912E+03  0.12500000000E+03 0.  0.
         25    1    1    2    0    0 -0.77620247431E+02 -0.15049161811E+03  0.48750513631E+03  0.53099801116E+03  0.12500000000E+03 0.  0.
         25    1    1    2    0    0  0.83561546433E+01 -0.11195603844E+01  0.15562761155E+03  0.19978997025E+03  0.12500000000E+03 0.  0.
</event>
<event>
 5    0  0.5561624E-005  0.2318821E+03  0.7546771E-02  0.1125322E+00
         21   -1    0    0  502  501  0.00000000000E+00  0.00000000000E+00  0.12853899713E+04  0.12853899713E+04  0.00000000000E+00 0.  1.
         21   -1    0    0  501  502 -0.00000000000E+00 -0.00000000000E+00 -0.41831133274E+02  0.41831133274E+02  0.00000000000E+00 0.  1.
         25    1    1    2    0    0 -0.68434457746E+02  0.28359216853E+02  0.32621551176E+03  0.35711213967E+03  0.12500000000E+03 0.  0.
         25    1    1    2    0    0  0.48159266716E+02  0.52557994890E+02  0.27446216655E+03  0.30989698073E+03  0.12500000000E+03 0.  0.
         25    1    1    2    0    0  0.20275191030E+02 -0.80917211743E+02  0.64288115969E+03  0.66021198415E+03  0.12500000000E+03 0.  0.
</event>
<event>
 5    0  0.5561624E-005  0.3925568E+03  0.7546771E-02  0.1046388E+00
         21   -1    0    0  502  501  0.00000000000E+00  0.00000000000E+00  0.61130387256E+02  0.61130387256E+02  0.00000000000E+00 0. -1.
         21   -1    0    0  501  502 -0.00000000000E+00 -0.00000000000E+00 -0.25208550729E+04  0.25208550729E+04  0.00000000000E+00 0. -1.
         25    1    1    2    0    0 -0.21797478550E+02  0.53323962973E+02 -0.12950713161E+04  0.13023644992E+04  0.12500000000E+03 0.  0.
         25    1    1    2    0    0  0.17979913972E+03  0.12698598749E+03 -0.46305798326E+03  0.52773181402E+03  0.12500000000E+03 0.  0.
         25    1    1    2    0    0 -0.15800166117E+03 -0.18030995047E+03 -0.70159538632E+03  0.75188914694E+03  0.12500000000E+03 0.  0.
</event>
<event>
 5    0  0.5561624E-005  0.3813721E+03  0.7546771E-02  0.1050428E+00
         21   -1    0    0  502  501  0.00000000000E+00  0.00000000000E+00  0.12518102190E+04  0.12518102190E+04  0.00000000000E+00 0.  1.
         21   -1    0    0  501  502 -0.00000000000E+00 -0.00000000000E+00 -0.11618748545E+03  0.11618748545E+03  0.00000000000E+00 0.  1.
         25    1    1    2    0    0  0.30803988518E+02  0.13119645547E+03  0.16335911189E+03  0.24591176278E+03  0.12500000000E+03 0.  0.
         25    1    1    2    0    0 -0.10280830749E+03  0.16277096615E+03  0.34299205859E+03  0.41271356625E+03  0.12500000000E+03 0.  0.
         25    1    1    2    0    0  0.72004318972E+02 -0.29396742162E+03  0.62927156311E+03  0.70937237546E+03  0.12500000000E+03 0.  0.
</event>
<event>
 5    0  0.5561624E-005  0.2602452E+03  0.7546771E-02  0.1106996E+00
         21   -1    0    0  502  501  0.00000000000E+00  0.00000000000E+00  0.12371492038E+03  0.12371492038E+03  0.00000000000E+00 0. -1.
         21   -1    0    0  501  502 -0.00000000000E+00 -0.00000000000E+00 -0.54744883107E+03  0.54744883107E+03  0.00000000000E+00 0. -1.
         25    1    1    2    0    0 -0.55364859843E+02  0.19793697270E+02 -0.35280702259E+02  0.14257203831E+03  0.12500000000E+03 0.  0.
         25    1    1    2    0    0 -0.97685096805E+02  0.83390516743E+01 -0.16906975527E+03  0.23199461215E+03  0.12500000000E+03 0.  0.
         25    1    1    2    0    0  0.15304995665E+03 -0.28132748944E+02 -0.21938345316E+03  0.29659710098E+03  0.12500000000E+03 0.  0.
</event>
<event>
 5    0  0.5561624E-005  0.4909538E+03  0.7546771E-02  0.1016167E+00
         21   -1    0    0  502  501  0.00000000000E+00  0.00000000000E+00  0.15073370468E+04  0.15073370468E+04  0.00000000000E+00 0.  1.
         21   -1    0    0  501  502 -0.00000000000E+00 -0.00000000000E+00 -0.15990825844E+03  0.15990825844E+03  0.00000000000E+00 0.  1.
         25    1    1    2    0    0  0.18947907469E+03 -0.80351850609E+02  0.11343700456E+04  0.11596461271E+04  0.12500000000E+03 0.  0.
         25    1    1    2    0    0 -0.20597372218E+03 -0.80527308865E+02  0.92859771423E+02  0.27047691002E+03  0.12500000000E+03 0.  0.
         25    1    1    2    0    0  0.16494647490E+02  0.16087915947E+03  0.12019897135E+03  0.23712226817E+03  0.12500000000E+03 0.  0.
</event>
<event>
 5    0  0.5561624E-005  0.3652986E+03  0.7546771E-02  0.1056505E+00
         21   -1    0    0  502  501  0.00000000000E+00  0.00000000000E+00  0.12601829152E+04  0.12601829152E+04  0.00000000000E+00 0.  1.
         21   -1    0    0  501  502 -0.00000000000E+00 -0.00000000000E+00 -0.10589180079E+03  0.10589180079E+03  0.00000000000E+00 0.  1.
         25    1    1    2    0    0 -0.22117132912E+02  0.89400164222E+02  0.48251228785E+03  0.50687736669E+03  0.12500000000E+03 0.  0.
         25    1    1    2    0    0  0.19794360168E+03  0.93044413255E+02  0.28796970327E+03  0.38261009172E+03  0.12500000000E+03 0.  0.
         25    1    1    2    0    0 -0.17582646877E+03 -0.18244457748E+03  0.38380912326E+03  0.47658725756E+03  0.12500000000E+03 0.  0.
</event>
<event>
 5    0  0.5561624E-005  0.3709258E+03  0.7546771E-02  0.1054340E+00
         21   -1    0    0  502  501  0.00000000000E+00  0.00000000000E+00  0.16148953396E+03  0.16148953396E+03  0.00000000000E+00 0. -1.
         21   -1    0    0  501  502 -0.00000000000E+00 -0.00000000000E+00 -0.85198055209E+03  0.85198055209E+03  0.00000000000E+00 0. -1.
         25    1    1    2    0    0  0.50094824278E+02 -0.16543894128E+03 -0.16863302389E+03  0.27192210550E+03  0.12500000000E+03 0.  0.
         25    1    1    2    0    0  0.13150628901E+03  0.23266464138E+03 -0.26691828869E+03  0.39786569622E+03  0.12500000000E+03 0.  0.
         25    1    1    2    0    0 -0.18160111328E+03 -0.67225700100E+02 -0.25493970555E+03  0.34368228434E+03  0.12500000000E+03 0.  0.
</event>
<event>
 5    0  0.5561624E-005  0.3344006E+03  0.7546771E-02  0.1069206E+00
         21   -1    0    0  502  501  0.00000000000E+00  0.00000000000E+00  0.83050961458E+02  0.83050961458E+02  0.00000000000E+00 0. -1.
         21   -1    0    0  501  502 -0.00000000000E+00 -0.00000000000E+00 -0.13464472130E+04  0.13464472130E+04  0.00000000000E+00 0. -1.
         25    1    1    2    0    0 -0.11929128781E+03  0.54085479006E+02 -0.69773803168E+02  0.19403358986E+03  0.12500000000E+03 0.  0.
         25    1    1    2    0    0  0.47438431076E+02 -0.47156323011E+02 -0.86495269204E+03  0.87649431430E+03  0.12500000000E+03 0.  0.
         25    1    1    2    0    0  0.71852856735E+02 -0.69291559947E+01 -0.32866975635E+03  0.35897027031E+03  0.12500000000E+03 0.  0.
</event>
<event>
 5    0  0.6173809E-005  0.3443767E+03  0.7546771E-02  0.1064947E+00
         21   -1    0    0  502  501  0.00000000000E+00  0.00000000000E+00  0.52926914825E+03  0.52926914825E+03  0.00000000000E+00 0. -1.
         21   -1    0    0  501  502 -0.00000000000E+00 -0.00000000000E+00 -0.22407368351E+03  0.22407368351E+03  0.00000000000E+00 0. -1.
         25    1    1    2    0    0 -0.74926887298E+02  0.22542157958E+03  0.68517403421E+02  0.27703530741E+03  0.12500000000E+03 0.  0.
         25    1    1    2    0    0  0.12041743721E+03 -0.12116894121E+03  0.22187813373E+03  0.30665481852E+03  0.12500000000E+03 0.  0.
         25    1    1    2    0    0 -0.45490549909E+02 -0.10425263837E+03  0.14799927595E+02  0.16965270583E+03  0.12500000000E+03 0.  0.
</event>
<event>
 5    0  0.5561624E-005  0.4134098E+03  0.7546771E-02  0.1039233E+00
         21   -1    0    0  502  501  0.00000000000E+00  0.00000000000E+00  0.44614276032E+03  0.44614276032E+03  0.00000000000E+00 0.  1.
         21   -1    0    0  501  502 -0.00000000000E+00 -0.00000000000E+00 -0.38307837568E+03  0.38307837568E+03  0.00000000000E+00 0.  1.
         25    1    1    2    0    0  0.30664407242E+02 -0.11222255899E+03  0.32723271098E+03  0.36910764792E+03  0.12500000000E+03 0.  0.
         25    1    1    2    0    0 -0.10351744658E+03  0.15012788050E+03 -0.19714578092E+03  0.29621900882E+03  0.12500000000E+03 0.  0.
         25    1    1    2    0    0  0.72853039337E+02 -0.37905321512E+02 -0.67022545411E+02  0.16389447926E+03  0.12500000000E+03 0.  0.
</event>
<event>
 5    0  0.5561624E-005  0.5823607E+03  0.7546771E-02  0.9942693E-01
         21   -1    0    0  502  501  0.00000000000E+00  0.00000000000E+00  0.59068081186E+03  0.59068081186E+03  0.00000000000E+00 0.  1.
         21   -1    0    0  501  502 -0.00000000000E+00 -0.00000000000E+00 -0.57415776017E+03  0.57415776017E+03  0.00000000000E+00 0.  1.
         25    1    1    2    0    0 -0.26776549964E+03  0.13668674252E+03 -0.13339187833E+03  0.35185227239E+03  0.12500000000E+03 0.  0.
         25    1    1    2    0    0  0.49279483736E+03 -0.15238734500E+03  0.38774504408E+02  0.53216267892E+03  0.12500000000E+03 0.  0.
         25    1    1    2    0    0 -0.22502933771E+03  0.15700602479E+02  0.11114042560E+03  0.28082362072E+03  0.12500000000E+03 0.  0.
</event>
<event>
 5    0  0.5561624E-005  0.3630103E+03  0.7546771E-02  0.1057398E+00
         21   -1    0    0  502  501  0.00000000000E+00  0.00000000000E+00  0.44697483110E+03  0.44697483110E+03  0.00000000000E+00 0.  1.
         21   -1    0    0  501  502 -0.00000000000E+00 -0.00000000000E+00 -0.29481863202E+03  0.29481863202E+03  0.00000000000E+00 0.  1.
         25    1    1    2    0    0 -0.14212559712E+03  0.71944602378E+02 -0.14419279114E+03  0.24858051449E+03  0.12500000000E+03 0.  0.
         25    1    1    2    0    0  0.10770195563E+03  0.82380337228E+02  0.19207649470E+03  0.26627919751E+03  0.12500000000E+03 0.  0.
         25    1    1    2    0    0  0.34423641495E+02 -0.15432493961E+03  0.10427249551E+03  0.22693375112E+03  0.12500000000E+03 0.  0.
</event>
<event>
 5    0  0.5561624E-005  0.3362696E+03  0.7546771E-02  0.1068396E+00
         21   -1    0    0  502  501  0.00000000000E+00  0.00000000000E+00  0.23227300717E+03  0.23227300717E+03  0.00000000000E+00 0. -1.
         21   -1    0    0  501  502 -0.00000000000E+00 -0.00000000000E+00 -0.48682909782E+03  0.48682909782E+03  0.00000000000E+00 0. -1.
         25    1    1    2    0    0  0.15117553324E+03  0.10755030241E+03  0.57383642723E+01  0.22378346280E+03  0.12500000000E+03 0.  0.
         25    1    1    2    0    0 -0.10937939023E+03 -0.68625056329E+02 -0.30223525407E+03  0.35163105404E+03  0.12500000000E+03 0.  0.
         25    1    1    2    0    0 -0.41796143007E+02 -0.38925246085E+02  0.41940799150E+02  0.14368758814E+03  0.12500000000E+03 0.  0.
</event>
<event>
 5    0  0.5561624E-005  0.4643930E+03  0.7546771E-02  0.1023515E+00
         21   -1    0    0  502  501  0.00000000000E+00  0.00000000000E+00  0.53335604377E+03  0.53335604377E+03  0.00000000000E+00 0. -1.
         21   -1    0    0  501  502 -0.00000000000E+00 -0.00000000000E+00 -0.40434684877E+03  0.40434684877E+03  0.00000000000E+00 0. -1.
         25    1    1    2    0    0 -0.11278605462E+03  0.73357458196E+02  0.35406630724E+02  0.18703112118E+03  0.12500000000E+03 0.  0.
         25    1    1    2    0    0  0.15483013264E+03  0.28489538760E+03 -0.31514573596E+02  0.34893540978E+03  0.12500000000E+03 0.  0.
         25    1    1    2    0    0 -0.42044078017E+02 -0.35825284580E+03  0.12511713787E+03  0.40173636157E+03  0.12500000000E+03 0.  0.
</event>
<event>
 5    0  0.5561624E-005  0.3530559E+03  0.7546771E-02  0.1061368E+00
         21   -1    0    0  502  501  0.00000000000E+00  0.00000000000E+00  0.10389027006E+03  0.10389027006E+03  0.00000000000E+00 0.  1.
         21   -1    0    0  501  502 -0.00000000000E+00 -0.00000000000E+00 -0.11998091858E+04  0.11998091858E+04  0.00000000000E+00 0.  1.
         25    1    1    2    0    0 -0.45219502357E+02 -0.42479720749E+02 -0.79886785378E+03  0.81096496710E+03  0.12500000000E+03 0.  0.
         25    1    1    2    0    0  0.15343235520E+03  0.95098320961E+02 -0.16189347164E+03  0.27279969654E+03  0.12500000000E+03 0.  0.
         25    1    1    2    0    0 -0.10821285284E+03 -0.52618600212E+02 -0.13515759030E+03  0.21993479221E+03  0.12500000000E+03 0.  0.
</event>
<event>
 5    0  0.5561624E-005  0.2652548E+03  0.7546771E-02  0.1104027E+00
         21   -1    0    0  502  501  0.00000000000E+00  0.00000000000E+00  0.58719287961E+02  0.58719287961E+02  0.00000000000E+00 0.  1.
         21   -1    0    0  501  502 -0.00000000000E+00 -0.00000000000E+00 -0.11982449988E+04  0.11982449988E+04  0.00000000000E+00 0.  1.
         25    1    1    2    0    0 -0.15919678389E+03  0.57052793343E+02 -0.45506836015E+03  0.50130913580E+03  0.12500000000E+03 0.  0.
         25    1    1    2    0    0  0.76485022483E+02 -0.59167321264E+02 -0.24704210521E+03  0.29326699834E+03  0.12500000000E+03 0.  0.
         25    1    1    2    0    0  0.82711761412E+02  0.21145279213E+01 -0.43741524552E+03  0.46238815266E+03  0.12500000000E+03 0.  0.
</event>
<event>
 5    0  0.5561624E-005  0.2645249E+03  0.7546771E-02  0.1104455E+00
         21   -1    0    0  502  501  0.00000000000E+00  0.00000000000E+00  0.22777208598E+03  0.22777208598E+03  0.00000000000E+00 0.  1.
         21   -1    0    0  501  502 -0.00000000000E+00 -0.00000000000E+00 -0.30720810202E+03  0.30720810202E+03  0.00000000000E+00 0.  1.
         25    1    1    2    0    0  0.15737056180E+03 -0.47322593482E+02 -0.10551869945E+02  0.20673960321E+03  0.12500000000E+03 0.  0.
         25    1    1    2    0    0 -0.65695440175E+02  0.14506847225E+02 -0.90461313588E+02  0.16832881136E+03  0.12500000000E+03 0.  0.
         25    1    1    2    0    0 -0.91675121623E+02  0.32815746257E+02  0.21577167500E+02  0.15991177344E+03  0.12500000000E+03 0.  0.
</event>
<event>
 5    0  0.5561624E-005  0.1972869E+03  0.7546771E-02  0.1152048E+00
         21   -1    0    0  502  501  0.00000000000E+00  0.00000000000E+00  0.32345447455E+03  0.32345447455E+03  0.00000000000E+00 0. -1.
         21   -1    0    0  501  502 -0.00000000000E+00 -0.00000000000E+00 -0.12033260919E+03  0.12033260919E+03  0.00000000000E+00 0. -1.
         25    1    1    2    0    0 -0.48973312774E+01 -0.39985356923E+02  0.10319670538E+03  0.16702506586E+03  0.12500000000E+03 0.  0.
         25    1    1    2    0    0  0.17477555476E+02  0.17662296314E+02  0.71138539463E+02  0.14595586132E+03  0.12500000000E+03 0.  0.
         25    1    1    2    0    0 -0.12580224198E+02  0.22323060610E+02  0.28786620515E+02  0.13080615657E+03  0.12500000000E+03 0.  0.
</event>
<event>
 5    0  0.5561624E-005  0.3581590E+03  0.7546771E-02  0.1059315E+00
         21   -1    0    0  502  501  0.00000000000E+00  0.00000000000E+00  0.34199238359E+03  0.34199238359E+03  0.00000000000E+00 0.  1.
         21   -1    0    0  501  502 -0.00000000000E+00 -0.00000000000E+00 -0.37508980626E+03  0.37508980626E+03  0.00000000000E+00 0.  1.
         25    1    1    2    0    0 -0.74889898566E+02 -0.10317144166E+03  0.78806746060E+02  0.19516235935E+03  0.12500000000E+03 0.  0.
         25    1    1    2    0    0 -0.71288962809E+02 -0.38520086600E+02  0.11825109538E+03  0.19019525454E+03  0.12500000000E+03 0.  0.
         25    1    1    2    0    0  0.14617886137E+03  0.14169152826E+03 -0.23015526412E+03  0.33172457596E+03  0.12500000000E+03 0.  0.
</event>
<event>
 5    0  0.5561624E-005  0.2912710E+03  0.7546771E-02  0.1089687E+00
         21   -1    0    0  502  501  0.00000000000E+00  0.00000000000E+00  0.66531234801E+02  0.66531234801E+02  0.00000000000E+00 0. -1.
         21   -1    0    0  501  502 -0.00000000000E+00 -0.00000000000E+00 -0.12751727181E+04  0.12751727181E+04  0.00000000000E+00 0. -1.
         25    1    1    2    0    0  0.95299894898E+01  0.15400833526E+01 -0.33945816116E+03  0.36187019183E+03  0.12500000000E+03 0.  0.
         25    1    1    2    0    0 -0.81163726534E+02 -0.17254546474E+03 -0.41127161406E+03  0.47024337150E+03  0.12500000000E+03 0.  0.
         25    1    1    2    0    0  0.71633737044E+02  0.17100538139E+03 -0.45791170807E+03  0.50959038956E+03  0.12500000000E+03 0.  0.
</event>
<event>
 5    0  0.5561624E-005  0.3351353E+03  0.7546771E-02  0.1068887E+00
         21   -1    0    0  502  501  0.00000000000E+00  0.00000000000E+00  0.31570274000E+03  0.31570274000E+03  0.00000000000E+00 0. -1.
         21   -1    0    0  501  502 -0.00000000000E+00 -0.00000000000E+00 -0.35576409294E+03  0.35576409294E+03  0.00000000000E+00 0. -1.
         25    1    1    2    0    0 -0.64036780710E+02 -0.15701259823E+03 -0.25520735742E+01  0.21067790194E+03  0.12500000000E+03 0.  0.
         25    1    1    2    0    0  0.45420363803E+02  0.23817280555E+03 -0.10985415184E+03  0.29407861097E+03  0.12500000000E+03 0.  0.
         25    1    1    2    0    0  0.18616416907E+02 -0.81160207322E+02  0.72344872479E+02  0.16671032003E+03  0.12500000000E+03 0.  0.
</event>
<event>
 5    0  0.5561624E-005  0.2526832E+03  0.7546771E-02  0.1111621E+00
         21   -1    0    0  502  501  0.00000000000E+00  0.00000000000E+00  0.86949375670E+02  0.86949375670E+02  0.00000000000E+00 0. -1.
         21   -1    0    0  501  502 -0.00000000000E+00 -0.00000000000E+00 -0.73432147999E+03  0.73432147999E+03  0.00000000000E+00 0. -1.
         25    1    1    2    0    0  0.46430750643E+02 -0.68992600913E+02 -0.76256091346E+02  0.16839176065E+03  0.12500000000E+03 0.  0.
         25    1    1    2    0    0  0.56520740600E+02 -0.28254420111E+01 -0.28597960646E+03  0.31719380913E+03  0.12500000000E+03 0.  0.
         25    1    1    2    0    0 -0.10295149124E+03  0.71818042924E+02 -0.28513640652E+03  0.33568528589E+03  0.12500000000E+03 0.  0.
</event>
<event>
 5    0  0.5920961E-005  0.3447488E+03  0.7546771E-02  0.1064791E+00
         21   -1    0    0  502  501  0.00000000000E+00  0.00000000000E+00  0.80529535624E+02  0.80529535624E+02  0.00000000000E+00 0.  1.
         21   -1    0    0  501  502 -0.00000000000E+00 -0.00000000000E+00 -0.14758776727E+04  0.14758776727E+04  0.00000000000E+00 0.  1.
         25    1    1    2    0    0  0.16909639731E+03  0.13653588202E+01 -0.37879894171E+03  0.43325407561E+03  0.12500000000E+03 0.  0.
         25    1    1    2    0    0  0.39789191903E+02  0.12573661299E+03 -0.57638732919E+03  0.60435108082E+03  0.12500000000E+03 0.  0.
         25    1    1    2    0    0 -0.20888558921E+03 -0.12710197181E+03 -0.44016186617E+03  0.51880205189E+03  0.12500000000E+03 0.  0.
</event>
<event>
 5    0  0.5561624E-005  0.5211000E+03  0.7546771E-02  0.1008414E+00
         21   -1    0    0  502  501  0.00000000000E+00  0.00000000000E+00  0.18808288776E+04  0.18808288776E+04  0.00000000000E+00 0. -1.
         21   -1    0    0  501  502 -0.00000000000E+00 -0.00000000000E+00 -0.14437526682E+03  0.14437526682E+03  0.00000000000E+00 0. -1.
         25    1    1    2    0    0  0.36836604416E+03 -0.25266450537E+03  0.70152746422E+03  0.84101050993E+03  0.12500000000E+03 0.  0.
         25    1    1    2    0    0 -0.72527533904E+02  0.17095159523E+03  0.57726589057E+03  0.61914909312E+03  0.12500000000E+03 0.  0.
         25    1    1    2    0    0 -0.29583851026E+03  0.81712910140E+02  0.45766025600E+03  0.56504454139E+03  0.12500000000E+03 0.  0.
</event>
<event>
 5    0  0.5561624E-005  0.2318753E+03  0.7546771E-02  0.1125327E+00
         21   -1    0    0  502  501  0.00000000000E+00  0.00000000000E+00  0.96974620597E+03  0.96974620597E+03  0.00000000000E+00 0. -1.
         21   -1    0    0  501  502 -0.00000000000E+00 -0.00000000000E+00 -0.55443512428E+02  0.55443512428E+02  0.00000000000E+00 0. -1.
         25    1    1    2    0    0 -0.77250652699E+02 -0.54056678715E+01  0.24490021871E+03  0.28565363941E+03  0.12500000000E+03 0.  0.
         25    1    1    2    0    0  0.26427488070E+01  0.75217769632E+02  0.39597664595E+03  0.42200379279E+03  0.12500000000E+03 0.  0.
         25    1    1    2    0    0  0.74607903892E+02 -0.69812101760E+02  0.27342582888E+03  0.31753228619E+03  0.12500000000E+03 0.  0.
</event>
<event>
 5    0  0.5561624E-005  0.2293549E+03  0.7546771E-02  0.1127095E+00
         21   -1    0    0  502  501  0.00000000000E+00  0.00000000000E+00  0.46485707347E+03  0.46485707347E+03  0.00000000000E+00 0.  1.
         21   -1    0    0  501  502 -0.00000000000E+00 -0.00000000000E+00 -0.11316092739E+03  0.11316092739E+03  0.00000000000E+00 0.  1.
         25    1    1    2    0    0  0.77610599721E+02  0.77721172313E+02  0.87196386654E+02  0.18786217198E+03  0.12500000000E+03 0.  0.
         25    1    1    2    0    0 -0.83137675645E+02 -0.45770748928E+02  0.15888538046E+03  0.22333024581E+03  0.12500000000E+03 0.  0.
         25    1    1    2    0    0  0.55270759237E+01 -0.31950423385E+02  0.10561437897E+03  0.16682558307E+03  0.12500000000E+03 0.  0.
</event>
<event>
 5    0  0.5561624E-005  0.2822925E+03  0.7546771E-02  0.1094443E+00
         21   -1    0    0  502  501  0.00000000000E+00  0.00000000000E+00  0.17718979070E+04  0.17718979070E+04  0.00000000000E+00 0.  1.
         21   -1    0    0  501  502 -0.00000000000E+00 -0.00000000000E+00 -0.44973855741E+02  0.44973855741E+02  0.00000000000E+00 0.  1.
         25    1    1    2    0    0  0.66395659394E+02  0.32780389969E+02  0.13437928153E+03  0.19790333210E+03  0.12500000000E+03 0.  0.
         25    1    1    2    0    0  0.32782204021E+02 -0.66638485977E+01  0.67685799868E+03  0.68911597729E+03  0.12500000000E+03 0.  0.
         25    1    1    2    0    0 -0.99177863414E+02 -0.26116541371E+02  0.91568677106E+03  0.92985245336E+03  0.12500000000E+03 0.  0.
</event>
<event>
 5    0  0.5561624E-005  0.2228402E+03  0.7546771E-02  0.1131783E+00
         21   -1    0    0  502  501  0.00000000000E+00  0.00000000000E+00  0.47740052132E+02  0.47740052132E+02  0.00000000000E+00 0. -1.
         21   -1    0    0  501  502 -0.00000000000E+00 -0.00000000000E+00 -0.10401698394E+04  0.10401698394E+04  0.00000000000E+00 0. -1.
         25    1    1    2    0    0 -0.10523431516E+02 -0.26378456683E+02 -0.42025158320E+03  0.43936654262E+03  0.12500000000E+03 0.  0.
         25    1    1    2    0    0 -0.47242497832E+02 -0.30206001221E+01 -0.13806760504E+03  0.19216826270E+03  0.12500000000E+03 0.  0.
         25    1    1    2    0    0  0.57765929348E+02  0.29399056805E+02 -0.43411059903E+03  0.45637508623E+03  0.12500000000E+03 0.  0.
</event>
<event>
 5    0  0.5656528E-005  0.3543989E+03  0.7546771E-02  0.1060824E+00
         21   -1    0    0  502  501  0.00000000000E+00  0.00000000000E+00  0.21848457850E+03  0.21848457850E+03  0.00000000000E+00 0. -1.
         21   -1    0    0  501  502 -0.00000000000E+00 -0.00000000000E+00 -0.57486235321E+03  0.57486235321E+03  0.00000000000E+00 0. -1.
         25    1    1    2    0    0  0.15639882164E+03  0.50133133989E+01 -0.38359088156E+03  0.43272703767E+03  0.12500000000E+03 0.  0.
         25    1    1    2    0    0 -0.24950369983E+01 -0.71896194644E+02 -0.21392276372E+02  0.14580095165E+03  0.12500000000E+03 0.  0.
         25    1    1    2    0    0 -0.15390378464E+03  0.66882881245E+02  0.48605383227E+02  0.21481894239E+03  0.12500000000E+03 0.  0.
</event>
<event>
 5    0  0.5561624E-005  0.2995867E+03  0.7546771E-02  0.1085447E+00
         21   -1    0    0  502  501  0.00000000000E+00  0.00000000000E+00  0.18382629356E+03  0.18382629356E+03  0.00000000000E+00 0. -1.
         21   -1    0    0  501  502 -0.00000000000E+00 -0.00000000000E+00 -0.48824445444E+03  0.48824445444E+03  0.00000000000E+00 0. -1.
         25    1    1    2    0    0  0.10616723425E+03  0.14724477553E+03 -0.16220580330E+03  0.27365713617E+03  0.12500000000E+03 0.  0.
         25    1    1    2    0    0 -0.13162252440E+03 -0.12143915097E+03 -0.15474501449E+03  0.26766205527E+03  0.12500000000E+03 0.  0.
         25    1    1    2    0    0  0.25455290149E+02 -0.25805624563E+02  0.12532656912E+02  0.13075155657E+03  0.12500000000E+03 0.  0.
</event>
<event>
 5    0  0.5561624E-005  0.3809145E+03  0.7546771E-02  0.1050596E+00
         21   -1    0    0  502  501  0.00000000000E+00  0.00000000000E+00  0.29146938514E+03  0.29146938514E+03  0.00000000000E+00 0.  1.
         21   -1    0    0  501  502 -0.00000000000E+00 -0.00000000000E+00 -0.49780829793E+03  0.49780829793E+03  0.00000000000E+00 0.  1.
         25    1    1    2    0    0  0.13992073546E+03  0.11582378867E+03 -0.84154305984E+02  0.23600828259E+03  0.12500000000E+03 0.  0.
         25    1    1    2    0    0  0.10129124394E+02 -0.23319097323E+03 -0.17754558367E+03  0.31879156739E+03  0.12500000000E+03 0.  0.
         25    1    1    2    0    0 -0.15004985986E+03  0.11736718456E+03  0.55360976858E+02  0.23447783310E+03  0.12500000000E+03 0.  0.
</event>
<event>
 5    0  0.5561624E-005  0.2223841E+03  0.7546771E-02  0.1132118E+00
         21   -1    0    0  502  501  0.00000000000E+00  0.00000000000E+00  0.74335800099E+03  0.74335800099E+03  0.00000000000E+00 0.  1.
         21   -1    0    0  501  502 -0.00000000000E+00 -0.00000000000E+00 -0.66528790100E+02  0.66528790100E+02  0.00000000000E+00 0.  1.
         25    1    1    2    0    0 -0.11424844673E+02  0.80605645800E+02  0.16176197632E+03  0.22004484587E+03  0.12500000000E+03 0.  0.
         25    1    1    2    0    0 -0.42397957355E+02 -0.20156708537E+02  0.18932021399E+03  0.23167007384E+03  0.12500000000E+03 0.  0.
         25    1    1    2    0    0  0.53822802028E+02 -0.60448937263E+02  0.32574702057E+03  0.35817187138E+03  0.12500000000E+03 0.  0.
</event>
<event>
 5    0  0.5561624E-005  0.2131397E+03  0.7546771E-02  0.1139104E+00
         21   -1    0    0  502  501  0.00000000000E+00  0.00000000000E+00  0.14179945812E+03  0.14179945812E+03  0.00000000000E+00 0. -1.
         21   -1    0    0  501  502 -0.00000000000E+00 -0.00000000000E+00 -0.32037157759E+03  0.32037157759E+03  0.00000000000E+00 0. -1.
         25    1    1    2    0    0 -0.16882557265E+02  0.56369745760E+02 -0.93428192732E+02  0.16678248162E+03  0.12500000000E+03 0.  0.
         25    1    1    2    0    0  0.51975295018E+02  0.49208665882E+01 -0.17204269629E+02  0.13655267523E+03  0.12500000000E+03 0.  0.
         25    1    1    2    0    0 -0.35092737753E+02 -0.61290612348E+02 -0.67939657111E+02  0.15883587886E+03  0.12500000000E+03 0.  0.
</event>
<event>
 5    0  0.5561624E-005  0.3194986E+03  0.7546771E-02  0.1075880E+00
         21   -1    0    0  502  501  0.00000000000E+00  0.00000000000E+00  0.10468311272E+04  0.10468311272E+04  0.00000000000E+00 0. -1.
         21   -1    0    0  501  502 -0.00000000000E+00 -0.00000000000E+00 -0.97512721223E+02  0.97512721223E+02  0.00000000000E+00 0. -1.
         25    1    1    2    0    0  0.10049202567E+03 -0.13754053641E+03  0.38585064211E+03  0.43991108692E+03  0.12500000000E+03 0.  0.
         25    1    1    2    0    0 -0.72719873891E+02  0.71770317886E+02  0.53350340822E+03  0.55739577068E+03  0.12500000000E+03 0.  0.
         25    1    1    2    0    0 -0.27772151778E+02  0.65770218525E+02  0.29964355638E+02  0.14703699082E+03  0.12500000000E+03 0.  0.
</event>
<event>
 5    0  0.6289941E-005  0.3751223E+03  0.7546771E-02  0.1052751E+00
         21   -1    0    0  502  501  0.00000000000E+00  0.00000000000E+00  0.61786570504E+03  0.61786570504E+03  0.00000000000E+00 0.  1.
         21   -1    0    0  501  502 -0.00000000000E+00 -0.00000000000E+00 -0.22774651482E+03  0.22774651482E+03  0.00000000000E+00 0.  1.
         25    1    1    2    0    0 -0.11135740337E+03 -0.25806509691E+02  0.35623258361E+03  0.39445291336E+03  0.12500000000E+03 0.  0.
         25    1    1    2    0    0 -0.80912227780E+01  0.13269473939E+03 -0.99685758749E+02  0.20793174901E+03  0.12500000000E+03 0.  0.
         25    1    1    2    0    0  0.11944862615E+03 -0.10688822970E+03  0.13357236536E+03  0.24322755749E+03  0.12500000000E+03 0.  0.
</event>
<event>
 5    0  0.5561624E-005  0.2292006E+03  0.7546771E-02  0.1127204E+00
         21   -1    0    0  502  501  0.00000000000E+00  0.00000000000E+00  0.52044045711E+03  0.52044045711E+03  0.00000000000E+00 0.  1.
         21   -1    0    0  501  502 -0.00000000000E+00 -0.00000000000E+00 -0.10093932088E+03  0.10093932088E+03  0.00000000000E+00 0.  1.
         25    1    1    2    0    0 -0.65595416949E+02  0.21530448429E+02  0.23835290703E+02  0.14477375459E+03  0.12500000000E+03 0.  0.
         25    1    1    2    0    0  0.74126701801E+01 -0.71925882629E+01  0.21465696284E+03  0.24861474755E+03  0.12500000000E+03 0.  0.
         25    1    1    2    0    0  0.58182746769E+02 -0.14337860166E+02  0.18100888268E+03  0.22799127586E+03  0.12500000000E+03 0.  0.
</event>
<event>
 5    0  0.8613977E-005  0.6437040E+03  0.7546771E-02  0.9818665E-01
         21   -1    0    0  502  501  0.00000000000E+00  0.00000000000E+00  0.65654852167E+03  0.65654852167E+03  0.00000000000E+00 0.  1.
         21   -1    0    0  501  502 -0.00000000000E+00 -0.00000000000E+00 -0.63111073008E+03  0.63111073008E+03  0.00000000000E+00 0.  1.
         25    1    1    2    0    0  0.15965488950E+03 -0.63234931080E+02  0.44177932888E+03  0.49018600110E+03  0.12500000000E+03 0.  0.
         25    1    1    2    0    0 -0.37191103232E+03  0.12725904004E+03 -0.17961865075E+03  0.44988947413E+03  0.12500000000E+03 0.  0.
         25    1    1    2    0    0  0.21225614281E+03 -0.64024108960E+02 -0.23672288654E+03  0.34758377653E+03  0.12500000000E+03 0.  0.
</event>
<event>
 5    0  0.5561624E-005  0.4064921E+03  0.7546771E-02  0.1041555E+00
         21   -1    0    0  502  501  0.00000000000E+00  0.00000000000E+00  0.24614783861E+03  0.24614783861E+03  0.00000000000E+00 0. -1.
         21   -1    0    0  501  502 -0.00000000000E+00 -0.00000000000E+00 -0.67128695062E+03  0.67128695062E+03  0.00000000000E+00 0. -1.
         25    1    1    2    0    0 -0.24181053771E+02 -0.32240868234E+03 -0.15898258616E+03  0.38135619113E+03  0.12500000000E+03 0.  0.
         25    1    1    2    0    0  0.97603622731E+02  0.19578101908E+03 -0.22809609032E+03  0.33986688721E+03  0.12500000000E+03 0.  0.
         25    1    1    2    0    0 -0.73422568960E+02  0.12662766326E+03 -0.38060435529E+02  0.19621171088E+03  0.12500000000E+03 0.  0.
</event>
<event>
 5    0  0.5561624E-005  0.2813605E+03  0.7546771E-02  0.1094948E+00
         21   -1    0    0  502  501  0.00000000000E+00  0.00000000000E+00  0.63681059698E+02  0.63681059698E+02  0.00000000000E+00 0.  1.
         21   -1    0    0  501  502 -0.00000000000E+00 -0.00000000000E+00 -0.12431287808E+04  0.12431287808E+04  0.00000000000E+00 0.  1.
         25    1    1    2    0    0  0.11722333723E+03  0.49315169773E+02 -0.19067012553E+03  0.26106204920E+03  0.12500000000E+03 0.  0.
         25    1    1    2    0    0 -0.11240618775E+03 -0.67352260565E+02 -0.34459751711E+03  0.38928643291E+03  0.12500000000E+03 0.  0.
         25    1    1    2    0    0 -0.48171494826E+01  0.18037090792E+02 -0.64418007845E+03  0.65646135838E+03  0.12500000000E+03 0.  0.
</event>
<event>
 5    0  0.5561624E-005  0.3228690E+03  0.7546771E-02  0.1074336E+00
         21   -1    0    0  502  501  0.00000000000E+00  0.00000000000E+00  0.52563817813E+02  0.52563817813E+02  0.00000000000E+00 0.  1.
         21   -1    0    0  501  502 -0.00000000000E+00 -0.00000000000E+00 -0.19831970916E+04  0.19831970916E+04  0.00000000000E+00 0.  1.
         25    1    1    2    0    0  0.98106128181E+02  0.14837010965E+03 -0.53382744886E+03  0.57639851403E+03  0.12500000000E+03 0.  0.
         25    1    1    2    0    0 -0.13343550190E+03  0.22314067330E+02 -0.89299059745E+03  0.91178953597E+03  0.12500000000E+03 0.  0.
         25    1    1    2    0    0  0.35329373721E+02 -0.17068417698E+03 -0.50381522744E+03  0.54757285937E+03  0.12500000000E+03 0.  0.
</event>
<event>
 5    0  0.5561624E-005  0.4800647E+03  0.7546771E-02  0.1019117E+00
         21   -1    0    0  502  501  0.00000000000E+00  0.00000000000E+00  0.42278576903E+03  0.42278576903E+03  0.00000000000E+00 0. -1.
         21   -1    0    0  501  502 -0.00000000000E+00 -0.00000000000E+00 -0.54510375212E+03  0.54510375212E+03  0.00000000000E+00 0. -1.
         25    1    1    2    0    0 -0.34069469047E+03  0.14659615326E+03 -0.12584936266E+02  0.39159505218E+03  0.12500000000E+03 0.  0.
         25    1    1    2    0    0  0.21639356479E+03  0.32918506752E+02  0.76337539175E+02  0.26336708765E+03  0.12500000000E+03 0.  0.
         25    1    1    2    0    0  0.12430112569E+03 -0.17951466002E+03 -0.18607058601E+03  0.31292738133E+03  0.12500000000E+03 0.  0.
</event>
<event>
 5    0  0.5561624E-005  0.3049288E+03  0.7546771E-02  0.1082802E+00
         21   -1    0    0  502  501  0.00000000000E+00  0.00000000000E+00  0.51491938059E+03  0.51491938059E+03  0.00000000000E+00 0. -1.
         21   -1    0    0  501  502 -0.00000000000E+00 -0.00000000000E+00 -0.18057500045E+03  0.18057500045E+03  0.00000000000E+00 0. -1.
         25    1    1    2    0    0 -0.42905844145E+02  0.45163712946E+02  0.79897747357E+02  0.16090159248E+03  0.12500000000E+03 0.  0.
         25    1    1    2    0    0 -0.60412165188E+02 -0.18925668080E+03  0.20603279864E+03  0.31231752279E+03  0.12500000000E+03 0.  0.
         25    1    1    2    0    0  0.10331800933E+03  0.14409296785E+03  0.48413834138E+02  0.22227526577E+03  0.12500000000E+03 0.  0.
</event>
<event>
 5    0  0.5561624E-005  0.3776260E+03  0.7546771E-02  0.1051815E+00
         21   -1    0    0  502  501  0.00000000000E+00  0.00000000000E+00  0.47909093662E+02  0.47909093662E+02  0.00000000000E+00 0.  1.
         21   -1    0    0  501  502 -0.00000000000E+00 -0.00000000000E+00 -0.29764993682E+04  0.29764993682E+04  0.00000000000E+00 0.  1.
         25    1    1    2    0    0  0.26710048969E+02  0.24738910585E+02 -0.19826147687E+04  0.19868849392E+04  0.12500000000E+03 0.  0.
         25    1    1    2    0    0  0.91197212026E+02 -0.13402464045E+03 -0.62240138068E+03  0.65520074359E+03  0.12500000000E+03 0.  0.
         25    1    1    2    0    0 -0.11790726099E+03  0.10928572986E+03 -0.32357412512E+03  0.38232277907E+03  0.12500000000E+03 0.  0.
</event>
<event>
 5    0  0.5561624E-005  0.3516325E+03  0.7546771E-02  0.1061947E+00
         21   -1    0    0  502  501  0.00000000000E+00  0.00000000000E+00  0.99326154804E+03  0.99326154804E+03  0.00000000000E+00 0.  1.
         21   -1    0    0  501  502 -0.00000000000E+00 -0.00000000000E+00 -0.12448425783E+03  0.12448425783E+03  0.00000000000E+00 0.  1.
         25    1    1    2    0    0  0.12947421199E+03  0.20308175248E+03  0.36854683807E+03  0.45766531616E+03  0.12500000000E+03 0.  0.
         25    1    1    2    0    0 -0.26522731185E+02 -0.82965508927E+02  0.41335274626E+03  0.44053629111E+03  0.12500000000E+03 0.  0.
         25    1    1    2    0    0 -0.10295148080E+03 -0.12011624355E+03  0.86877705878E+02  0.21954419861E+03  0.12500000000E+03 0.  0.
</event>
<event>
 5    0  0.5561624E-005  0.2368165E+03  0.7546771E-02  0.1121932E+00
         21   -1    0    0  502  501  0.00000000000E+00  0.00000000000E+00  0.34271431368E+03  0.34271431368E+03  0.00000000000E+00 0.  1.
         21   -1    0    0  501  502 -0.00000000000E+00 -0.00000000000E+00 -0.16364088446E+03  0.16364088446E+03  0.00000000000E+00 0.  1.
         25    1    1    2    0    0 -0.13913534243E+02 -0.21954890018E+02  0.17297565442E+03  0.21499111762E+03  0.12500000000E+03 0.  0.
         25    1    1    2    0    0 -0.10646456253E+02  0.49572384799E+02 -0.57128106215E+02  0.14649023478E+03  0.12500000000E+03 0.  0.
         25    1    1    2    0    0  0.24559990497E+02 -0.27617494782E+02  0.63225881013E+02  0.14487384575E+03  0.12500000000E+03 0.  0.
</event>
<event>
 5    0  0.5561624E-005  0.4046474E+03  0.7546771E-02  0.1042182E+00
         21   -1    0    0  502  501  0.00000000000E+00  0.00000000000E+00  0.15857934185E+03  0.15857934185E+03  0.00000000000E+00 0.  1.
         21   -1    0    0  501  502 -0.00000000000E+00 -0.00000000000E+00 -0.10325398418E+04  0.10325398418E+04  0.00000000000E+00 0.  1.
         25    1    1    2    0    0  0.82396935667E+02  0.86419358752E+01 -0.32366856433E+03  0.35672156873E+03  0.12500000000E+03 0.  0.
         25    1    1    2    0    0  0.99731273383E+02 -0.32560209718E+02  0.68454141579E+02  0.17696740843E+03  0.12500000000E+03 0.  0.
         25    1    1    2    0    0 -0.18212820905E+03  0.23918273843E+02 -0.61874607718E+03  0.65743020647E+03  0.12500000000E+03 0.  0.
</event>
<event>
 5    0  0.5561624E-005  0.2509320E+03  0.7546771E-02  0.1112717E+00
         21   -1    0    0  502  501  0.00000000000E+00  0.00000000000E+00  0.32874246799E+03  0.32874246799E+03  0.00000000000E+00 0. -1.
         21   -1    0    0  501  502 -0.00000000000E+00 -0.00000000000E+00 -0.19153862293E+03  0.19153862293E+03  0.00000000000E+00 0. -1.
         25    1    1    2    0    0 -0.31263151082E+02 -0.88997665246E+02  0.14799930785E+03  0.21546870807E+03  0.12500000000E+03 0.  0.
         25    1    1    2    0    0  0.82142413125E+02  0.77635474589E+02  0.40123535751E+01  0.16856969458E+03  0.12500000000E+03 0.  0.
         25    1    1    2    0    0 -0.50879262043E+02  0.11362190657E+02 -0.14807816366E+02  0.13624268827E+03  0.12500000000E+03 0.  0.
</event>
<event>
 5    0  0.5561624E-005  0.3158393E+03  0.7546771E-02  0.1077580E+00
         21   -1    0    0  502  501  0.00000000000E+00  0.00000000000E+00  0.94464420117E+03  0.94464420117E+03  0.00000000000E+00 0. -1.
         21   -1    0    0  501  502 -0.00000000000E+00 -0.00000000000E+00 -0.10560003310E+03  0.10560003310E+03  0.00000000000E+00 0. -1.
         25    1    1    2    0    0 -0.77198992627E+02 -0.17254084898E+03  0.23191833524E+03  0.32425475055E+03  0.12500000000E+03 0.  0.
         25    1    1    2    0    0  0.11017780021E+03  0.19383346547E+03  0.31377818767E+03  0.40471262774E+03  0.12500000000E+03 0.  0.
         25    1    1    2    0    0 -0.32978807582E+02 -0.21292616490E+02  0.29334764516E+03  0.32127685598E+03  0.12500000000E+03 0.  0.
</event>
<event>
 5    0  0.5561624E-005  0.2419633E+03  0.7546771E-02  0.1118492E+00
         21   -1    0    0  502  501  0.00000000000E+00  0.00000000000E+00  0.10123723124E+04  0.10123723124E+04  0.00000000000E+00 0.  1.
         21   -1    0    0  501  502 -0.00000000000E+00 -0.00000000000E+00 -0.57830737145E+02  0.57830737145E+02  0.00000000000E+00 0.  1.
         25    1    1    2    0    0  0.33279063093E+01 -0.20518787386E+02  0.36497683416E+03  0.38634852798E+03  0.12500000000E+03 0.  0.
         25    1    1    2    0    0 -0.57177490152E+02  0.10051831726E+03  0.19506598313E+03  0.25893809156E+03  0.12500000000E+03 0.  0.
         25    1    1    2    0    0  0.53849583843E+02 -0.79999529871E+02  0.39449875799E+03  0.42491643004E+03  0.12500000000E+03 0.  0.
</event>
<event>
 5    0  0.5561624E-005  0.3347414E+03  0.7546771E-02  0.1069058E+00
         21   -1    0    0  502  501  0.00000000000E+00  0.00000000000E+00  0.83969104219E+03  0.83969104219E+03  0.00000000000E+00 0.  1.
         21   -1    0    0  501  502 -0.00000000000E+00 -0.00000000000E+00 -0.13344411251E+03  0.13344411251E+03  0.00000000000E+00 0.  1.
         25    1    1    2    0    0  0.16262684443E+03  0.29543907184E+02  0.17408129573E+03  0.27064668943E+03  0.12500000000E+03 0.  0.
         25    1    1    2    0    0 -0.18371148241E+03  0.96782609161E+02  0.43720909006E+03  0.49989355931E+03  0.12500000000E+03 0.  0.
         25    1    1    2    0    0  0.21084637980E+02 -0.12632651635E+03  0.94956543892E+02  0.20259490595E+03  0.12500000000E+03 0.  0.
</event>
<event>
 5    0  0.5561624E-005  0.2642027E+03  0.7546771E-02  0.1104644E+00
         21   -1    0    0  502  501  0.00000000000E+00  0.00000000000E+00  0.57243037347E+02  0.57243037347E+02  0.00000000000E+00 0. -1.
         21   -1    0    0  501  502 -0.00000000000E+00 -0.00000000000E+00 -0.12194158753E+04  0.12194158753E+04  0.00000000000E+00 0. -1.
         25    1    1    2    0    0 -0.17632430880E+02  0.38828887795E+02 -0.72553879981E+02  0.15069057916E+03  0.12500000000E+03 0.  0.
         25    1    1    2    0    0 -0.16462030435E+02  0.12044202383E+02 -0.32546201720E+03  0.34923714851E+03  0.12500000000E+03 0.  0.
         25    1    1    2    0    0  0.34094461315E+02 -0.50873090178E+02 -0.76415694080E+03  0.77673118501E+03  0.12500000000E+03 0.  0.
</event>
<event>
 5    0  0.5561624E-005  0.3427010E+03  0.7546771E-02  0.1065651E+00
         21   -1    0    0  502  501  0.00000000000E+00  0.00000000000E+00  0.69846627268E+02  0.69846627268E+02  0.00000000000E+00 0.  1.
         21   -1    0    0  501  502 -0.00000000000E+00 -0.00000000000E+00 -0.16814552281E+04  0.16814552281E+04  0.00000000000E+00 0.  1.
         25    1    1    2    0    0  0.44017024545E+01  0.25262430997E+03 -0.68663441279E+03  0.74224674725E+03  0.12500000000E+03 0.  0.
         25    1    1    2    0    0  0.91649312579E+01 -0.47211120568E+02 -0.52812467543E+03  0.54484269167E+03  0.12500000000E+03 0.  0.
         25    1    1    2    0    0 -0.13566633712E+02 -0.20541318940E+03 -0.39684951265E+03  0.46421241649E+03  0.12500000000E+03 0.  0.
</event>
<event>
 5    0  0.5561624E-005  0.2162195E+03  0.7546771E-02  0.1136733E+00
         21   -1    0    0  502  501  0.00000000000E+00  0.00000000000E+00  0.14969216014E+03  0.14969216014E+03  0.00000000000E+00 0. -1.
         21   -1    0    0  501  502 -0.00000000000E+00 -0.00000000000E+00 -0.31231331453E+03  0.31231331453E+03  0.00000000000E+00 0. -1.
         25    1    1    2    0    0 -0.27586096898E+02  0.11263519527E+02  0.65226576805E+01  0.12866780746E+03  0.12500000000E+03 0.  0.
         25    1    1    2    0    0  0.79224865524E+02  0.14752321038E+01 -0.11362244807E+03  0.18658460905E+03  0.12500000000E+03 0.  0.
         25    1    1    2    0    0 -0.51638768626E+02 -0.12738751630E+02 -0.55521364003E+02  0.14675305816E+03  0.12500000000E+03 0.  0.
</event>
<event>
 5    0  0.5561624E-005  0.2546285E+03  0.7546771E-02  0.1110414E+00
         21   -1    0    0  502  501  0.00000000000E+00  0.00000000000E+00  0.16954244532E+03  0.16954244532E+03  0.00000000000E+00 0. -1.
         21   -1    0    0  501  502 -0.00000000000E+00 -0.00000000000E+00 -0.38241546928E+03  0.38241546928E+03  0.00000000000E+00 0. -1.
         25    1    1    2    0    0 -0.10750118389E+03 -0.28690970203E+02 -0.20012667236E+03  0.26087422506E+03  0.12500000000E+03 0.  0.
         25    1    1    2    0    0  0.59166815708E+02 -0.79546768456E+01 -0.49941326482E+02  0.14725191019E+03  0.12500000000E+03 0.  0.
         25    1    1    2    0    0  0.48334368186E+02  0.36645647048E+02  0.37194974877E+02  0.14383177935E+03  0.12500000000E+03 0.  0.
</event>
<event>
 5    0  0.5561624E-005  0.2599547E+03  0.7546771E-02  0.1107170E+00
         21   -1    0    0  502  501  0.00000000000E+00  0.00000000000E+00  0.80492378859E+03  0.80492378859E+03  0.00000000000E+00 0. -1.
         21   -1    0    0  501  502 -0.00000000000E+00 -0.00000000000E+00 -0.83953845675E+02  0.83953845675E+02  0.00000000000E+00 0. -1.
         25    1    1    2    0    0  0.40157126483E+02 -0.54300773050E+02  0.40163314099E+03  0.42602270914E+03  0.12500000000E+03 0.  0.
         25    1    1    2    0    0  0.79742929939E+02  0.53192330249E+02  0.18927452615E+03  0.24624825912E+03  0.12500000000E+03 0.  0.
         25    1    1    2    0    0 -0.11990005642E+03  0.11084428018E+01  0.13006227577E+03  0.21660666599E+03  0.12500000000E+03 0.  0.
</event>
<event>
 5    0  0.5561624E-005  0.2607448E+03  0.7546771E-02  0.1106697E+00
         21   -1    0    0  502  501  0.00000000000E+00  0.00000000000E+00  0.11698926090E+03  0.11698926090E+03  0.00000000000E+00 0. -1.
         21   -1    0    0  501  502 -0.00000000000E+00 -0.00000000000E+00 -0.58114594822E+03  0.58114594822E+03  0.00000000000E+00 0. -1.
         25    1    1    2    0    0  0.16436610755E+03  0.37869906417E+02 -0.19728023475E+03  0.28808824715E+03  0.12500000000E+03 0.  0.
         25    1    1    2    0    0 -0.68009485399E+02 -0.23665796592E+02 -0.17529353073E+03  0.22702022366E+03  0.12500000000E+03 0.  0.
         25    1    1    2    0    0 -0.96356622149E+02 -0.14204109825E+02 -0.91582921841E+02  0.18302673832E+03  0.12500000000E+03 0.  0.
</event>
<event>
 5    0  0.5561624E-005  0.2499681E+03  0.7546771E-02  0.1113325E+00
         21   -1    0    0  502  501  0.00000000000E+00  0.00000000000E+00  0.74517758766E+03  0.74517758766E+03  0.00000000000E+00 0.  1.
         21   -1    0    0  501  502 -0.00000000000E+00 -0.00000000000E+00 -0.83851189928E+02  0.83851189928E+02  0.00000000000E+00 0.  1.
         25    1    1    2    0    0  0.13766469514E+03  0.52046143736E+01  0.14014503540E+03  0.23290403012E+03  0.12500000000E+03 0.  0.
         25    1    1    2    0    0 -0.86181181306E+02 -0.19954288775E+02  0.26377703155E+03  0.30500605244E+03  0.12500000000E+03 0.  0.
         25    1    1    2    0    0 -0.51483513830E+02  0.14749674402E+02  0.25740433079E+03  0.29111869504E+03  0.12500000000E+03 0.  0.
</event>
<event>
 5    0  0.5561624E-005  0.4272627E+03  0.7546771E-02  0.1034728E+00
         21   -1    0    0  502  501  0.00000000000E+00  0.00000000000E+00  0.19503117614E+03  0.19503117614E+03  0.00000000000E+00 0.  1.
         21   -1    0    0  501  502 -0.00000000000E+00 -0.00000000000E+00 -0.93602191527E+03  0.93602191527E+03  0.00000000000E+00 0.  1.
         25    1    1    2    0    0 -0.46473773017E+02 -0.94013207728E+02 -0.50249084659E+03  0.52831841319E+03  0.12500000000E+03 0.  0.
         25    1    1    2    0    0 -0.21136940342E+03  0.91210498195E+02 -0.15447176415E+03  0.30411002220E+03  0.12500000000E+03 0.  0.
         25    1    1    2    0    0  0.25784317644E+03  0.28027095330E+01 -0.84028128384E+02  0.29862465601E+03  0.12500000000E+03 0.  0.
</event>
<event>
 5    0  0.5561624E-005  0.2782722E+03  0.7546771E-02  0.1096636E+00
         21   -1    0    0  502  501  0.00000000000E+00  0.00000000000E+00  0.18274171505E+04  0.18274171505E+04  0.00000000000E+00 0.  1.
         21   -1    0    0  501  502 -0.00000000000E+00 -0.00000000000E+00 -0.42374245659E+02  0.42374245659E+02  0.00000000000E+00 0.  1.
         25    1    1    2    0    0  0.24226089713E+02  0.43544064471E+02  0.49103804341E+03  0.50914275900E+03  0.12500000000E+03 0.  0.
         25    1    1    2    0    0  0.12245575206E+03  0.62375132857E+02  0.41727125130E+03  0.45675635252E+03  0.12500000000E+03 0.  0.
         25    1    1    2    0    0 -0.14668184177E+03 -0.10591919733E+03  0.87673361011E+03  0.90389228460E+03  0.12500000000E+03 0.  0.
</event>
<event>
 5    0  0.5561624E-005  0.2367262E+03  0.7546771E-02  0.1121993E+00
         21   -1    0    0  502  501  0.00000000000E+00  0.00000000000E+00  0.12029966385E+03  0.12029966385E+03  0.00000000000E+00 0. -1.
         21   -1    0    0  501  502 -0.00000000000E+00 -0.00000000000E+00 -0.46583092569E+03  0.46583092569E+03  0.00000000000E+00 0. -1.
         25    1    1    2    0    0  0.62719348822E+02  0.21471171446E+02 -0.89365084899E+02  0.16734947361E+03  0.12500000000E+03 0.  0.
         25    1    1    2    0    0 -0.11968399897E+03 -0.64682714453E+02 -0.11803569808E+03  0.21923854401E+03  0.12500000000E+03 0.  0.
         25    1    1    2    0    0  0.56964650149E+02  0.43211543007E+02 -0.13813047886E+03  0.19954257191E+03  0.12500000000E+03 0.  0.
</event>
<event>
 5    0  0.5561624E-005  0.2894399E+03  0.7546771E-02  0.1090642E+00
         21   -1    0    0  502  501  0.00000000000E+00  0.00000000000E+00  0.13645193214E+03  0.13645193214E+03  0.00000000000E+00 0. -1.
         21   -1    0    0  501  502 -0.00000000000E+00 -0.00000000000E+00 -0.61395601026E+03  0.61395601026E+03  0.00000000000E+00 0. -1.
         25    1    1    2    0    0  0.27678871220E+02 -0.15672272396E+03 -0.19507109097E+03  0.28107981544E+03  0.12500000000E+03 0.  0.
         25    1    1    2    0    0 -0.18833617158E+02  0.16948975837E+03 -0.70673811890E+02  0.22293781872E+03  0.12500000000E+03 0.  0.
         25    1    1    2    0    0 -0.88452540616E+01 -0.12767034415E+02 -0.21175917526E+03  0.24639030824E+03  0.12500000000E+03 0.  0.
</event>
