<event>
 5    0  0.5597833E-005  0.2975646E+03  0.7546771E-02  0.1086464E+00
         21   -1    0    0  502  501  0.00000000000E+00  0.00000000000E+00  0.52868272259E+02  0.52868272259E+02  0.00000000000E+00 0. -1.
         21   -1    0    0  501  502 -0.00000000000E+00 -0.00000000000E+00 -0.16748175594E+04  0.16748175594E+04  0.00000000000E+00 0. -1.
         25    1    1    2    0    0  0.35791284744E+02 -0.71300305276E+02 -0.14011942906E+03  0.20401765609E+03  0.12500000000E+03 0.  0.
         25    1    1    2    0    0 -0.35454582861E+02 -0.58271225329E+01 -0.23820264317E+03  0.27139727710E+03  0.12500000000E+03 0.  0.
         25    1    1    2    0    0 -0.33670188219E+00  0.77127427809E+02 -0.12436272149E+04  0.12522708984E+04  0.12500000000E+03 0.  0.
</event>
<event>
 5    0  0.5597833E-005  0.2507773E+03  0.7546771E-02  0.1112815E+00
         21   -1    0    0  502  501  0.00000000000E+00  0.00000000000E+00  0.19587673045E+03  0.19587673045E+03  0.00000000000E+00 0. -1.
         21   -1    0    0  501  502 -0.00000000000E+00 -0.00000000000E+00 -0.32106536089E+03  0.32106536089E+03  0.00000000000E+00 0. -1.
         25    1    1    2    0    0  0.75418127887E+02  0.53491180868E+02 -0.70273425745E+02  0.17062401593E+03  0.12500000000E+03 0.  0.
         25    1    1    2    0    0 -0.35159053603E+02  0.60666791052E+02  0.39069490913E+02  0.14855316795E+03  0.12500000000E+03 0.  0.
         25    1    1    2    0    0 -0.40259074284E+02 -0.11415797192E+03 -0.93984695610E+02  0.19776490746E+03  0.12500000000E+03 0.  0.
</event>
<event>
 5    0  0.5597833E-005  0.2879751E+03  0.7546771E-02  0.1091411E+00
         21   -1    0    0  502  501  0.00000000000E+00  0.00000000000E+00  0.46933433312E+03  0.46933433312E+03  0.00000000000E+00 0.  1.
         21   -1    0    0  501  502 -0.00000000000E+00 -0.00000000000E+00 -0.17669630900E+03  0.17669630900E+03  0.00000000000E+00 0.  1.
         25    1    1    2    0    0  0.71576736642E+02  0.23642766649E+02  0.19354107055E+03  0.24241566705E+03  0.12500000000E+03 0.  0.
         25    1    1    2    0    0 -0.17824001584E+02 -0.15096174397E+03  0.99825987294E+01  0.19705784798E+03  0.12500000000E+03 0.  0.
         25    1    1    2    0    0 -0.53752735058E+02  0.12731897732E+03  0.89114354844E+02  0.20655712709E+03  0.12500000000E+03 0.  0.
</event>
<event>
 5    0  0.5597833E-005  0.3349160E+03  0.7546771E-02  0.1068982E+00
         21   -1    0    0  502  501  0.00000000000E+00  0.00000000000E+00  0.21540824547E+03  0.21540824547E+03  0.00000000000E+00 0. -1.
         21   -1    0    0  501  502 -0.00000000000E+00 -0.00000000000E+00 -0.52072617017E+03  0.52072617017E+03  0.00000000000E+00 0. -1.
         25    1    1    2    0    0  0.15449813276E+02  0.15102630522E+03 -0.47672950442E+02  0.20234957821E+03  0.12500000000E+03 0.  0.
         25    1    1    2    0    0 -0.13953610860E+03 -0.19710984098E+03 -0.21534862927E+03  0.34687554993E+03  0.12500000000E+03 0.  0.
         25    1    1    2    0    0  0.12408629533E+03  0.46083535759E+02 -0.42296344993E+02  0.18690928751E+03  0.12500000000E+03 0.  0.
</event>
<event>
 5    0  0.5597833E-005  0.3697478E+03  0.7546771E-02  0.1054789E+00
         21   -1    0    0  502  501  0.00000000000E+00  0.00000000000E+00  0.14044764172E+04  0.14044764172E+04  0.00000000000E+00 0. -1.
         21   -1    0    0  501  502 -0.00000000000E+00 -0.00000000000E+00 -0.97341185418E+02  0.97341185418E+02  0.00000000000E+00 0. -1.
         25    1    1    2    0    0 -0.83164826892E+02 -0.29411901924E+02  0.71341169825E+03  0.72963189322E+03  0.12500000000E+03 0.  0.
         25    1    1    2    0    0 -0.55661483913E+02 -0.31235953960E+02  0.55438740095E+03  0.57187785054E+03  0.12500000000E+03 0.  0.
         25    1    1    2    0    0  0.13882631081E+03  0.60647855884E+02  0.39336132594E+02  0.20030785886E+03  0.12500000000E+03 0.  0.
</event>
<event>
 5    0  0.5597833E-005  0.3283907E+03  0.7546771E-02  0.1071851E+00
         21   -1    0    0  502  501  0.00000000000E+00  0.00000000000E+00  0.15648546553E+03  0.15648546553E+03  0.00000000000E+00 0.  1.
         21   -1    0    0  501  502 -0.00000000000E+00 -0.00000000000E+00 -0.68914033386E+03  0.68914033386E+03  0.00000000000E+00 0.  1.
         25    1    1    2    0    0  0.15984070684E+03  0.27421541905E+02 -0.10746441798E+03  0.23124574300E+03  0.12500000000E+03 0.  0.
         25    1    1    2    0    0  0.89070499426E+02  0.34570668521E+02 -0.13369874423E+03  0.20646801011E+03  0.12500000000E+03 0.  0.
         25    1    1    2    0    0 -0.24891120627E+03 -0.61992210426E+02 -0.29149170612E+03  0.40791204627E+03  0.12500000000E+03 0.  0.
</event>
<event>
 5    0  0.5597833E-005  0.2226840E+03  0.7546771E-02  0.1131898E+00
         21   -1    0    0  502  501  0.00000000000E+00  0.00000000000E+00  0.36971127837E+03  0.36971127837E+03  0.00000000000E+00 0.  1.
         21   -1    0    0  501  502 -0.00000000000E+00 -0.00000000000E+00 -0.13412673801E+03  0.13412673801E+03  0.00000000000E+00 0.  1.
         25    1    1    2    0    0  0.89727348432E+01 -0.43857835479E+02  0.68025410929E+02  0.14918604571E+03  0.12500000000E+03 0.  0.
         25    1    1    2    0    0 -0.35861293257E+02 -0.37900308420E+02  0.14962875782E+03  0.20183218499E+03  0.12500000000E+03 0.  0.
         25    1    1    2    0    0  0.26888558414E+02  0.81758143899E+02  0.17930371614E+02  0.15281978567E+03  0.12500000000E+03 0.  0.
</event>
<event>
 5    0  0.5597833E-005  0.3268806E+03  0.7546771E-02  0.1072526E+00
         21   -1    0    0  502  501  0.00000000000E+00  0.00000000000E+00  0.89666233792E+03  0.89666233792E+03  0.00000000000E+00 0. -1.
         21   -1    0    0  501  502 -0.00000000000E+00 -0.00000000000E+00 -0.11916515840E+03  0.11916515840E+03  0.00000000000E+00 0. -1.
         25    1    1    2    0    0 -0.12713890265E+02 -0.22015263135E+03  0.39172684118E+03  0.46658733609E+03  0.12500000000E+03 0.  0.
         25    1    1    2    0    0 -0.31366170438E+02  0.10627304662E+03  0.32286206567E+03  0.36351438835E+03  0.12500000000E+03 0.  0.
         25    1    1    2    0    0  0.44080060703E+02  0.11387958473E+03  0.62908272666E+02  0.18572577188E+03  0.12500000000E+03 0.  0.
</event>
<event>
 5    0  0.5597833E-005  0.2144773E+03  0.7546771E-02  0.1138069E+00
         21   -1    0    0  502  501  0.00000000000E+00  0.00000000000E+00  0.25597558344E+03  0.25597558344E+03  0.00000000000E+00 0.  1.
         21   -1    0    0  501  502 -0.00000000000E+00 -0.00000000000E+00 -0.17970668638E+03  0.17970668638E+03  0.00000000000E+00 0.  1.
         25    1    1    2    0    0 -0.12534796206E+02  0.14112371960E+02 -0.10006876209E+02  0.12681252986E+03  0.12500000000E+03 0.  0.
         25    1    1    2    0    0  0.67418920745E+02  0.17825374029E+02  0.89162242114E+02  0.16863558418E+03  0.12500000000E+03 0.  0.
         25    1    1    2    0    0 -0.54884124538E+02 -0.31937745989E+02 -0.28864688434E+01  0.14023415578E+03  0.12500000000E+03 0.  0.
</event>
<event>
 5    0  0.5597833E-005  0.2520470E+03  0.7546771E-02  0.1112018E+00
         21   -1    0    0  502  501  0.00000000000E+00  0.00000000000E+00  0.12147729652E+03  0.12147729652E+03  0.00000000000E+00 0. -1.
         21   -1    0    0  501  502 -0.00000000000E+00 -0.00000000000E+00 -0.52295919415E+03  0.52295919415E+03  0.00000000000E+00 0. -1.
         25    1    1    2    0    0 -0.18823302780E+02 -0.12007824151E+02 -0.91145357712E+02  0.15630412919E+03  0.12500000000E+03 0.  0.
         25    1    1    2    0    0  0.13429237572E+02 -0.13449747175E+03 -0.14940338328E+03  0.23709973696E+03  0.12500000000E+03 0.  0.
         25    1    1    2    0    0  0.53940652083E+01  0.14650529590E+03 -0.16093315665E+03  0.25103262452E+03  0.12500000000E+03 0.  0.
</event>
<event>
 5    0  0.5597833E-005  0.5147432E+03  0.7546771E-02  0.1010001E+00
         21   -1    0    0  502  501  0.00000000000E+00  0.00000000000E+00  0.76497511036E+03  0.76497511036E+03  0.00000000000E+00 0.  1.
         21   -1    0    0  501  502 -0.00000000000E+00 -0.00000000000E+00 -0.34636491964E+03  0.34636491964E+03  0.00000000000E+00 0.  1.
         25    1    1    2    0    0  0.13562865983E+03 -0.85672798158E+02 -0.18437787935E+03  0.27450895086E+03  0.12500000000E+03 0.  0.
         25    1    1    2    0    0 -0.29773400038E+03  0.14593932020E+03  0.28935238815E+03  0.45748620163E+03  0.12500000000E+03 0.  0.
         25    1    1    2    0    0  0.16210534055E+03 -0.60266522042E+02  0.31363568192E+03  0.37934487750E+03  0.12500000000E+03 0.  0.
</event>
<event>
 5    0  0.5597833E-005  0.3477599E+03  0.7546771E-02  0.1063538E+00
         21   -1    0    0  502  501  0.00000000000E+00  0.00000000000E+00  0.10045765169E+03  0.10045765169E+03  0.00000000000E+00 0. -1.
         21   -1    0    0  501  502 -0.00000000000E+00 -0.00000000000E+00 -0.12038599230E+04  0.12038599230E+04  0.00000000000E+00 0. -1.
         25    1    1    2    0    0  0.67138126501E+02 -0.15315458496E+03 -0.62547540912E+03  0.65939998661E+03  0.12500000000E+03 0.  0.
         25    1    1    2    0    0 -0.15268977672E+03 -0.60891433742E+01 -0.14084038533E+03  0.24251239086E+03  0.12500000000E+03 0.  0.
         25    1    1    2    0    0  0.85551650220E+02  0.15924372834E+03 -0.33708647687E+03  0.40240519723E+03  0.12500000000E+03 0.  0.
</event>
<event>
 5    0  0.5597833E-005  0.3794875E+03  0.7546771E-02  0.1051123E+00
         21   -1    0    0  502  501  0.00000000000E+00  0.00000000000E+00  0.26945497735E+03  0.26945497735E+03  0.00000000000E+00 0. -1.
         21   -1    0    0  501  502 -0.00000000000E+00 -0.00000000000E+00 -0.53445206672E+03  0.53445206672E+03  0.00000000000E+00 0. -1.
         25    1    1    2    0    0 -0.18491622373E+03 -0.16560295671E+03 -0.49890771400E+02  0.28236932932E+03  0.12500000000E+03 0.  0.
         25    1    1    2    0    0  0.89531555752E+02  0.20688244148E+03 -0.75188073952E+01  0.25787162801E+03  0.12500000000E+03 0.  0.
         25    1    1    2    0    0  0.95384667980E+02 -0.41279484770E+02 -0.20758751057E+03  0.26366608674E+03  0.12500000000E+03 0.  0.
</event>
<event>
 5    0  0.7376438E-005  0.5914565E+03  0.7546771E-02  0.9923291E-01
         21   -1    0    0  502  501  0.00000000000E+00  0.00000000000E+00  0.35337287255E+03  0.35337287255E+03  0.00000000000E+00 0. -1.
         21   -1    0    0  501  502 -0.00000000000E+00 -0.00000000000E+00 -0.98994796183E+03  0.98994796183E+03  0.00000000000E+00 0. -1.
         25    1    1    2    0    0  0.36846166732E+03  0.12976096233E+03 -0.28011676217E+03  0.49668129427E+03  0.12500000000E+03 0.  0.
         25    1    1    2    0    0 -0.20297077802E+03 -0.11978210717E+03  0.14518427553E+03  0.30372415740E+03  0.12500000000E+03 0.  0.
         25    1    1    2    0    0 -0.16549088930E+03 -0.99788551586E+01 -0.50164260264E+03  0.54291538271E+03  0.12500000000E+03 0.  0.
</event>
<event>
 5    0  0.5597833E-005  0.2872445E+03  0.7546771E-02  0.1091797E+00
         21   -1    0    0  502  501  0.00000000000E+00  0.00000000000E+00  0.59702612495E+02  0.59702612495E+02  0.00000000000E+00 0.  1.
         21   -1    0    0  501  502 -0.00000000000E+00 -0.00000000000E+00 -0.13820068879E+04  0.13820068879E+04  0.00000000000E+00 0.  1.
         25    1    1    2    0    0 -0.11335666123E+02  0.12917665954E+02 -0.15648027651E+03  0.20101353277E+03  0.12500000000E+03 0.  0.
         25    1    1    2    0    0 -0.40257411171E+02  0.15320606819E+02 -0.10559200118E+04  0.10641651430E+04  0.12500000000E+03 0.  0.
         25    1    1    2    0    0  0.51593077294E+02 -0.28238272773E+02 -0.10990398704E+03  0.17653082462E+03  0.12500000000E+03 0.  0.
</event>
<event>
 5    0  0.5597833E-005  0.3206644E+03  0.7546771E-02  0.1075344E+00
         21   -1    0    0  502  501  0.00000000000E+00  0.00000000000E+00  0.25302333691E+03  0.25302333691E+03  0.00000000000E+00 0. -1.
         21   -1    0    0  501  502 -0.00000000000E+00 -0.00000000000E+00 -0.40638793109E+03  0.40638793109E+03  0.00000000000E+00 0. -1.
         25    1    1    2    0    0 -0.10248532270E+03 -0.89043515395E+02 -0.75746539296E+02  0.19948565667E+03  0.12500000000E+03 0.  0.
         25    1    1    2    0    0 -0.10042829746E+03  0.73765350281E+02 -0.12522729943E+03  0.21641175189E+03  0.12500000000E+03 0.  0.
         25    1    1    2    0    0  0.20291362015E+03  0.15278165114E+02  0.47609244538E+02  0.24351385944E+03  0.12500000000E+03 0.  0.
</event>
<event>
 5    0  0.5597833E-005  0.2571012E+03  0.7546771E-02  0.1108898E+00
         21   -1    0    0  502  501  0.00000000000E+00  0.00000000000E+00  0.67569938699E+03  0.67569938699E+03  0.00000000000E+00 0.  1.
         21   -1    0    0  501  502 -0.00000000000E+00 -0.00000000000E+00 -0.97826077274E+02  0.97826077274E+02  0.00000000000E+00 0.  1.
         25    1    1    2    0    0  0.70460551117E+02  0.14684101893E+02  0.26733628550E+03  0.30376636031E+03  0.12500000000E+03 0.  0.
         25    1    1    2    0    0  0.20660262772E+02  0.57421746788E+02  0.31429826689E+02  0.14260763468E+03  0.12500000000E+03 0.  0.
         25    1    1    2    0    0 -0.91120813889E+02 -0.72105848681E+02  0.27910719752E+03  0.32715146927E+03  0.12500000000E+03 0.  0.
</event>
<event>
 5    0  0.5597833E-005  0.2616416E+03  0.7546771E-02  0.1106161E+00
         21   -1    0    0  502  501  0.00000000000E+00  0.00000000000E+00  0.62096053437E+02  0.62096053437E+02  0.00000000000E+00 0. -1.
         21   -1    0    0  501  502 -0.00000000000E+00 -0.00000000000E+00 -0.11024260232E+04  0.11024260232E+04  0.00000000000E+00 0. -1.
         25    1    1    2    0    0 -0.76459486937E+01 -0.59059831255E+02 -0.44723742070E+03  0.46818034418E+03  0.12500000000E+03 0.  0.
         25    1    1    2    0    0  0.21462074262E+02  0.15777389034E+03 -0.37183590638E+03  0.42336764446E+03  0.12500000000E+03 0.  0.
         25    1    1    2    0    0 -0.13816125569E+02 -0.98714059083E+02 -0.22125664268E+03  0.27297408800E+03  0.12500000000E+03 0.  0.
</event>
<event>
 5    0  0.5597833E-005  0.3133056E+03  0.7546771E-02  0.1078772E+00
         21   -1    0    0  502  501  0.00000000000E+00  0.00000000000E+00  0.15969695699E+03  0.15969695699E+03  0.00000000000E+00 0.  1.
         21   -1    0    0  501  502 -0.00000000000E+00 -0.00000000000E+00 -0.61466665367E+03  0.61466665367E+03  0.00000000000E+00 0.  1.
         25    1    1    2    0    0  0.10996807569E+03  0.12211332401E+03  0.24375056179E+02  0.20790330670E+03  0.12500000000E+03 0.  0.
         25    1    1    2    0    0 -0.41922632480E+02 -0.63439132570E+02 -0.20466710904E+03  0.25158627979E+03  0.12500000000E+03 0.  0.
         25    1    1    2    0    0 -0.68045443212E+02 -0.58674191441E+02 -0.27467764382E+03  0.31487402417E+03  0.12500000000E+03 0.  0.
</event>
<event>
 5    0  0.5597833E-005  0.3836985E+03  0.7546771E-02  0.1049575E+00
         21   -1    0    0  502  501  0.00000000000E+00  0.00000000000E+00  0.25296542381E+03  0.25296542381E+03  0.00000000000E+00 0.  1.
         21   -1    0    0  501  502 -0.00000000000E+00 -0.00000000000E+00 -0.58199480594E+03  0.58199480594E+03  0.00000000000E+00 0.  1.
         25    1    1    2    0    0 -0.38464480200E+02  0.96587842595E+02 -0.20900610088E+03  0.26479667252E+03  0.12500000000E+03 0.  0.
         25    1    1    2    0    0 -0.56907617474E+01 -0.17143745262E+03  0.15019315688E+03  0.26001186378E+03  0.12500000000E+03 0.  0.
         25    1    1    2    0    0  0.44155241948E+02  0.74849610027E+02 -0.27021643813E+03  0.31015169345E+03  0.12500000000E+03 0.  0.
</event>
<event>
 5    0  0.5597833E-005  0.6085813E+03  0.7546771E-02  0.9887761E-01
         21   -1    0    0  502  501  0.00000000000E+00  0.00000000000E+00  0.56768470024E+03  0.56768470024E+03  0.00000000000E+00 0. -1.
         21   -1    0    0  501  502 -0.00000000000E+00 -0.00000000000E+00 -0.65242402869E+03  0.65242402869E+03  0.00000000000E+00 0. -1.
         25    1    1    2    0    0  0.13090736923E+03  0.90984087702E+02  0.13732478639E+02  0.20304783797E+03  0.12500000000E+03 0.  0.
         25    1    1    2    0    0 -0.44388641723E+03 -0.29177089908E+03 -0.24515272507E+03  0.59823930626E+03  0.12500000000E+03 0.  0.
         25    1    1    2    0    0  0.31297904800E+03  0.20078681137E+03  0.14668091798E+03  0.41882158470E+03  0.12500000000E+03 0.  0.
</event>
<event>
 5    0  0.5597833E-005  0.3703930E+03  0.7546771E-02  0.1054543E+00
         21   -1    0    0  502  501  0.00000000000E+00  0.00000000000E+00  0.31600027062E+03  0.31600027062E+03  0.00000000000E+00 0.  1.
         21   -1    0    0  501  502 -0.00000000000E+00 -0.00000000000E+00 -0.43414831095E+03  0.43414831095E+03  0.00000000000E+00 0.  1.
         25    1    1    2    0    0 -0.14658718426E+03 -0.17815024898E+03  0.15580272412E+03  0.30516356703E+03  0.12500000000E+03 0.  0.
         25    1    1    2    0    0  0.63148471287E+02  0.53750532445E+02 -0.15877233797E+03  0.21842734368E+03  0.12500000000E+03 0.  0.
         25    1    1    2    0    0  0.83438712976E+02  0.12439971653E+03 -0.11517842649E+03  0.22655767086E+03  0.12500000000E+03 0.  0.
</event>
<event>
 5    0  0.5597833E-005  0.2440916E+03  0.7546771E-02  0.1117097E+00
         21   -1    0    0  502  501  0.00000000000E+00  0.00000000000E+00  0.69468568595E+02  0.69468568595E+02  0.00000000000E+00 0.  1.
         21   -1    0    0  501  502 -0.00000000000E+00 -0.00000000000E+00 -0.85766412858E+03  0.85766412858E+03  0.00000000000E+00 0.  1.
         25    1    1    2    0    0 -0.74912760049E+02 -0.56077095690E+02 -0.16537215777E+03  0.22744122943E+03  0.12500000000E+03 0.  0.
         25    1    1    2    0    0 -0.49161669146E+02  0.11191004551E+01 -0.25886845032E+03  0.29164361242E+03  0.12500000000E+03 0.  0.
         25    1    1    2    0    0  0.12407442919E+03  0.54957995235E+02 -0.36395495190E+03  0.40804785532E+03  0.12500000000E+03 0.  0.
</event>
<event>
 5    0  0.5597833E-005  0.3428161E+03  0.7546771E-02  0.1065603E+00
         21   -1    0    0  502  501  0.00000000000E+00  0.00000000000E+00  0.91902819517E+03  0.91902819517E+03  0.00000000000E+00 0.  1.
         21   -1    0    0  501  502 -0.00000000000E+00 -0.00000000000E+00 -0.12787736208E+03  0.12787736208E+03  0.00000000000E+00 0.  1.
         25    1    1    2    0    0 -0.45061954381E+02  0.15516828240E+02  0.57332641211E+03  0.58872703905E+03  0.12500000000E+03 0.  0.
         25    1    1    2    0    0  0.17208567330E+03 -0.17616558006E+02  0.64166177206E+02  0.22285896968E+03  0.12500000000E+03 0.  0.
         25    1    1    2    0    0 -0.12702371892E+03  0.20997297666E+01  0.15365824377E+03  0.23531954851E+03  0.12500000000E+03 0.  0.
</event>
<event>
 5    0  0.5597833E-005  0.3444287E+03  0.7546771E-02  0.1064925E+00
         21   -1    0    0  502  501  0.00000000000E+00  0.00000000000E+00  0.12678222503E+04  0.12678222503E+04  0.00000000000E+00 0. -1.
         21   -1    0    0  501  502 -0.00000000000E+00 -0.00000000000E+00 -0.93570797554E+02  0.93570797554E+02  0.00000000000E+00 0. -1.
         25    1    1    2    0    0 -0.87292384675E+02 -0.38219318507E+02  0.43447244951E+03  0.46203028701E+03  0.12500000000E+03 0.  0.
         25    1    1    2    0    0 -0.17465656768E+03 -0.82502330172E+01  0.26855149040E+03  0.34397367047E+03  0.12500000000E+03 0.  0.
         25    1    1    2    0    0  0.26194895236E+03  0.46469551524E+02  0.47122751285E+03  0.55538909039E+03  0.12500000000E+03 0.  0.
</event>
<event>
 5    0  0.5597833E-005  0.2883143E+03  0.7546771E-02  0.1091233E+00
         21   -1    0    0  502  501  0.00000000000E+00  0.00000000000E+00  0.28910227128E+03  0.28910227128E+03  0.00000000000E+00 0.  1.
         21   -1    0    0  501  502 -0.00000000000E+00 -0.00000000000E+00 -0.28752839530E+03  0.28752839530E+03  0.00000000000E+00 0.  1.
         25    1    1    2    0    0 -0.50615346496E+02  0.60256002929E+02 -0.44331845467E+02  0.15421741702E+03  0.12500000000E+03 0.  0.
         25    1    1    2    0    0 -0.13670389104E+03 -0.48026940798E+02 -0.41056129400E+01  0.19140636595E+03  0.12500000000E+03 0.  0.
         25    1    1    2    0    0  0.18731923753E+03 -0.12229062131E+02  0.50011334394E+02  0.23100688362E+03  0.12500000000E+03 0.  0.
</event>
<event>
 5    0  0.5597833E-005  0.4250394E+03  0.7546771E-02  0.1035439E+00
         21   -1    0    0  502  501  0.00000000000E+00  0.00000000000E+00  0.15180297547E+03  0.15180297547E+03  0.00000000000E+00 0.  1.
         21   -1    0    0  501  502 -0.00000000000E+00 -0.00000000000E+00 -0.11900855254E+04  0.11900855254E+04  0.00000000000E+00 0.  1.
         25    1    1    2    0    0 -0.16773788368E+03  0.17539838722E+03 -0.15945320903E+03  0.31615015061E+03  0.12500000000E+03 0.  0.
         25    1    1    2    0    0  0.18352298817E+03 -0.25572607078E+03 -0.39991160814E+03  0.52405229204E+03  0.12500000000E+03 0.  0.
         25    1    1    2    0    0 -0.15785104492E+02  0.80327683560E+02 -0.47891773279E+03  0.50168605826E+03  0.12500000000E+03 0.  0.
</event>
<event>
 5    0  0.5597833E-005  0.9587154E+03  0.7546771E-02  0.9355021E-01
         21   -1    0    0  502  501  0.00000000000E+00  0.00000000000E+00  0.24289648899E+04  0.24289648899E+04  0.00000000000E+00 0. -1.
         21   -1    0    0  501  502 -0.00000000000E+00 -0.00000000000E+00 -0.37840615646E+03  0.37840615646E+03  0.00000000000E+00 0. -1.
         25    1    1    2    0    0 -0.26868768898E+03  0.14252322874E+03  0.50134253976E+03  0.59956257981E+03  0.12500000000E+03 0.  0.
         25    1    1    2    0    0 -0.42619548070E+03 -0.57619145022E+03  0.56425327076E+03  0.92067688612E+03  0.12500000000E+03 0.  0.
         25    1    1    2    0    0  0.69488316968E+03  0.43366822148E+03  0.98496292292E+03  0.12871315804E+04  0.12500000000E+03 0.  0.
</event>
<event>
 5    0  0.5683665E-005  0.2584138E+03  0.7546771E-02  0.1108100E+00
         21   -1    0    0  502  501  0.00000000000E+00  0.00000000000E+00  0.17680253602E+03  0.17680253602E+03  0.00000000000E+00 0.  1.
         21   -1    0    0  501  502 -0.00000000000E+00 -0.00000000000E+00 -0.37769655505E+03  0.37769655505E+03  0.00000000000E+00 0.  1.
         25    1    1    2    0    0  0.35541282979E+02 -0.39909149146E+02 -0.16434050636E+03  0.21328085946E+03  0.12500000000E+03 0.  0.
         25    1    1    2    0    0 -0.20714671210E+02  0.29711413635E+02 -0.13012914169E+03  0.18403928717E+03  0.12500000000E+03 0.  0.
         25    1    1    2    0    0 -0.14826611769E+02  0.10197735511E+02  0.93575629034E+02  0.15717894444E+03  0.12500000000E+03 0.  0.
</event>
<event>
 5    0  0.5597833E-005  0.2561998E+03  0.7546771E-02  0.1109448E+00
         21   -1    0    0  502  501  0.00000000000E+00  0.00000000000E+00  0.88835190961E+03  0.88835190961E+03  0.00000000000E+00 0. -1.
         21   -1    0    0  501  502 -0.00000000000E+00 -0.00000000000E+00 -0.73887776006E+02  0.73887776006E+02  0.00000000000E+00 0. -1.
         25    1    1    2    0    0  0.24638897619E+02 -0.84620689342E+02  0.16840478577E+03  0.22749265529E+03  0.12500000000E+03 0.  0.
         25    1    1    2    0    0  0.72896842521E+02 -0.34302762052E+02  0.22994863222E+03  0.27384667716E+03  0.12500000000E+03 0.  0.
         25    1    1    2    0    0 -0.97535740140E+02  0.11892345139E+03  0.41611071562E+03  0.46090035317E+03  0.12500000000E+03 0.  0.
</event>
<event>
 5    0  0.5597833E-005  0.2861184E+03  0.7546771E-02  0.1092393E+00
         21   -1    0    0  502  501  0.00000000000E+00  0.00000000000E+00  0.55922630635E+02  0.55922630635E+02  0.00000000000E+00 0. -1.
         21   -1    0    0  501  502 -0.00000000000E+00 -0.00000000000E+00 -0.14638746365E+04  0.14638746365E+04  0.00000000000E+00 0. -1.
         25    1    1    2    0    0  0.83995506600E+01 -0.10179107525E+03 -0.10435404043E+04  0.10559514908E+04  0.12500000000E+03 0.  0.
         25    1    1    2    0    0 -0.39647155343E+02  0.66251738961E+02 -0.14178935701E+03  0.20418229993E+03  0.12500000000E+03 0.  0.
         25    1    1    2    0    0  0.31247604683E+02  0.35539336291E+02 -0.22262224452E+03  0.25966347640E+03  0.12500000000E+03 0.  0.
</event>
<event>
 5    0  0.5597833E-005  0.3490473E+03  0.7546771E-02  0.1063007E+00
         21   -1    0    0  502  501  0.00000000000E+00  0.00000000000E+00  0.26581086233E+04  0.26581086233E+04  0.00000000000E+00 0. -1.
         21   -1    0    0  501  502 -0.00000000000E+00 -0.00000000000E+00 -0.45834854458E+02  0.45834854458E+02  0.00000000000E+00 0. -1.
         25    1    1    2    0    0 -0.76284687765E+02 -0.16813411618E+03  0.34798189595E+03  0.41328541532E+03  0.12500000000E+03 0.  0.
         25    1    1    2    0    0 -0.21758038165E+02  0.12414585044E+03  0.99544990437E+03  0.10111533595E+04  0.12500000000E+03 0.  0.
         25    1    1    2    0    0  0.98042725930E+02  0.43988265736E+02  0.12688419685E+04  0.12795047029E+04  0.12500000000E+03 0.  0.
</event>
<event>
 5    0  0.5597833E-005  0.2456918E+03  0.7546771E-02  0.1116058E+00
         21   -1    0    0  502  501  0.00000000000E+00  0.00000000000E+00  0.81592088459E+03  0.81592088459E+03  0.00000000000E+00 0. -1.
         21   -1    0    0  501  502 -0.00000000000E+00 -0.00000000000E+00 -0.73983199916E+02  0.73983199916E+02  0.00000000000E+00 0. -1.
         25    1    1    2    0    0  0.11996164747E+01 -0.60686257546E+01  0.10671538886E+03  0.16447322432E+03  0.12500000000E+03 0.  0.
         25    1    1    2    0    0 -0.91831022498E+02  0.39512029955E+02  0.16719024326E+03  0.23145564293E+03  0.12500000000E+03 0.  0.
         25    1    1    2    0    0  0.90631406023E+02 -0.33443404201E+02  0.46803205256E+03  0.49397521726E+03  0.12500000000E+03 0.  0.
</event>
<event>
 5    0  0.5597833E-005  0.2490365E+03  0.7546771E-02  0.1113915E+00
         21   -1    0    0  502  501  0.00000000000E+00  0.00000000000E+00  0.67681566797E+02  0.67681566797E+02  0.00000000000E+00 0.  1.
         21   -1    0    0  501  502 -0.00000000000E+00 -0.00000000000E+00 -0.91633762967E+03  0.91633762967E+03  0.00000000000E+00 0.  1.
         25    1    1    2    0    0 -0.43650270033E+02  0.45251666843E+02 -0.10621210010E+03  0.17566749738E+03  0.12500000000E+03 0.  0.
         25    1    1    2    0    0  0.35628370453E+02  0.34097748980E+02 -0.16826982832E+03  0.21534106062E+03  0.12500000000E+03 0.  0.
         25    1    1    2    0    0  0.80218995797E+01 -0.79349415824E+02 -0.57417413445E+03  0.59301063847E+03  0.12500000000E+03 0.  0.
</event>
<event>
 5    0  0.5597833E-005  0.2685425E+03  0.7546771E-02  0.1102117E+00
         21   -1    0    0  502  501  0.00000000000E+00  0.00000000000E+00  0.16665413378E+03  0.16665413378E+03  0.00000000000E+00 0. -1.
         21   -1    0    0  501  502 -0.00000000000E+00 -0.00000000000E+00 -0.43272293334E+03  0.43272293334E+03  0.00000000000E+00 0. -1.
         25    1    1    2    0    0  0.14159612740E+03 -0.99915756811E+02 -0.13006872285E+03  0.25015094327E+03  0.12500000000E+03 0.  0.
         25    1    1    2    0    0 -0.72009849799E+02  0.62459504465E+02 -0.14567481153E+02  0.15787279586E+03  0.12500000000E+03 0.  0.
         25    1    1    2    0    0 -0.69586277604E+02  0.37456252346E+02 -0.12143259555E+03  0.19135332799E+03  0.12500000000E+03 0.  0.
</event>
<event>
 5    0  0.5597833E-005  0.2767533E+03  0.7546771E-02  0.1097476E+00
         21   -1    0    0  502  501  0.00000000000E+00  0.00000000000E+00  0.50170931373E+03  0.50170931373E+03  0.00000000000E+00 0. -1.
         21   -1    0    0  501  502 -0.00000000000E+00 -0.00000000000E+00 -0.15266283911E+03  0.15266283911E+03  0.00000000000E+00 0. -1.
         25    1    1    2    0    0 -0.18887347265E+02 -0.39296567820E+02  0.97540552793E+02  0.16443877757E+03  0.12500000000E+03 0.  0.
         25    1    1    2    0    0  0.30848491787E+02 -0.14723594997E+03  0.11632924086E+03  0.22756877353E+03  0.12500000000E+03 0.  0.
         25    1    1    2    0    0 -0.11961144522E+02  0.18653251779E+03  0.13517668097E+03  0.26236460174E+03  0.12500000000E+03 0.  0.
</event>
<event>
 5    0  0.5597833E-005  0.3307958E+03  0.7546771E-02  0.1070785E+00
         21   -1    0    0  502  501  0.00000000000E+00  0.00000000000E+00  0.11645701015E+03  0.11645701015E+03  0.00000000000E+00 0.  1.
         21   -1    0    0  501  502 -0.00000000000E+00 -0.00000000000E+00 -0.93962475063E+03  0.93962475063E+03  0.00000000000E+00 0.  1.
         25    1    1    2    0    0  0.21667108440E+03 -0.90615638635E+02 -0.39800567632E+03  0.47873904287E+03  0.12500000000E+03 0.  0.
         25    1    1    2    0    0 -0.11657675476E+03 -0.32845977264E+02 -0.27510882001E+03  0.32554394607E+03  0.12500000000E+03 0.  0.
         25    1    1    2    0    0 -0.10009432964E+03  0.12346161590E+03 -0.15005324415E+03  0.25179877185E+03  0.12500000000E+03 0.  0.
</event>
<event>
 5    0  0.5597833E-005  0.4085246E+03  0.7546771E-02  0.1040867E+00
         21   -1    0    0  502  501  0.00000000000E+00  0.00000000000E+00  0.10125041075E+04  0.10125041075E+04  0.00000000000E+00 0.  1.
         21   -1    0    0  501  502 -0.00000000000E+00 -0.00000000000E+00 -0.16483126484E+03  0.16483126484E+03  0.00000000000E+00 0.  1.
         25    1    1    2    0    0  0.67061507223E+02  0.92903344265E+02  0.55425836219E+03  0.57961677786E+03  0.12500000000E+03 0.  0.
         25    1    1    2    0    0 -0.16267601685E+03 -0.11644344009E+03 -0.29490935479E+02  0.23773362504E+03  0.12500000000E+03 0.  0.
         25    1    1    2    0    0  0.95614509629E+02  0.23540095825E+02  0.32290541593E+03  0.35998496940E+03  0.12500000000E+03 0.  0.
</event>
<event>
 5    0  0.5597833E-005  0.2724817E+03  0.7546771E-02  0.1099868E+00
         21   -1    0    0  502  501  0.00000000000E+00  0.00000000000E+00  0.61779465997E+03  0.61779465997E+03  0.00000000000E+00 0.  1.
         21   -1    0    0  501  502 -0.00000000000E+00 -0.00000000000E+00 -0.12017953053E+03  0.12017953053E+03  0.00000000000E+00 0.  1.
         25    1    1    2    0    0 -0.70586622435E+02 -0.14883364664E+03  0.22297257339E+03  0.30409816528E+03  0.12500000000E+03 0.  0.
         25    1    1    2    0    0  0.66215317828E+02  0.63747387318E+02  0.22760433170E+03  0.27545767282E+03  0.12500000000E+03 0.  0.
         25    1    1    2    0    0  0.43713046074E+01  0.85086259324E+02  0.47038224344E+02  0.15841835241E+03  0.12500000000E+03 0.  0.
</event>
<event>
 5    0  0.5597833E-005  0.3097021E+03  0.7546771E-02  0.1080489E+00
         21   -1    0    0  502  501  0.00000000000E+00  0.00000000000E+00  0.78034020579E+03  0.78034020579E+03  0.00000000000E+00 0.  1.
         21   -1    0    0  501  502 -0.00000000000E+00 -0.00000000000E+00 -0.12291485625E+03  0.12291485625E+03  0.00000000000E+00 0.  1.
         25    1    1    2    0    0 -0.17615874791E+03 -0.10610037223E+03  0.19322642336E+03  0.30862703079E+03  0.12500000000E+03 0.  0.
         25    1    1    2    0    0  0.97853671261E+02 -0.40315939215E+02  0.20563287207E+03  0.26288893855E+03  0.12500000000E+03 0.  0.
         25    1    1    2    0    0  0.78305076648E+02  0.14641631144E+03  0.25856605411E+03  0.33173909270E+03  0.12500000000E+03 0.  0.
</event>
<event>
 5    0  0.5597833E-005  0.2823247E+03  0.7546771E-02  0.1094426E+00
         21   -1    0    0  502  501  0.00000000000E+00  0.00000000000E+00  0.21951498889E+03  0.21951498889E+03  0.00000000000E+00 0.  1.
         21   -1    0    0  501  502 -0.00000000000E+00 -0.00000000000E+00 -0.36310603647E+03  0.36310603647E+03  0.00000000000E+00 0.  1.
         25    1    1    2    0    0 -0.45371757279E+02 -0.10247291684E+03  0.67172097861E+02  0.18082141957E+03  0.12500000000E+03 0.  0.
         25    1    1    2    0    0  0.34489889610E+02  0.11806803314E+03 -0.25077744899E+02  0.17715390547E+03  0.12500000000E+03 0.  0.
         25    1    1    2    0    0  0.10881867669E+02 -0.15595116297E+02 -0.18568540055E+03  0.22464570032E+03  0.12500000000E+03 0.  0.
</event>
<event>
 5    0  0.7860359E-005  0.8644625E+03  0.7546771E-02  0.9471129E-01
         21   -1    0    0  502  501  0.00000000000E+00  0.00000000000E+00  0.97336482543E+03  0.97336482543E+03  0.00000000000E+00 0. -1.
         21   -1    0    0  501  502 -0.00000000000E+00 -0.00000000000E+00 -0.76774447778E+03  0.76774447778E+03  0.00000000000E+00 0. -1.
         25    1    1    2    0    0 -0.14882983791E+02  0.48535923581E+02  0.40377954509E+03  0.42572310264E+03  0.12500000000E+03 0.  0.
         25    1    1    2    0    0  0.54938197103E+03  0.18956594268E+03 -0.36074357037E+03  0.69535366562E+03  0.12500000000E+03 0.  0.
         25    1    1    2    0    0 -0.53449898724E+03 -0.23810186626E+03  0.16258437293E+03  0.62003253495E+03  0.12500000000E+03 0.  0.
</event>
<event>
 5    0  0.5597833E-005  0.2371996E+03  0.7546771E-02  0.1121673E+00
         21   -1    0    0  502  501  0.00000000000E+00  0.00000000000E+00  0.11482954309E+04  0.11482954309E+04  0.00000000000E+00 0.  1.
         21   -1    0    0  501  502 -0.00000000000E+00 -0.00000000000E+00 -0.48997526098E+02  0.48997526098E+02  0.00000000000E+00 0.  1.
         25    1    1    2    0    0 -0.40353279871E+02  0.74292914751E+02  0.29991179272E+03  0.33573785576E+03  0.12500000000E+03 0.  0.
         25    1    1    2    0    0 -0.40653383014E+02 -0.47117242644E+02  0.20395857338E+03  0.24717773314E+03  0.12500000000E+03 0.  0.
         25    1    1    2    0    0  0.81006662884E+02 -0.27175672107E+02  0.59542753870E+03  0.61437736809E+03  0.12500000000E+03 0.  0.
</event>
<event>
 5    0  0.5597833E-005  0.2373516E+03  0.7546771E-02  0.1121570E+00
         21   -1    0    0  502  501  0.00000000000E+00  0.00000000000E+00  0.10721978215E+03  0.10721978215E+03  0.00000000000E+00 0.  1.
         21   -1    0    0  501  502 -0.00000000000E+00 -0.00000000000E+00 -0.52542360947E+03  0.52542360947E+03  0.00000000000E+00 0.  1.
         25    1    1    2    0    0 -0.22233082832E+02 -0.55032031302E+02 -0.34059000631E+02  0.14250561380E+03  0.12500000000E+03 0.  0.
         25    1    1    2    0    0  0.49140795368E+02 -0.17701136933E+02 -0.27634182470E+03  0.30776281792E+03  0.12500000000E+03 0.  0.
         25    1    1    2    0    0 -0.26907712536E+02  0.72733168235E+02 -0.10780300199E+03  0.18237495989E+03  0.12500000000E+03 0.  0.
</event>
<event>
 5    0  0.5597833E-005  0.2515335E+03  0.7546771E-02  0.1112340E+00
         21   -1    0    0  502  501  0.00000000000E+00  0.00000000000E+00  0.47526863102E+02  0.47526863102E+02  0.00000000000E+00 0. -1.
         21   -1    0    0  501  502 -0.00000000000E+00 -0.00000000000E+00 -0.13312279414E+04  0.13312279414E+04  0.00000000000E+00 0. -1.
         25    1    1    2    0    0 -0.60745996790E+02  0.55293569434E+02 -0.80210410796E+03  0.81593103566E+03  0.12500000000E+03 0.  0.
         25    1    1    2    0    0 -0.12422568799E+02 -0.72673932477E+02 -0.22824494090E+03  0.27047471919E+03  0.12500000000E+03 0.  0.
         25    1    1    2    0    0  0.73168565589E+02  0.17380363042E+02 -0.25335202945E+03  0.29234904966E+03  0.12500000000E+03 0.  0.
</event>
<event>
 5    0  0.6058501E-005  0.4161790E+03  0.7546771E-02  0.1038317E+00
         21   -1    0    0  502  501  0.00000000000E+00  0.00000000000E+00  0.88103635982E+03  0.88103635982E+03  0.00000000000E+00 0.  1.
         21   -1    0    0  501  502 -0.00000000000E+00 -0.00000000000E+00 -0.19659229739E+03  0.19659229739E+03  0.00000000000E+00 0.  1.
         25    1    1    2    0    0 -0.13399091526E+03 -0.18887154782E+03  0.28584057905E+03  0.38853038952E+03  0.12500000000E+03 0.  0.
         25    1    1    2    0    0  0.12084678846E+03 -0.31240819492E+01  0.42394757813E+03  0.45822511408E+03  0.12500000000E+03 0.  0.
         25    1    1    2    0    0  0.13144126803E+02  0.19199562977E+03 -0.25344094759E+02  0.23087315361E+03  0.12500000000E+03 0.  0.
</event>
<event>
 5    0  0.5597833E-005  0.3259090E+03  0.7546771E-02  0.1072962E+00
         21   -1    0    0  502  501  0.00000000000E+00  0.00000000000E+00  0.41163377563E+03  0.41163377563E+03  0.00000000000E+00 0. -1.
         21   -1    0    0  501  502 -0.00000000000E+00 -0.00000000000E+00 -0.25803676729E+03  0.25803676729E+03  0.00000000000E+00 0. -1.
         25    1    1    2    0    0 -0.43800774404E+02 -0.32201454122E+02  0.10890007850E+01  0.13631444314E+03  0.12500000000E+03 0.  0.
         25    1    1    2    0    0  0.58754787635E+02 -0.19334781219E+03  0.88230925853E+01  0.23777793950E+03  0.12500000000E+03 0.  0.
         25    1    1    2    0    0 -0.14954013231E+02  0.22554926631E+03  0.14368491497E+03  0.29557816028E+03  0.12500000000E+03 0.  0.
</event>
<event>
 5    0  0.5597833E-005  0.3085598E+03  0.7546771E-02  0.1081038E+00
         21   -1    0    0  502  501  0.00000000000E+00  0.00000000000E+00  0.74118904878E+02  0.74118904878E+02  0.00000000000E+00 0.  1.
         21   -1    0    0  501  502 -0.00000000000E+00 -0.00000000000E+00 -0.12845463105E+04  0.12845463105E+04  0.00000000000E+00 0.  1.
         25    1    1    2    0    0  0.79221803884E+02  0.11174695351E+03 -0.34509050670E+03  0.39176004600E+03  0.12500000000E+03 0.  0.
         25    1    1    2    0    0 -0.38032431798E+02  0.69325294476E+02 -0.12560838044E+03  0.19404877624E+03  0.12500000000E+03 0.  0.
         25    1    1    2    0    0 -0.41189372086E+02 -0.18107224798E+03 -0.73972851851E+03  0.77285639316E+03  0.12500000000E+03 0.  0.
</event>
<event>
 5    0  0.5597833E-005  0.4721502E+03  0.7546771E-02  0.1021315E+00
         21   -1    0    0  502  501  0.00000000000E+00  0.00000000000E+00  0.93699566184E+03  0.93699566184E+03  0.00000000000E+00 0.  1.
         21   -1    0    0  501  502 -0.00000000000E+00 -0.00000000000E+00 -0.23791547880E+03  0.23791547880E+03  0.00000000000E+00 0.  1.
         25    1    1    2    0    0 -0.12309035348E+03  0.61970674169E+02  0.64967483924E+01  0.18616876032E+03  0.12500000000E+03 0.  0.
         25    1    1    2    0    0 -0.84835093162E+02  0.17857257395E+03  0.20486841112E+02  0.23479750395E+03  0.12500000000E+03 0.  0.
         25    1    1    2    0    0  0.20792544665E+03 -0.24054324812E+03  0.67209659353E+03  0.75394487638E+03  0.12500000000E+03 0.  0.
</event>
<event>
 5    0  0.5597833E-005  0.4279638E+03  0.7546771E-02  0.1034505E+00
         21   -1    0    0  502  501  0.00000000000E+00  0.00000000000E+00  0.15014915468E+03  0.15014915468E+03  0.00000000000E+00 0. -1.
         21   -1    0    0  501  502 -0.00000000000E+00 -0.00000000000E+00 -0.12198069655E+04  0.12198069655E+04  0.00000000000E+00 0. -1.
         25    1    1    2    0    0 -0.12821346952E+02 -0.15152685280E+03  0.42460353832E+02  0.20137689963E+03  0.12500000000E+03 0.  0.
         25    1    1    2    0    0  0.52007077438E+02  0.11138510742E+03 -0.89378497124E+03  0.91081718971E+03  0.12500000000E+03 0.  0.
         25    1    1    2    0    0 -0.39185730486E+02  0.40141745388E+02 -0.21833319341E+03  0.25776203083E+03  0.12500000000E+03 0.  0.
</event>
<event>
 5    0  0.5597833E-005  0.2609866E+03  0.7546771E-02  0.1106552E+00
         21   -1    0    0  502  501  0.00000000000E+00  0.00000000000E+00  0.25972301965E+03  0.25972301965E+03  0.00000000000E+00 0.  1.
         21   -1    0    0  501  502 -0.00000000000E+00 -0.00000000000E+00 -0.26225641244E+03  0.26225641244E+03  0.00000000000E+00 0.  1.
         25    1    1    2    0    0  0.45900063053E+02  0.36854419801E+02 -0.36263339535E+02  0.14284639947E+03  0.12500000000E+03 0.  0.
         25    1    1    2    0    0 -0.15640996776E+03 -0.15417190023E+02  0.58357171341E+02  0.20912275632E+03  0.12500000000E+03 0.  0.
         25    1    1    2    0    0  0.11050990471E+03 -0.21437229777E+02 -0.24627224595E+02  0.17001027631E+03  0.12500000000E+03 0.  0.
</event>
<event>
 5    0  0.5597833E-005  0.2843606E+03  0.7546771E-02  0.1093331E+00
         21   -1    0    0  502  501  0.00000000000E+00  0.00000000000E+00  0.29433780007E+03  0.29433780007E+03  0.00000000000E+00 0.  1.
         21   -1    0    0  501  502 -0.00000000000E+00 -0.00000000000E+00 -0.27472151546E+03  0.27472151546E+03  0.00000000000E+00 0.  1.
         25    1    1    2    0    0  0.54751159739E+02  0.65397980934E+02  0.11230505442E+03  0.18844630708E+03  0.12500000000E+03 0.  0.
         25    1    1    2    0    0 -0.13400129008E+03 -0.91662526102E+02 -0.10416880681E+03  0.22985757492E+03  0.12500000000E+03 0.  0.
         25    1    1    2    0    0  0.79250130340E+02  0.26264545168E+02  0.11480036997E+02  0.15075543354E+03  0.12500000000E+03 0.  0.
</event>
<event>
 5    0  0.5597833E-005  0.3754623E+03  0.7546771E-02  0.1052624E+00
         21   -1    0    0  502  501  0.00000000000E+00  0.00000000000E+00  0.12538569020E+03  0.12538569020E+03  0.00000000000E+00 0.  1.
         21   -1    0    0  501  502 -0.00000000000E+00 -0.00000000000E+00 -0.11243064999E+04  0.11243064999E+04  0.00000000000E+00 0.  1.
         25    1    1    2    0    0  0.11175744647E+02  0.16991075875E+03 -0.48531522353E+03  0.52929238555E+03  0.12500000000E+03 0.  0.
         25    1    1    2    0    0 -0.75167511492E+01  0.10718224487E+03 -0.32006495451E+03  0.36001543060E+03  0.12500000000E+03 0.  0.
         25    1    1    2    0    0 -0.36589934974E+01 -0.27709300362E+03 -0.19354063165E+03  0.36038437395E+03  0.12500000000E+03 0.  0.
</event>
<event>
 5    0  0.5597833E-005  0.2846806E+03  0.7546771E-02  0.1093160E+00
         21   -1    0    0  502  501  0.00000000000E+00  0.00000000000E+00  0.81595007786E+02  0.81595007786E+02  0.00000000000E+00 0.  1.
         21   -1    0    0  501  502 -0.00000000000E+00 -0.00000000000E+00 -0.99323539220E+03  0.99323539220E+03  0.00000000000E+00 0.  1.
         25    1    1    2    0    0 -0.95426817763E+02 -0.29972456134E+02 -0.33772314332E+03  0.37374663505E+03  0.12500000000E+03 0.  0.
         25    1    1    2    0    0  0.15411049671E+03 -0.22516131593E+02 -0.49462737581E+03  0.53342128030E+03  0.12500000000E+03 0.  0.
         25    1    1    2    0    0 -0.58683678949E+02  0.52488587727E+02 -0.79289865277E+02  0.16766248463E+03  0.12500000000E+03 0.  0.
</event>
<event>
 5    0  0.5597833E-005  0.5207682E+03  0.7546771E-02  0.1008496E+00
         21   -1    0    0  502  501  0.00000000000E+00  0.00000000000E+00  0.10531441912E+04  0.10531441912E+04  0.00000000000E+00 0. -1.
         21   -1    0    0  501  502 -0.00000000000E+00 -0.00000000000E+00 -0.25751418399E+03  0.25751418399E+03  0.00000000000E+00 0. -1.
         25    1    1    2    0    0 -0.32621951314E+03  0.14561342623E+02  0.71572496465E+03  0.79656665037E+03  0.12500000000E+03 0.  0.
         25    1    1    2    0    0 -0.14296977537E+02  0.56037117861E+02  0.10876704122E+02  0.13815883916E+03  0.12500000000E+03 0.  0.
         25    1    1    2    0    0  0.34051649068E+03 -0.70598460484E+02  0.69028338478E+02  0.37593288571E+03  0.12500000000E+03 0.  0.
</event>
<event>
 5    0  0.5597833E-005  0.3050502E+03  0.7546771E-02  0.1082743E+00
         21   -1    0    0  502  501  0.00000000000E+00  0.00000000000E+00  0.10426103529E+03  0.10426103529E+03  0.00000000000E+00 0.  1.
         21   -1    0    0  501  502 -0.00000000000E+00 -0.00000000000E+00 -0.89252565054E+03  0.89252565054E+03  0.00000000000E+00 0.  1.
         25    1    1    2    0    0  0.86612323067E+02 -0.14659841970E+03 -0.35604461809E+03  0.41398739261E+03  0.12500000000E+03 0.  0.
         25    1    1    2    0    0 -0.68640784389E+02  0.17001447421E+03 -0.13684143373E+03  0.26070492267E+03  0.12500000000E+03 0.  0.
         25    1    1    2    0    0 -0.17971538678E+02 -0.23416054508E+02 -0.29537856343E+03  0.32209437056E+03  0.12500000000E+03 0.  0.
</event>
<event>
 5    0  0.5597833E-005  0.2716112E+03  0.7546771E-02  0.1100361E+00
         21   -1    0    0  502  501  0.00000000000E+00  0.00000000000E+00  0.58011181414E+02  0.58011181414E+02  0.00000000000E+00 0.  1.
         21   -1    0    0  501  502 -0.00000000000E+00 -0.00000000000E+00 -0.12716974103E+04  0.12716974103E+04  0.00000000000E+00 0.  1.
         25    1    1    2    0    0  0.11792915676E+03  0.69761487223E+02 -0.45051281099E+03  0.48719682263E+03  0.12500000000E+03 0.  0.
         25    1    1    2    0    0 -0.67689830119E+02 -0.11578364284E+03 -0.59272254163E+03  0.62042950962E+03  0.12500000000E+03 0.  0.
         25    1    1    2    0    0 -0.50239326642E+02  0.46022155620E+02 -0.17045087627E+03  0.22208225947E+03  0.12500000000E+03 0.  0.
</event>
<event>
 5    0  0.5597833E-005  0.5368346E+03  0.7546771E-02  0.1004588E+00
         21   -1    0    0  502  501  0.00000000000E+00  0.00000000000E+00  0.57652282780E+03  0.57652282780E+03  0.00000000000E+00 0.  1.
         21   -1    0    0  501  502 -0.00000000000E+00 -0.00000000000E+00 -0.49987856761E+03  0.49987856761E+03  0.00000000000E+00 0.  1.
         25    1    1    2    0    0 -0.43505410406E+02 -0.38350793097E+03  0.34016470025E+03  0.52944128772E+03  0.12500000000E+03 0.  0.
         25    1    1    2    0    0 -0.44133503073E+02  0.19158865908E+03 -0.11002790606E+03  0.25765310108E+03  0.12500000000E+03 0.  0.
         25    1    1    2    0    0  0.87638913479E+02  0.19191927189E+03 -0.15349253399E+03  0.28930700660E+03  0.12500000000E+03 0.  0.
</event>
<event>
 5    0  0.5597833E-005  0.4624504E+03  0.7546771E-02  0.1024073E+00
         21   -1    0    0  502  501  0.00000000000E+00  0.00000000000E+00  0.44776622141E+03  0.44776622141E+03  0.00000000000E+00 0. -1.
         21   -1    0    0  501  502 -0.00000000000E+00 -0.00000000000E+00 -0.47761603560E+03  0.47761603560E+03  0.00000000000E+00 0. -1.
         25    1    1    2    0    0 -0.32656407400E+03  0.14159207307E+03 -0.12015907832E+03  0.39592374732E+03  0.12500000000E+03 0.  0.
         25    1    1    2    0    0  0.22605449508E+03 -0.21709046177E+03  0.99964180070E+02  0.35191865627E+03  0.12500000000E+03 0.  0.
         25    1    1    2    0    0  0.10050957892E+03  0.75498388697E+02 -0.96549159397E+01  0.17753985342E+03  0.12500000000E+03 0.  0.
</event>
<event>
 5    0  0.5597833E-005  0.3192251E+03  0.7546771E-02  0.1076006E+00
         21   -1    0    0  502  501  0.00000000000E+00  0.00000000000E+00  0.36294180062E+03  0.36294180062E+03  0.00000000000E+00 0.  1.
         21   -1    0    0  501  502 -0.00000000000E+00 -0.00000000000E+00 -0.28077416323E+03  0.28077416323E+03  0.00000000000E+00 0.  1.
         25    1    1    2    0    0  0.68519553183E+02  0.49712910684E+02 -0.12820976668E+03  0.19806323972E+03  0.12500000000E+03 0.  0.
         25    1    1    2    0    0  0.27197396763E+02 -0.14949212441E+03  0.58646772135E+02  0.20530961384E+03  0.12500000000E+03 0.  0.
         25    1    1    2    0    0 -0.95716949946E+02  0.99779213729E+02  0.15173063194E+03  0.24034311030E+03  0.12500000000E+03 0.  0.
</event>
<event>
 5    0  0.5597833E-005  0.2735267E+03  0.7546771E-02  0.1099278E+00
         21   -1    0    0  502  501  0.00000000000E+00  0.00000000000E+00  0.16335618085E+03  0.16335618085E+03  0.00000000000E+00 0.  1.
         21   -1    0    0  501  502 -0.00000000000E+00 -0.00000000000E+00 -0.45799840029E+03  0.45799840029E+03  0.00000000000E+00 0.  1.
         25    1    1    2    0    0  0.81635632850E+01 -0.13793542151E+02 -0.47312268828E+01  0.12611221225E+03  0.12500000000E+03 0.  0.
         25    1    1    2    0    0  0.14994296031E+03 -0.16190370064E+02 -0.11827812343E+03  0.22882249433E+03  0.12500000000E+03 0.  0.
         25    1    1    2    0    0 -0.15810652359E+03  0.29983912215E+02 -0.17163286913E+03  0.26641987456E+03  0.12500000000E+03 0.  0.
</event>
<event>
 5    0  0.5597833E-005  0.2844809E+03  0.7546771E-02  0.1093266E+00
         21   -1    0    0  502  501  0.00000000000E+00  0.00000000000E+00  0.25371171640E+03  0.25371171640E+03  0.00000000000E+00 0. -1.
         21   -1    0    0  501  502 -0.00000000000E+00 -0.00000000000E+00 -0.31898172146E+03  0.31898172146E+03  0.00000000000E+00 0. -1.
         25    1    1    2    0    0 -0.12418514617E+03  0.74026644051E+02 -0.14496148236E+02  0.19166907124E+03  0.12500000000E+03 0.  0.
         25    1    1    2    0    0  0.16088196121E+03  0.32028122381E+02 -0.25476853108E+01  0.20625299214E+03  0.12500000000E+03 0.  0.
         25    1    1    2    0    0 -0.36696815041E+02 -0.10605476643E+03 -0.48226171522E+02  0.17477137448E+03  0.12500000000E+03 0.  0.
</event>
<event>
 5    0  0.5597833E-005  0.3352001E+03  0.7546771E-02  0.1068859E+00
         21   -1    0    0  502  501  0.00000000000E+00  0.00000000000E+00  0.29357767939E+03  0.29357767939E+03  0.00000000000E+00 0.  1.
         21   -1    0    0  501  502 -0.00000000000E+00 -0.00000000000E+00 -0.38272354958E+03  0.38272354958E+03  0.00000000000E+00 0.  1.
         25    1    1    2    0    0 -0.77839731888E+02  0.14244483804E+02  0.74687384236E+02  0.16572608287E+03  0.12500000000E+03 0.  0.
         25    1    1    2    0    0  0.20200974744E+03  0.11118503594E+03 -0.12611894824E+03  0.29103442989E+03  0.12500000000E+03 0.  0.
         25    1    1    2    0    0 -0.12417001555E+03 -0.12542951974E+03 -0.37714306191E+02  0.21954071621E+03  0.12500000000E+03 0.  0.
</event>
<event>
 5    0  0.5597833E-005  0.2172550E+03  0.7546771E-02  0.1135946E+00
         21   -1    0    0  502  501  0.00000000000E+00  0.00000000000E+00  0.11635788097E+03  0.11635788097E+03  0.00000000000E+00 0.  1.
         21   -1    0    0  501  502 -0.00000000000E+00 -0.00000000000E+00 -0.40564290168E+03  0.40564290168E+03  0.00000000000E+00 0.  1.
         25    1    1    2    0    0 -0.34002924002E+01  0.29408659726E+02 -0.12303030001E+03  0.17787041906E+03  0.12500000000E+03 0.  0.
         25    1    1    2    0    0  0.18328881951E+01  0.88639087524E+01  0.88090567146E+01  0.12563649087E+03  0.12500000000E+03 0.  0.
         25    1    1    2    0    0  0.15674042051E+01 -0.38272568478E+02 -0.17506377741E+03  0.21849387272E+03  0.12500000000E+03 0.  0.
</event>
<event>
 5    0  0.5597833E-005  0.3671188E+03  0.7546771E-02  0.1055800E+00
         21   -1    0    0  502  501  0.00000000000E+00  0.00000000000E+00  0.23070448066E+04  0.23070448066E+04  0.00000000000E+00 0.  1.
         21   -1    0    0  501  502 -0.00000000000E+00 -0.00000000000E+00 -0.58419414538E+02  0.58419414538E+02  0.00000000000E+00 0.  1.
         25    1    1    2    0    0 -0.63471125015E+02  0.25298015934E+03  0.11627668625E+04  0.11981983647E+04  0.12500000000E+03 0.  0.
         25    1    1    2    0    0 -0.30324948984E+02 -0.22175464066E+03  0.52566793633E+03  0.58484741811E+03  0.12500000000E+03 0.  0.
         25    1    1    2    0    0  0.93796073999E+02 -0.31225518684E+02  0.56019059324E+03  0.58241843830E+03  0.12500000000E+03 0.  0.
</event>
<event>
 5    0  0.5597833E-005  0.2915910E+03  0.7546771E-02  0.1089521E+00
         21   -1    0    0  502  501  0.00000000000E+00  0.00000000000E+00  0.20634514450E+03  0.20634514450E+03  0.00000000000E+00 0.  1.
         21   -1    0    0  501  502 -0.00000000000E+00 -0.00000000000E+00 -0.41205392829E+03  0.41205392829E+03  0.00000000000E+00 0.  1.
         25    1    1    2    0    0 -0.13949800583E+02  0.59839716347E+02 -0.98129599721E+02  0.17038135734E+03  0.12500000000E+03 0.  0.
         25    1    1    2    0    0  0.11901449722E+03 -0.16648308867E+03 -0.55149817659E+02  0.24606416186E+03  0.12500000000E+03 0.  0.
         25    1    1    2    0    0 -0.10506469664E+03  0.10664337233E+03 -0.52429366412E+02  0.20195355358E+03  0.12500000000E+03 0.  0.
</event>
<event>
 5    0  0.5597833E-005  0.4050843E+03  0.7546771E-02  0.1042033E+00
         21   -1    0    0  502  501  0.00000000000E+00  0.00000000000E+00  0.60537907294E+03  0.60537907294E+03  0.00000000000E+00 0. -1.
         21   -1    0    0  501  502 -0.00000000000E+00 -0.00000000000E+00 -0.27105878255E+03  0.27105878255E+03  0.00000000000E+00 0. -1.
         25    1    1    2    0    0 -0.29350617958E+03  0.11669492047E+03  0.19719062840E+03  0.39277566860E+03  0.12500000000E+03 0.  0.
         25    1    1    2    0    0  0.13866800455E+03 -0.12492784902E+03  0.17011756687E+03  0.28178142150E+03  0.12500000000E+03 0.  0.
         25    1    1    2    0    0  0.15483817504E+03  0.82329285520E+01 -0.32987904885E+02  0.20188076538E+03  0.12500000000E+03 0.  0.
</event>
<event>
 5    0  0.5597833E-005  0.5179895E+03  0.7546771E-02  0.1009187E+00
         21   -1    0    0  502  501  0.00000000000E+00  0.00000000000E+00  0.52607606754E+03  0.52607606754E+03  0.00000000000E+00 0.  1.
         21   -1    0    0  501  502 -0.00000000000E+00 -0.00000000000E+00 -0.51002722967E+03  0.51002722967E+03  0.00000000000E+00 0.  1.
         25    1    1    2    0    0 -0.40773654617E+03 -0.97410100683E+02  0.74295240643E+02  0.44371454966E+03  0.12500000000E+03 0.  0.
         25    1    1    2    0    0  0.13474720710E+03  0.10523893079E+03 -0.17034899025E+03  0.27180106853E+03  0.12500000000E+03 0.  0.
         25    1    1    2    0    0  0.27298933906E+03 -0.78288301045E+01  0.11210258747E+03  0.32058767902E+03  0.12500000000E+03 0.  0.
</event>
<event>
 5    0  0.5597833E-005  0.2559974E+03  0.7546771E-02  0.1109572E+00
         21   -1    0    0  502  501  0.00000000000E+00  0.00000000000E+00  0.12469719137E+03  0.12469719137E+03  0.00000000000E+00 0. -1.
         21   -1    0    0  501  502 -0.00000000000E+00 -0.00000000000E+00 -0.52555057610E+03  0.52555057610E+03  0.00000000000E+00 0. -1.
         25    1    1    2    0    0 -0.30559531069E+02 -0.24527284238E+01 -0.10839697475E+03  0.16827003581E+03  0.12500000000E+03 0.  0.
         25    1    1    2    0    0 -0.12179471272E+02 -0.39404289401E+02  0.26453831655E+02  0.13426035436E+03  0.12500000000E+03 0.  0.
         25    1    1    2    0    0  0.42739002341E+02  0.41857017825E+02 -0.31891024164E+03  0.34771737731E+03  0.12500000000E+03 0.  0.
</event>
<event>
 5    0  0.5597833E-005  0.2933680E+03  0.7546771E-02  0.1088604E+00
         21   -1    0    0  502  501  0.00000000000E+00  0.00000000000E+00  0.14925627152E+03  0.14925627152E+03  0.00000000000E+00 0. -1.
         21   -1    0    0  501  502 -0.00000000000E+00 -0.00000000000E+00 -0.57662419799E+03  0.57662419799E+03  0.00000000000E+00 0. -1.
         25    1    1    2    0    0 -0.57314798983E+02  0.15764626616E+03 -0.23954895138E+03  0.31803463888E+03  0.12500000000E+03 0.  0.
         25    1    1    2    0    0  0.93429470340E+02 -0.15814628922E+03 -0.16256822773E+03  0.27530481905E+03  0.12500000000E+03 0.  0.
         25    1    1    2    0    0 -0.36114671357E+02  0.50002306281E+00 -0.25250747360E+02  0.13254101159E+03  0.12500000000E+03 0.  0.
</event>
<event>
 5    0  0.5597833E-005  0.3566146E+03  0.7546771E-02  0.1059932E+00
         21   -1    0    0  502  501  0.00000000000E+00  0.00000000000E+00  0.39358001289E+03  0.39358001289E+03  0.00000000000E+00 0.  1.
         21   -1    0    0  501  502 -0.00000000000E+00 -0.00000000000E+00 -0.32312093882E+03  0.32312093882E+03  0.00000000000E+00 0.  1.
         25    1    1    2    0    0  0.44936702245E+02 -0.83363585783E+02 -0.15345762595E+03  0.21941521735E+03  0.12500000000E+03 0.  0.
         25    1    1    2    0    0  0.93453884411E+01 -0.13316946680E+03  0.13152349472E+03  0.22526622658E+03  0.12500000000E+03 0.  0.
         25    1    1    2    0    0 -0.54282090687E+02  0.21653305258E+03  0.92393205298E+02  0.27201950778E+03  0.12500000000E+03 0.  0.
</event>
<event>
 5    0  0.5597833E-005  0.3967583E+03  0.7546771E-02  0.1044908E+00
         21   -1    0    0  502  501  0.00000000000E+00  0.00000000000E+00  0.11264093468E+03  0.11264093468E+03  0.00000000000E+00 0. -1.
         21   -1    0    0  501  502 -0.00000000000E+00 -0.00000000000E+00 -0.13975130844E+04  0.13975130844E+04  0.00000000000E+00 0. -1.
         25    1    1    2    0    0 -0.20861529692E+03  0.15606704181E+03 -0.64315898427E+03  0.70509271922E+03  0.12500000000E+03 0.  0.
         25    1    1    2    0    0  0.12296652424E+03 -0.18159092336E+03 -0.15864710853E+03  0.29814415066E+03  0.12500000000E+03 0.  0.
         25    1    1    2    0    0  0.85648772682E+02  0.25523881553E+02 -0.48306605691E+03  0.50691714918E+03  0.12500000000E+03 0.  0.
</event>
<event>
 5    0  0.5597833E-005  0.3645220E+03  0.7546771E-02  0.1056808E+00
         21   -1    0    0  502  501  0.00000000000E+00  0.00000000000E+00  0.47013819902E+03  0.47013819902E+03  0.00000000000E+00 0.  1.
         21   -1    0    0  501  502 -0.00000000000E+00 -0.00000000000E+00 -0.28263247939E+03  0.28263247939E+03  0.00000000000E+00 0.  1.
         25    1    1    2    0    0 -0.68130629788E+02 -0.10720557672E+03 -0.18454587386E+03  0.25654823709E+03  0.12500000000E+03 0.  0.
         25    1    1    2    0    0  0.18328790125E+02  0.14105926184E+03  0.20534754311E+03  0.27933183378E+03  0.12500000000E+03 0.  0.
         25    1    1    2    0    0  0.49801839663E+02 -0.33853685121E+02  0.16670405038E+03  0.21689060755E+03  0.12500000000E+03 0.  0.
</event>
<event>
 5    0  0.5597833E-005  0.3647000E+03  0.7546771E-02  0.1056738E+00
         21   -1    0    0  502  501  0.00000000000E+00  0.00000000000E+00  0.10179947197E+04  0.10179947197E+04  0.00000000000E+00 0. -1.
         21   -1    0    0  501  502 -0.00000000000E+00 -0.00000000000E+00 -0.13065496347E+03  0.13065496347E+03  0.00000000000E+00 0. -1.
         25    1    1    2    0    0  0.12150477752E+03 -0.13210989690E+03  0.20183827221E+03  0.29762413200E+03  0.12500000000E+03 0.  0.
         25    1    1    2    0    0 -0.19700605659E+02  0.13371499884E+03  0.43606230393E+02  0.18919386382E+03  0.12500000000E+03 0.  0.
         25    1    1    2    0    0 -0.10180417186E+03 -0.16051019379E+01  0.64189525361E+03  0.66183168734E+03  0.12500000000E+03 0.  0.
</event>
<event>
 5    0  0.5597833E-005  0.3342020E+03  0.7546771E-02  0.1069293E+00
         21   -1    0    0  502  501  0.00000000000E+00  0.00000000000E+00  0.12878791532E+03  0.12878791532E+03  0.00000000000E+00 0. -1.
         21   -1    0    0  501  502 -0.00000000000E+00 -0.00000000000E+00 -0.86724740917E+03  0.86724740917E+03  0.00000000000E+00 0. -1.
         25    1    1    2    0    0  0.31175804764E+02 -0.12622754683E+03 -0.20599662643E+03  0.27379725069E+03  0.12500000000E+03 0.  0.
         25    1    1    2    0    0 -0.92943697612E+02 -0.24518536402E+02 -0.67320540843E+01  0.15782905343E+03  0.12500000000E+03 0.  0.
         25    1    1    2    0    0  0.61767892849E+02  0.15074608323E+03 -0.52573081333E+03  0.56440902038E+03  0.12500000000E+03 0.  0.
</event>
<event>
 5    0  0.5597833E-005  0.3824043E+03  0.7546771E-02  0.1050049E+00
         21   -1    0    0  502  501  0.00000000000E+00  0.00000000000E+00  0.26722406749E+03  0.26722406749E+03  0.00000000000E+00 0.  1.
         21   -1    0    0  501  502 -0.00000000000E+00 -0.00000000000E+00 -0.54723003586E+03  0.54723003586E+03  0.00000000000E+00 0.  1.
         25    1    1    2    0    0 -0.85466220730E+02 -0.38364437723E+02  0.10012589830E+03  0.18554379666E+03  0.12500000000E+03 0.  0.
         25    1    1    2    0    0  0.30551698998E+02 -0.10807289201E+03 -0.39387923793E+03  0.42822775526E+03  0.12500000000E+03 0.  0.
         25    1    1    2    0    0  0.54914521733E+02  0.14643732973E+03  0.13747371259E+02  0.20068255144E+03  0.12500000000E+03 0.  0.
</event>
<event>
 5    0  0.5597833E-005  0.2383140E+03  0.7546771E-02  0.1120921E+00
         21   -1    0    0  502  501  0.00000000000E+00  0.00000000000E+00  0.56924005174E+02  0.56924005174E+02  0.00000000000E+00 0.  1.
         21   -1    0    0  501  502 -0.00000000000E+00 -0.00000000000E+00 -0.99770844932E+03  0.99770844932E+03  0.00000000000E+00 0.  1.
         25    1    1    2    0    0  0.61921433300E+02 -0.80256761204E+02 -0.56462605710E+03  0.58711412517E+03  0.12500000000E+03 0.  0.
         25    1    1    2    0    0 -0.59810455569E+02  0.56235915009E+02 -0.18569045790E+03  0.23842339417E+03  0.12500000000E+03 0.  0.
         25    1    1    2    0    0 -0.21109777306E+01  0.24020846195E+02 -0.19046792915E+03  0.22909493515E+03  0.12500000000E+03 0.  0.
</event>
<event>
 5    0  0.5597833E-005  0.3134214E+03  0.7546771E-02  0.1078717E+00
         21   -1    0    0  502  501  0.00000000000E+00  0.00000000000E+00  0.59281737560E+02  0.59281737560E+02  0.00000000000E+00 0.  1.
         21   -1    0    0  501  502 -0.00000000000E+00 -0.00000000000E+00 -0.16570528903E+04  0.16570528903E+04  0.00000000000E+00 0.  1.
         25    1    1    2    0    0 -0.14319284427E+03  0.44435893957E+02 -0.12105269097E+04  0.12261644011E+04  0.12500000000E+03 0.  0.
         25    1    1    2    0    0  0.74848552874E+02 -0.22631590332E+02 -0.25505633209E+03  0.29460690298E+03  0.12500000000E+03 0.  0.
         25    1    1    2    0    0  0.68344291395E+02 -0.21804303625E+02 -0.13218791098E+03  0.19556332384E+03  0.12500000000E+03 0.  0.
</event>
<event>
 5    0  0.5597833E-005  0.4411497E+03  0.7546771E-02  0.1030395E+00
         21   -1    0    0  502  501  0.00000000000E+00  0.00000000000E+00  0.26447506292E+03  0.26447506292E+03  0.00000000000E+00 0.  1.
         21   -1    0    0  501  502 -0.00000000000E+00 -0.00000000000E+00 -0.73584668879E+03  0.73584668879E+03  0.00000000000E+00 0.  1.
         25    1    1    2    0    0 -0.10012443729E+03  0.30730472422E+03 -0.43097317852E+03  0.55301354149E+03  0.12500000000E+03 0.  0.
         25    1    1    2    0    0 -0.23879497685E+02 -0.20647439305E+03 -0.24860362865E+02  0.24381333647E+03  0.12500000000E+03 0.  0.
         25    1    1    2    0    0  0.12400393497E+03 -0.10083033117E+03 -0.15538084487E+02  0.20349487375E+03  0.12500000000E+03 0.  0.
</event>
<event>
 5    0  0.5597833E-005  0.2971816E+03  0.7546771E-02  0.1086658E+00
         21   -1    0    0  502  501  0.00000000000E+00  0.00000000000E+00  0.16368925437E+03  0.16368925437E+03  0.00000000000E+00 0.  1.
         21   -1    0    0  501  502 -0.00000000000E+00 -0.00000000000E+00 -0.53953983728E+03  0.53953983728E+03  0.00000000000E+00 0.  1.
         25    1    1    2    0    0 -0.97621218923E+01 -0.20727645691E+02 -0.31333129832E+03  0.33812192597E+03  0.12500000000E+03 0.  0.
         25    1    1    2    0    0 -0.72396360445E+02  0.91524925237E+02  0.32807015560E+02  0.17412451067E+03  0.12500000000E+03 0.  0.
         25    1    1    2    0    0  0.82158482337E+02 -0.70797279546E+02 -0.95326300155E+02  0.19098265500E+03  0.12500000000E+03 0.  0.
</event>
<event>
 5    0  0.6230618E-005  0.2748001E+03  0.7546771E-02  0.1098563E+00
         21   -1    0    0  502  501  0.00000000000E+00  0.00000000000E+00  0.55664669108E+03  0.55664669108E+03  0.00000000000E+00 0.  1.
         21   -1    0    0  501  502 -0.00000000000E+00 -0.00000000000E+00 -0.13566072086E+03  0.13566072086E+03  0.00000000000E+00 0.  1.
         25    1    1    2    0    0  0.59792534729E+02 -0.46571561298E+02  0.30144770695E+02  0.14925737748E+03  0.12500000000E+03 0.  0.
         25    1    1    2    0    0 -0.19115488222E+02 -0.50581372843E+02  0.19833972004E+02  0.13763089629E+03  0.12500000000E+03 0.  0.
         25    1    1    2    0    0 -0.40677046506E+02  0.97152934142E+02  0.37100722752E+03  0.40541913817E+03  0.12500000000E+03 0.  0.
</event>
<event>
 5    0  0.5597833E-005  0.2761111E+03  0.7546771E-02  0.1097832E+00
         21   -1    0    0  502  501  0.00000000000E+00  0.00000000000E+00  0.21287238252E+04  0.21287238252E+04  0.00000000000E+00 0.  1.
         21   -1    0    0  501  502 -0.00000000000E+00 -0.00000000000E+00 -0.35813641690E+02  0.35813641690E+02  0.00000000000E+00 0.  1.
         25    1    1    2    0    0 -0.75127146160E+02  0.13788320010E+02  0.85436561629E+03  0.86683320896E+03  0.12500000000E+03 0.  0.
         25    1    1    2    0    0  0.10496441144E+03  0.15013438451E+02  0.10764179480E+04  0.10888266757E+04  0.12500000000E+03 0.  0.
         25    1    1    2    0    0 -0.29837265280E+02 -0.28801758462E+02  0.16212661926E+03  0.20887758224E+03  0.12500000000E+03 0.  0.
</event>
<event>
 5    0  0.5597833E-005  0.3340014E+03  0.7546771E-02  0.1069380E+00
         21   -1    0    0  502  501  0.00000000000E+00  0.00000000000E+00  0.48271123607E+03  0.48271123607E+03  0.00000000000E+00 0. -1.
         21   -1    0    0  501  502 -0.00000000000E+00 -0.00000000000E+00 -0.23110494992E+03  0.23110494992E+03  0.00000000000E+00 0. -1.
         25    1    1    2    0    0  0.23967784871E+03  0.42294155644E+02  0.91386028397E+02  0.28846260234E+03  0.12500000000E+03 0.  0.
         25    1    1    2    0    0 -0.73880142415E+01 -0.31366342954E+02  0.39064730541E+02  0.13486839288E+03  0.12500000000E+03 0.  0.
         25    1    1    2    0    0 -0.23228983446E+03 -0.10927812690E+02  0.12115552721E+03  0.29048519077E+03  0.12500000000E+03 0.  0.
</event>
<event>
 5    0  0.5597833E-005  0.2860230E+03  0.7546771E-02  0.1092444E+00
         21   -1    0    0  502  501  0.00000000000E+00  0.00000000000E+00  0.52776575590E+03  0.52776575590E+03  0.00000000000E+00 0.  1.
         21   -1    0    0  501  502 -0.00000000000E+00 -0.00000000000E+00 -0.15501036155E+03  0.15501036155E+03  0.00000000000E+00 0.  1.
         25    1    1    2    0    0  0.78237842920E+02 -0.69211757679E+02  0.23639809831E+02  0.16460640350E+03  0.12500000000E+03 0.  0.
         25    1    1    2    0    0 -0.93745271657E+02  0.15298937771E+03  0.13845986548E+03  0.25882438061E+03  0.12500000000E+03 0.  0.
         25    1    1    2    0    0  0.15507428737E+02 -0.83777620027E+02  0.21065571903E+03  0.25934533334E+03  0.12500000000E+03 0.  0.
</event>
<event>
 5    0  0.5704919E-005  0.3880199E+03  0.7546771E-02  0.1048009E+00
         21   -1    0    0  502  501  0.00000000000E+00  0.00000000000E+00  0.28882494383E+03  0.28882494383E+03  0.00000000000E+00 0. -1.
         21   -1    0    0  501  502 -0.00000000000E+00 -0.00000000000E+00 -0.52128271300E+03  0.52128271300E+03  0.00000000000E+00 0. -1.
         25    1    1    2    0    0  0.12479296405E+02  0.13017595506E+03  0.11625800921E+03  0.21504054692E+03  0.12500000000E+03 0.  0.
         25    1    1    2    0    0  0.16668140388E+03  0.25516155006E+02 -0.11536085358E+03  0.23951386412E+03  0.12500000000E+03 0.  0.
         25    1    1    2    0    0 -0.17916070029E+03 -0.15569211007E+03 -0.23335492480E+03  0.35555324579E+03  0.12500000000E+03 0.  0.
</event>
<event>
 5    0  0.5597833E-005  0.6301507E+03  0.7546771E-02  0.9844755E-01
         21   -1    0    0  502  501  0.00000000000E+00  0.00000000000E+00  0.10113130772E+04  0.10113130772E+04  0.00000000000E+00 0. -1.
         21   -1    0    0  501  502 -0.00000000000E+00 -0.00000000000E+00 -0.39264780178E+03  0.39264780178E+03  0.00000000000E+00 0.  1.
         25    1    1    2    0    0 -0.66910930322E+01  0.53522884573E+03  0.25725866821E+03  0.60689513953E+03  0.12500000000E+03 0.  0.
         25    1    1    2    0    0 -0.11658011818E+03 -0.30070413980E+02  0.11529467846E+03  0.20835790514E+03  0.12500000000E+03 0.  0.
         25    1    1    2    0    0  0.12327121121E+03 -0.50515843175E+03  0.24611192870E+03  0.58870783427E+03  0.12500000000E+03 0.  0.
</event>
<event>
 5    0  0.5597833E-005  0.3526669E+03  0.7546771E-02  0.1061526E+00
         21   -1    0    0  502  501  0.00000000000E+00  0.00000000000E+00  0.61338679767E+03  0.61338679767E+03  0.00000000000E+00 0. -1.
         21   -1    0    0  501  502 -0.00000000000E+00 -0.00000000000E+00 -0.20276591352E+03  0.20276591352E+03  0.00000000000E+00 0. -1.
         25    1    1    2    0    0  0.35825941270E+02  0.12893169549E+03  0.13446697580E+02  0.18361016814E+03  0.12500000000E+03 0.  0.
         25    1    1    2    0    0  0.16842462009E+03 -0.13757715701E+03  0.17574133236E+03  0.30627494622E+03  0.12500000000E+03 0.  0.
         25    1    1    2    0    0 -0.20425056136E+03  0.86454615245E+01  0.22143285421E+03  0.32626759683E+03  0.12500000000E+03 0.  0.
</event>
<event>
 5    0  0.5597833E-005  0.2444096E+03  0.7546771E-02  0.1116890E+00
         21   -1    0    0  502  501  0.00000000000E+00  0.00000000000E+00  0.43902982845E+03  0.43902982845E+03  0.00000000000E+00 0.  1.
         21   -1    0    0  501  502 -0.00000000000E+00 -0.00000000000E+00 -0.13606372179E+03  0.13606372179E+03  0.00000000000E+00 0.  1.
         25    1    1    2    0    0  0.21199176736E+02  0.39477156259E+02  0.88335585036E+02  0.15948675978E+03  0.12500000000E+03 0.  0.
         25    1    1    2    0    0  0.21233401649E+02 -0.11394182653E+03  0.20082592385E+03  0.26341915054E+03  0.12500000000E+03 0.  0.
         25    1    1    2    0    0 -0.42432578385E+02  0.74464670270E+02  0.13804597767E+02  0.15218763993E+03  0.12500000000E+03 0.  0.
</event>
<event>
 5    0  0.5597833E-005  0.3887190E+03  0.7546771E-02  0.1047757E+00
         21   -1    0    0  502  501  0.00000000000E+00  0.00000000000E+00  0.21725019805E+03  0.21725019805E+03  0.00000000000E+00 0.  1.
         21   -1    0    0  501  502 -0.00000000000E+00 -0.00000000000E+00 -0.69552295046E+03  0.69552295046E+03  0.00000000000E+00 0.  1.
         25    1    1    2    0    0  0.13423247344E+02  0.12117415096E+03  0.26829790349E+02  0.17665841639E+03  0.12500000000E+03 0.  0.
         25    1    1    2    0    0 -0.20332676509E+03 -0.48482272551E+02 -0.41460092730E+03  0.48084429192E+03  0.12500000000E+03 0.  0.
         25    1    1    2    0    0  0.18990351775E+03 -0.72691878412E+02 -0.90501615450E+02  0.25527044020E+03  0.12500000000E+03 0.  0.
</event>
<event>
 5    0  0.5597833E-005  0.3542624E+03  0.7546771E-02  0.1060879E+00
         21   -1    0    0  502  501  0.00000000000E+00  0.00000000000E+00  0.38339725808E+03  0.38339725808E+03  0.00000000000E+00 0.  1.
         21   -1    0    0  501  502 -0.00000000000E+00 -0.00000000000E+00 -0.32734154839E+03  0.32734154839E+03  0.00000000000E+00 0.  1.
         25    1    1    2    0    0 -0.19547467643E+03  0.15952695242E+02  0.15855772651E+03  0.28147893393E+03  0.12500000000E+03 0.  0.
         25    1    1    2    0    0  0.23442740917E+03 -0.67260622642E+00 -0.12815963352E+03  0.29496873433E+03  0.12500000000E+03 0.  0.
         25    1    1    2    0    0 -0.38952732739E+02 -0.15280089015E+02  0.25657616703E+02  0.13429113821E+03  0.12500000000E+03 0.  0.
</event>
<event>
 5    0  0.5597833E-005  0.2539354E+03  0.7546771E-02  0.1110843E+00
         21   -1    0    0  502  501  0.00000000000E+00  0.00000000000E+00  0.11591163200E+03  0.11591163200E+03  0.00000000000E+00 0.  1.
         21   -1    0    0  501  502 -0.00000000000E+00 -0.00000000000E+00 -0.55631321560E+03  0.55631321560E+03  0.00000000000E+00 0.  1.
         25    1    1    2    0    0  0.64047631338E+02 -0.23462996553E+02 -0.11544252272E+03  0.18331554037E+03  0.12500000000E+03 0.  0.
         25    1    1    2    0    0 -0.76282194634E+02  0.92056455321E+02 -0.29610267696E+03  0.34292150631E+03  0.12500000000E+03 0.  0.
         25    1    1    2    0    0  0.12234563295E+02 -0.68593458768E+02 -0.28856383921E+02  0.14598780092E+03  0.12500000000E+03 0.  0.
</event>
<event>
 5    0  0.5597833E-005  0.3345226E+03  0.7546771E-02  0.1069153E+00
         21   -1    0    0  502  501  0.00000000000E+00  0.00000000000E+00  0.92381997831E+03  0.92381997831E+03  0.00000000000E+00 0. -1.
         21   -1    0    0  501  502 -0.00000000000E+00 -0.00000000000E+00 -0.12113327215E+03  0.12113327215E+03  0.00000000000E+00 0. -1.
         25    1    1    2    0    0 -0.15503855178E+03 -0.28347894952E+02  0.50433134032E+02  0.20738625001E+03  0.12500000000E+03 0.  0.
         25    1    1    2    0    0  0.74862224837E+02 -0.41291783949E+01  0.61735463664E+03  0.63432889750E+03  0.12500000000E+03 0.  0.
         25    1    1    2    0    0  0.80176326938E+02  0.32477073346E+02  0.13489893548E+03  0.20323810295E+03  0.12500000000E+03 0.  0.
</event>
<event>
 5    0  0.5597833E-005  0.2682051E+03  0.7546771E-02  0.1102311E+00
         21   -1    0    0  502  501  0.00000000000E+00  0.00000000000E+00  0.12605445099E+03  0.12605445099E+03  0.00000000000E+00 0. -1.
         21   -1    0    0  501  502 -0.00000000000E+00 -0.00000000000E+00 -0.57065807437E+03  0.57065807437E+03  0.00000000000E+00 0. -1.
         25    1    1    2    0    0  0.10364143873E+03  0.19325322061E+02 -0.15980082125E+02  0.16430270515E+03  0.12500000000E+03 0.  0.
         25    1    1    2    0    0 -0.13175130749E+03 -0.31940354562E+02 -0.28581230112E+03  0.34013565639E+03  0.12500000000E+03 0.  0.
         25    1    1    2    0    0  0.28109868754E+02  0.12615032501E+02 -0.14281124013E+03  0.19227416382E+03  0.12500000000E+03 0.  0.
</event>
<event>
 5    0  0.5597833E-005  0.5538561E+03  0.7546771E-02  0.1000605E+00
         21   -1    0    0  502  501  0.00000000000E+00  0.00000000000E+00  0.46621502054E+03  0.46621502054E+03  0.00000000000E+00 0.  1.
         21   -1    0    0  501  502 -0.00000000000E+00 -0.00000000000E+00 -0.65797239820E+03  0.65797239820E+03  0.00000000000E+00 0.  1.
         25    1    1    2    0    0  0.53752227514E+01 -0.14278277062E+03 -0.45603645652E+03  0.49397374655E+03  0.12500000000E+03 0.  0.
         25    1    1    2    0    0 -0.99386991064E+02  0.13581823035E+03 -0.10106949330E+03  0.23273248197E+03  0.12500000000E+03 0.  0.
         25    1    1    2    0    0  0.94011768312E+02  0.69645402668E+01  0.36534857216E+03  0.39748119022E+03  0.12500000000E+03 0.  0.
</event>
<event>
 5    0  0.5597833E-005  0.3696521E+03  0.7546771E-02  0.1054826E+00
         21   -1    0    0  502  501  0.00000000000E+00  0.00000000000E+00  0.11669723099E+03  0.11669723099E+03  0.00000000000E+00 0. -1.
         21   -1    0    0  501  502 -0.00000000000E+00 -0.00000000000E+00 -0.11709164125E+04  0.11709164125E+04  0.00000000000E+00 0. -1.
         25    1    1    2    0    0  0.10777824131E+03  0.16403550972E+03 -0.12835811701E+03  0.26575290018E+03  0.12500000000E+03 0.  0.
         25    1    1    2    0    0  0.91709336887E+01 -0.59067075898E+02 -0.97282763957E+02  0.16929843958E+03  0.12500000000E+03 0.  0.
         25    1    1    2    0    0 -0.11694917500E+03 -0.10496843382E+03 -0.82857830056E+03  0.85256230376E+03  0.12500000000E+03 0.  0.
</event>
<event>
 5    0  0.5597833E-005  0.3355280E+03  0.7546771E-02  0.1068717E+00
         21   -1    0    0  502  501  0.00000000000E+00  0.00000000000E+00  0.25021827898E+03  0.25021827898E+03  0.00000000000E+00 0.  1.
         21   -1    0    0  501  502 -0.00000000000E+00 -0.00000000000E+00 -0.44992326451E+03  0.44992326451E+03  0.00000000000E+00 0.  1.
         25    1    1    2    0    0 -0.13042322571E+03 -0.55103821658E+02 -0.71897019980E+02  0.20209114391E+03  0.12500000000E+03 0.  0.
         25    1    1    2    0    0 -0.95844994934E+02  0.57475128741E+01 -0.16965385190E+03  0.23157445115E+03  0.12500000000E+03 0.  0.
         25    1    1    2    0    0  0.22626822064E+03  0.49356308784E+02  0.41845886357E+02  0.26647594843E+03  0.12500000000E+03 0.  0.
</event>
<event>
 5    0  0.5597833E-005  0.2061455E+03  0.7546771E-02  0.1144655E+00
         21   -1    0    0  502  501  0.00000000000E+00  0.00000000000E+00  0.52953320569E+02  0.52953320569E+02  0.00000000000E+00 0.  1.
         21   -1    0    0  501  502 -0.00000000000E+00 -0.00000000000E+00 -0.80251783561E+03  0.80251783561E+03  0.00000000000E+00 0.  1.
         25    1    1    2    0    0 -0.32874860082E+02  0.17567387218E+01 -0.29979066447E+03  0.32647095592E+03  0.12500000000E+03 0.  0.
         25    1    1    2    0    0 -0.81040814808E+01  0.49444680651E+02 -0.25603021973E+03  0.28928692677E+03  0.12500000000E+03 0.  0.
         25    1    1    2    0    0  0.40978941563E+02 -0.51201419373E+02 -0.19374363083E+03  0.23971327349E+03  0.12500000000E+03 0.  0.
</event>
<event>
 5    0  0.5597833E-005  0.4609221E+03  0.7546771E-02  0.1024514E+00
         21   -1    0    0  502  501  0.00000000000E+00  0.00000000000E+00  0.71139892919E+02  0.71139892919E+02  0.00000000000E+00 0.  1.
         21   -1    0    0  501  502 -0.00000000000E+00 -0.00000000000E+00 -0.29863580319E+04  0.29863580319E+04  0.00000000000E+00 0.  1.
         25    1    1    2    0    0 -0.14402268589E+03  0.16513440974E+03 -0.47909568385E+03  0.54145136588E+03  0.12500000000E+03 0.  0.
         25    1    1    2    0    0 -0.11165103150E+03 -0.27119659392E+03 -0.14286800250E+04  0.14638186907E+04  0.12500000000E+03 0.  0.
         25    1    1    2    0    0  0.25567371740E+03  0.10606218418E+03 -0.10074424302E+04  0.10522278683E+04  0.12500000000E+03 0.  0.
</event>
<event>
 5    0  0.5597833E-005  0.2208201E+03  0.7546771E-02  0.1133273E+00
         21   -1    0    0  502  501  0.00000000000E+00  0.00000000000E+00  0.35382637755E+03  0.35382637755E+03  0.00000000000E+00 0. -1.
         21   -1    0    0  501  502 -0.00000000000E+00 -0.00000000000E+00 -0.13781194037E+03  0.13781194037E+03  0.00000000000E+00 0. -1.
         25    1    1    2    0    0 -0.76417809058E+02 -0.23667396971E+02  0.67560381226E+01  0.14856133842E+03  0.12500000000E+03 0.  0.
         25    1    1    2    0    0  0.14720977674E+02  0.70030377361E+01  0.65186499997E+02  0.14191557174E+03  0.12500000000E+03 0.  0.
         25    1    1    2    0    0  0.61696831384E+02  0.16664359235E+02  0.14407189906E+03  0.20116140776E+03  0.12500000000E+03 0.  0.
</event>
<event>
 5    0  0.5597833E-005  0.4766859E+03  0.7546771E-02  0.1020050E+00
         21   -1    0    0  502  501  0.00000000000E+00  0.00000000000E+00  0.22434031054E+03  0.22434031054E+03  0.00000000000E+00 0.  1.
         21   -1    0    0  501  502 -0.00000000000E+00 -0.00000000000E+00 -0.10128783846E+04  0.10128783846E+04  0.00000000000E+00 0.  1.
         25    1    1    2    0    0  0.32492484025E+03  0.14321682228E+03 -0.18743586974E+03  0.42052873298E+03  0.12500000000E+03 0.  0.
         25    1    1    2    0    0  0.22303789423E+01 -0.13679884857E+02 -0.22058914494E+02  0.12768598024E+03  0.12500000000E+03 0.  0.
         25    1    1    2    0    0 -0.32715521919E+03 -0.12953693742E+03 -0.57904328978E+03  0.68900398188E+03  0.12500000000E+03 0.  0.
</event>
<event>
 5    0  0.5597833E-005  0.2580225E+03  0.7546771E-02  0.1108337E+00
         21   -1    0    0  502  501  0.00000000000E+00  0.00000000000E+00  0.13584624112E+03  0.13584624112E+03  0.00000000000E+00 0. -1.
         21   -1    0    0  501  502 -0.00000000000E+00 -0.00000000000E+00 -0.49008073379E+03  0.49008073379E+03  0.00000000000E+00 0. -1.
         25    1    1    2    0    0  0.23414016448E+02  0.10942401401E+03 -0.59691334629E+02  0.17807269987E+03  0.12500000000E+03 0.  0.
         25    1    1    2    0    0  0.40072854363E+01 -0.10635375659E+03 -0.49636261423E+02  0.17151075280E+03  0.12500000000E+03 0.  0.
         25    1    1    2    0    0 -0.27421301884E+02 -0.30702574204E+01 -0.24490689662E+03  0.27634352225E+03  0.12500000000E+03 0.  0.
</event>
<event>
 5    0  0.5813131E-005  0.2926103E+03  0.7546771E-02  0.1088994E+00
         21   -1    0    0  502  501  0.00000000000E+00  0.00000000000E+00  0.40319021024E+03  0.40319021024E+03  0.00000000000E+00 0. -1.
         21   -1    0    0  501  502 -0.00000000000E+00 -0.00000000000E+00 -0.21235824701E+03  0.21235824701E+03  0.00000000000E+00 0. -1.
         25    1    1    2    0    0 -0.93334154645E+02 -0.11532731632E+03  0.11693395081E+03  0.22651755598E+03  0.12500000000E+03 0.  0.
         25    1    1    2    0    0  0.17671253227E+02  0.43755719579E+02 -0.87613603228E+02  0.15977477791E+03  0.12500000000E+03 0.  0.
         25    1    1    2    0    0  0.75662901418E+02  0.71571596744E+02  0.16151161564E+03  0.22925612336E+03  0.12500000000E+03 0.  0.
</event>
<event>
 5    0  0.6989840E-005  0.3676337E+03  0.7546771E-02  0.1055601E+00
         21   -1    0    0  502  501  0.00000000000E+00  0.00000000000E+00  0.17096404936E+03  0.17096404936E+03  0.00000000000E+00 0. -1.
         21   -1    0    0  501  502 -0.00000000000E+00 -0.00000000000E+00 -0.79054371353E+03  0.79054371353E+03  0.00000000000E+00 0. -1.
         25    1    1    2    0    0 -0.63923494955E+02 -0.39527723378E+02  0.23971259956E+02  0.14781162142E+03  0.12500000000E+03 0.  0.
         25    1    1    2    0    0  0.19039022894E+03  0.71311837540E+02 -0.13539886410E+03  0.27439327588E+03  0.12500000000E+03 0.  0.
         25    1    1    2    0    0 -0.12646673399E+03 -0.31784114162E+02 -0.50815206003E+03  0.53930286559E+03  0.12500000000E+03 0.  0.
</event>
<event>
 5    0  0.5597833E-005  0.3597792E+03  0.7546771E-02  0.1058671E+00
         21   -1    0    0  502  501  0.00000000000E+00  0.00000000000E+00  0.25856267122E+03  0.25856267122E+03  0.00000000000E+00 0. -1.
         21   -1    0    0  501  502 -0.00000000000E+00 -0.00000000000E+00 -0.50061770407E+03  0.50061770407E+03  0.00000000000E+00 0. -1.
         25    1    1    2    0    0 -0.17272940852E+03 -0.10617097489E+03 -0.13100175481E+03  0.27183484736E+03  0.12500000000E+03 0.  0.
         25    1    1    2    0    0  0.12141524498E+03  0.21741348000E+03 -0.13686269171E+03  0.31042983004E+03  0.12500000000E+03 0.  0.
         25    1    1    2    0    0  0.51314163545E+02 -0.11124250511E+03  0.25809413662E+02  0.17691569788E+03  0.12500000000E+03 0.  0.
</event>
<event>
 5    0  0.5597833E-005  0.4685532E+03  0.7546771E-02  0.1022329E+00
         21   -1    0    0  502  501  0.00000000000E+00  0.00000000000E+00  0.83213257672E+03  0.83213257672E+03  0.00000000000E+00 0. -1.
         21   -1    0    0  501  502 -0.00000000000E+00 -0.00000000000E+00 -0.26383064189E+03  0.26383064189E+03  0.00000000000E+00 0. -1.
         25    1    1    2    0    0 -0.12715434831E+03 -0.77761315548E+02  0.33501519011E+03  0.38739544150E+03  0.12500000000E+03 0.  0.
         25    1    1    2    0    0  0.32412215348E+03 -0.49817209524E+02 -0.58003765004E+01  0.35099226360E+03  0.12500000000E+03 0.  0.
         25    1    1    2    0    0 -0.19696780517E+03  0.12757852507E+03  0.23908712121E+03  0.35757551351E+03  0.12500000000E+03 0.  0.
</event>
<event>
 5    0  0.6132628E-005  0.3206430E+03  0.7546771E-02  0.1075354E+00
         21   -1    0    0  502  501  0.00000000000E+00  0.00000000000E+00  0.40883461568E+03  0.40883461568E+03  0.00000000000E+00 0.  1.
         21   -1    0    0  501  502 -0.00000000000E+00 -0.00000000000E+00 -0.25147561908E+03  0.25147561908E+03  0.00000000000E+00 0.  1.
         25    1    1    2    0    0 -0.45447925054E+02  0.70033435044E+02  0.17501170952E+03  0.23070391064E+03  0.12500000000E+03 0.  0.
         25    1    1    2    0    0  0.12594901536E+03  0.99668583183E+02 -0.37420762181E+01  0.20355830634E+03  0.12500000000E+03 0.  0.
         25    1    1    2    0    0 -0.80501090309E+02 -0.16970201823E+03 -0.13910636704E+02  0.22604801779E+03  0.12500000000E+03 0.  0.
</event>
<event>
 5    0  0.5597833E-005  0.2516041E+03  0.7546771E-02  0.1112295E+00
         21   -1    0    0  502  501  0.00000000000E+00  0.00000000000E+00  0.39746156445E+03  0.39746156445E+03  0.00000000000E+00 0. -1.
         21   -1    0    0  501  502 -0.00000000000E+00 -0.00000000000E+00 -0.15927229356E+03  0.15927229356E+03  0.00000000000E+00 0. -1.
         25    1    1    2    0    0  0.30903610696E+02  0.12570868055E+03  0.10802965134E+03  0.20988833005E+03  0.12500000000E+03 0.  0.
         25    1    1    2    0    0 -0.25616550111E+02 -0.11354840645E+03  0.71269680148E+01  0.17095391753E+03  0.12500000000E+03 0.  0.
         25    1    1    2    0    0 -0.52870605848E+01 -0.12160274106E+02  0.12303265153E+03  0.17589161043E+03  0.12500000000E+03 0.  0.
</event>
<event>
 5    0  0.5597833E-005  0.2506273E+03  0.7546771E-02  0.1112909E+00
         21   -1    0    0  502  501  0.00000000000E+00  0.00000000000E+00  0.78392878631E+02  0.78392878631E+02  0.00000000000E+00 0.  1.
         21   -1    0    0  501  502 -0.00000000000E+00 -0.00000000000E+00 -0.80127239582E+03  0.80127239582E+03  0.00000000000E+00 0.  1.
         25    1    1    2    0    0  0.77654830265E+02 -0.66588370812E+02 -0.27002970101E+03  0.31465111348E+03  0.12500000000E+03 0.  0.
         25    1    1    2    0    0 -0.12124071396E+03 -0.21172397694E+02 -0.19613281515E+03  0.26313620489E+03  0.12500000000E+03 0.  0.
         25    1    1    2    0    0  0.43585883696E+02  0.87760768506E+02 -0.25671700103E+03  0.30187795608E+03  0.12500000000E+03 0.  0.
</event>
<event>
 5    0  0.5597833E-005  0.3427928E+03  0.7546771E-02  0.1065613E+00
         21   -1    0    0  502  501  0.00000000000E+00  0.00000000000E+00  0.40998687556E+02  0.40998687556E+02  0.00000000000E+00 0. -1.
         21   -1    0    0  501  502 -0.00000000000E+00 -0.00000000000E+00 -0.28661140149E+04  0.28661140149E+04  0.00000000000E+00 0. -1.
         25    1    1    2    0    0 -0.36950314059E+02  0.15767624943E+03 -0.16722219452E+04  0.16846893955E+04  0.12500000000E+03 0.  0.
         25    1    1    2    0    0 -0.53948393481E+02 -0.17919982693E+03 -0.87741736064E+03  0.90581964645E+03  0.12500000000E+03 0.  0.
         25    1    1    2    0    0  0.90898707540E+02  0.21523577496E+02 -0.27547602153E+03  0.31660366053E+03  0.12500000000E+03 0.  0.
</event>
<event>
 5    0  0.5597833E-005  0.3091867E+03  0.7546771E-02  0.1080736E+00
         21   -1    0    0  502  501  0.00000000000E+00  0.00000000000E+00  0.15239670863E+04  0.15239670863E+04  0.00000000000E+00 0.  1.
         21   -1    0    0  501  502 -0.00000000000E+00 -0.00000000000E+00 -0.62728665188E+02  0.62728665188E+02  0.00000000000E+00 0.  1.
         25    1    1    2    0    0  0.42052442510E+02 -0.63258070251E+02  0.76194261867E+03  0.77585536378E+03  0.12500000000E+03 0.  0.
         25    1    1    2    0    0 -0.29796992779E+02 -0.11414008126E+03  0.44068948950E+03  0.47302013179E+03  0.12500000000E+03 0.  0.
         25    1    1    2    0    0 -0.12255449731E+02  0.17739815151E+03  0.25860631295E+03  0.33782025591E+03  0.12500000000E+03 0.  0.
</event>
<event>
 5    0  0.5597833E-005  0.4516532E+03  0.7546771E-02  0.1027230E+00
         21   -1    0    0  502  501  0.00000000000E+00  0.00000000000E+00  0.38490146103E+03  0.38490146103E+03  0.00000000000E+00 0.  1.
         21   -1    0    0  501  502 -0.00000000000E+00 -0.00000000000E+00 -0.52998141132E+03  0.52998141132E+03  0.00000000000E+00 0.  1.
         25    1    1    2    0    0  0.57734102191E+02  0.99606795517E+02  0.29054565473E+01  0.16996523747E+03  0.12500000000E+03 0.  0.
         25    1    1    2    0    0  0.23460237597E+03  0.57588023521E+02 -0.25665409054E+03  0.37396654591E+03  0.12500000000E+03 0.  0.
         25    1    1    2    0    0 -0.29233647816E+03 -0.15719481904E+03  0.10866868370E+03  0.37095108898E+03  0.12500000000E+03 0.  0.
</event>
<event>
 5    0  0.5597833E-005  0.2750150E+03  0.7546771E-02  0.1098443E+00
         21   -1    0    0  502  501  0.00000000000E+00  0.00000000000E+00  0.34869985543E+03  0.34869985543E+03  0.00000000000E+00 0. -1.
         21   -1    0    0  501  502 -0.00000000000E+00 -0.00000000000E+00 -0.21690079050E+03  0.21690079050E+03  0.00000000000E+00 0. -1.
         25    1    1    2    0    0  0.10775328221E+03 -0.52106157887E+02 -0.45631749761E+02  0.17897787043E+03  0.12500000000E+03 0.  0.
         25    1    1    2    0    0 -0.19342088716E+02 -0.43305749930E+02  0.15521695612E+03  0.20485801874E+03  0.12500000000E+03 0.  0.
         25    1    1    2    0    0 -0.88411193498E+02  0.95411907817E+02  0.22213858565E+02  0.18176475676E+03  0.12500000000E+03 0.  0.
</event>
<event>
 5    0  0.5597833E-005  0.2772800E+03  0.7546771E-02  0.1097184E+00
         21   -1    0    0  502  501  0.00000000000E+00  0.00000000000E+00  0.11610436334E+03  0.11610436334E+03  0.00000000000E+00 0.  1.
         21   -1    0    0  501  502 -0.00000000000E+00 -0.00000000000E+00 -0.66219911388E+03  0.66219911388E+03  0.00000000000E+00 0.  1.
         25    1    1    2    0    0 -0.10982869454E+03  0.51124513720E+02 -0.39435320416E+02  0.17848305954E+03  0.12500000000E+03 0.  0.
         25    1    1    2    0    0  0.87812823987E+02  0.22789567962E+00 -0.13544553711E+03  0.20416081288E+03  0.12500000000E+03 0.  0.
         25    1    1    2    0    0  0.22015870549E+02 -0.51352409399E+02 -0.37121389301E+03  0.39565960480E+03  0.12500000000E+03 0.  0.
</event>
<event>
 5    0  0.5597833E-005  0.2797035E+03  0.7546771E-02  0.1095851E+00
         21   -1    0    0  502  501  0.00000000000E+00  0.00000000000E+00  0.46283148926E+03  0.46283148926E+03  0.00000000000E+00 0. -1.
         21   -1    0    0  501  502 -0.00000000000E+00 -0.00000000000E+00 -0.16903358316E+03  0.16903358316E+03  0.00000000000E+00 0. -1.
         25    1    1    2    0    0 -0.73198041596E+02  0.55973377186E+02 -0.38390274301E+01  0.15534062694E+03  0.12500000000E+03 0.  0.
         25    1    1    2    0    0  0.14423235288E+03  0.38381875213E+02  0.19845525912E+03  0.27800293134E+03  0.12500000000E+03 0.  0.
         25    1    1    2    0    0 -0.71034311281E+02 -0.94355252399E+02  0.99181674409E+02  0.19852151413E+03  0.12500000000E+03 0.  0.
</event>
<event>
 5    0  0.5597833E-005  0.4257128E+03  0.7546771E-02  0.1035223E+00
         21   -1    0    0  502  501  0.00000000000E+00  0.00000000000E+00  0.27029911967E+03  0.27029911967E+03  0.00000000000E+00 0.  1.
         21   -1    0    0  501  502 -0.00000000000E+00 -0.00000000000E+00 -0.67048458496E+03  0.67048458496E+03  0.00000000000E+00 0.  1.
         25    1    1    2    0    0  0.21178837383E+03  0.30406896821E+02 -0.75819898461E+02  0.25913809382E+03  0.12500000000E+03 0.  0.
         25    1    1    2    0    0 -0.24086330599E+03 -0.19471164539E+03 -0.33478516834E+03  0.47289942479E+03  0.12500000000E+03 0.  0.
         25    1    1    2    0    0  0.29074932158E+02  0.16430474857E+03  0.10419601509E+02  0.20874618602E+03  0.12500000000E+03 0.  0.
</event>
<event>
 5    0  0.5597833E-005  0.3501400E+03  0.7546771E-02  0.1062558E+00
         21   -1    0    0  502  501  0.00000000000E+00  0.00000000000E+00  0.98176179074E+03  0.98176179074E+03  0.00000000000E+00 0. -1.
         21   -1    0    0  501  502 -0.00000000000E+00 -0.00000000000E+00 -0.12487549251E+03  0.12487549251E+03  0.00000000000E+00 0. -1.
         25    1    1    2    0    0 -0.10627234802E+03 -0.21051401593E+03  0.64973268685E+03  0.70241549472E+03  0.12500000000E+03 0.  0.
         25    1    1    2    0    0  0.65546736417E+02  0.10332398987E+03  0.12963669951E+03  0.21772205997E+03  0.12500000000E+03 0.  0.
         25    1    1    2    0    0  0.40725611600E+02  0.10719002607E+03  0.77516911870E+02  0.18649972856E+03  0.12500000000E+03 0.  0.
</event>
<event>
 5    0  0.5597833E-005  0.2492107E+03  0.7546771E-02  0.1113805E+00
         21   -1    0    0  502  501  0.00000000000E+00  0.00000000000E+00  0.51960768801E+03  0.51960768801E+03  0.00000000000E+00 0.  1.
         21   -1    0    0  501  502 -0.00000000000E+00 -0.00000000000E+00 -0.11952477871E+03  0.11952477871E+03  0.00000000000E+00 0.  1.
         25    1    1    2    0    0 -0.50820779505E+02  0.82503708289E+02  0.20612321851E+03  0.25981030526E+03  0.12500000000E+03 0.  0.
         25    1    1    2    0    0  0.11183834291E+03 -0.11468608994E+02  0.81312507010E+02  0.18675135269E+03  0.12500000000E+03 0.  0.
         25    1    1    2    0    0 -0.61017563404E+02 -0.71035099295E+02  0.11264718378E+03  0.19257080877E+03  0.12500000000E+03 0.  0.
</event>
<event>
 5    0  0.5597833E-005  0.3451259E+03  0.7546771E-02  0.1064634E+00
         21   -1    0    0  502  501  0.00000000000E+00  0.00000000000E+00  0.35006930194E+03  0.35006930194E+03  0.00000000000E+00 0.  1.
         21   -1    0    0  501  502 -0.00000000000E+00 -0.00000000000E+00 -0.34025240151E+03  0.34025240151E+03  0.00000000000E+00 0.  1.
         25    1    1    2    0    0  0.70931854893E+02 -0.77061081224E+02 -0.16411805341E+02  0.16390267122E+03  0.12500000000E+03 0.  0.
         25    1    1    2    0    0  0.56747920415E+02  0.93668733194E+02  0.21117147412E+03  0.26872392810E+03  0.12500000000E+03 0.  0.
         25    1    1    2    0    0 -0.12767977531E+03 -0.16607651970E+02 -0.18494276835E+03  0.25769510413E+03  0.12500000000E+03 0.  0.
</event>
<event>
 5    0  0.5597833E-005  0.2785908E+03  0.7546771E-02  0.1096461E+00
         21   -1    0    0  502  501  0.00000000000E+00  0.00000000000E+00  0.72868106765E+02  0.72868106765E+02  0.00000000000E+00 0. -1.
         21   -1    0    0  501  502 -0.00000000000E+00 -0.00000000000E+00 -0.10651142253E+04  0.10651142253E+04  0.00000000000E+00 0. -1.
         25    1    1    2    0    0  0.30320996306E+02 -0.52059789224E+02 -0.55951300080E+03  0.57646281974E+03  0.12500000000E+03 0.  0.
         25    1    1    2    0    0  0.98468991617E+02  0.25622893573E+02 -0.28560164359E+03  0.32794202812E+03  0.12500000000E+03 0.  0.
         25    1    1    2    0    0 -0.12878998792E+03  0.26436895650E+02 -0.14713147411E+03  0.23357748417E+03  0.12500000000E+03 0.  0.
</event>
<event>
 5    0  0.5597833E-005  0.4980105E+03  0.7546771E-02  0.1014300E+00
         21   -1    0    0  502  501  0.00000000000E+00  0.00000000000E+00  0.14412884568E+03  0.14412884568E+03  0.00000000000E+00 0. -1.
         21   -1    0    0  501  502 -0.00000000000E+00 -0.00000000000E+00 -0.17207830338E+04  0.17207830338E+04  0.00000000000E+00 0. -1.
         25    1    1    2    0    0 -0.61347910470E+02 -0.12212265148E+03 -0.88577205779E+03  0.90492797862E+03  0.12500000000E+03 0.  0.
         25    1    1    2    0    0 -0.17099543367E+03 -0.15677450295E+03 -0.39699310933E+03  0.47649366414E+03  0.12500000000E+03 0.  0.
         25    1    1    2    0    0  0.23234334414E+03  0.27889715443E+03 -0.29388902096E+03  0.48349023667E+03  0.12500000000E+03 0.  0.
</event>
<event>
 5    0  0.5597833E-005  0.3051282E+03  0.7546771E-02  0.1082705E+00
         21   -1    0    0  502  501  0.00000000000E+00  0.00000000000E+00  0.19271454246E+03  0.19271454246E+03  0.00000000000E+00 0. -1.
         21   -1    0    0  501  502 -0.00000000000E+00 -0.00000000000E+00 -0.48311465503E+03  0.48311465503E+03  0.00000000000E+00 0. -1.
         25    1    1    2    0    0 -0.19378926756E+03 -0.16082147837E+02 -0.15494740104E+03  0.27829231536E+03  0.12500000000E+03 0.  0.
         25    1    1    2    0    0  0.18038733817E+03  0.77384372107E+02 -0.69244089133E+02  0.24279142633E+03  0.12500000000E+03 0.  0.
         25    1    1    2    0    0  0.13401929386E+02 -0.61302224270E+02 -0.66208622409E+02  0.15474545581E+03  0.12500000000E+03 0.  0.
</event>
<event>
 5    0  0.5824724E-005  0.3051904E+03  0.7546771E-02  0.1082674E+00
         21   -1    0    0  502  501  0.00000000000E+00  0.00000000000E+00  0.36916709841E+03  0.36916709841E+03  0.00000000000E+00 0.  1.
         21   -1    0    0  501  502 -0.00000000000E+00 -0.00000000000E+00 -0.25230087664E+03  0.25230087664E+03  0.00000000000E+00 0.  1.
         25    1    1    2    0    0 -0.15987388875E+03 -0.98895921768E+02 -0.61312277750E+02  0.23393216763E+03  0.12500000000E+03 0.  0.
         25    1    1    2    0    0  0.58177959885E+02  0.11376595577E+03  0.12121369331E+03  0.21597482991E+03  0.12500000000E+03 0.  0.
         25    1    1    2    0    0  0.10169592887E+03 -0.14870034005E+02  0.56964806215E+02  0.17156097752E+03  0.12500000000E+03 0.  0.
</event>
<event>
 5    0  0.5597833E-005  0.2973267E+03  0.7546771E-02  0.1086585E+00
         21   -1    0    0  502  501  0.00000000000E+00  0.00000000000E+00  0.20305104690E+04  0.20305104690E+04  0.00000000000E+00 0. -1.
         21   -1    0    0  501  502 -0.00000000000E+00 -0.00000000000E+00 -0.43537406172E+02  0.43537406172E+02  0.00000000000E+00 0. -1.
         25    1    1    2    0    0 -0.62388425181E+02 -0.14390723456E+03  0.10647059323E+04  0.10834321991E+04  0.12500000000E+03 0.  0.
         25    1    1    2    0    0  0.85099472407E+02  0.13442928534E+03  0.74713612536E+03  0.77404815275E+03  0.12500000000E+03 0.  0.
         25    1    1    2    0    0 -0.22711047226E+02  0.94779492185E+01  0.17513100515E+03  0.21656752331E+03  0.12500000000E+03 0.  0.
</event>
<event>
 5    0  0.5597833E-005  0.5472736E+03  0.7546771E-02  0.1002127E+00
         21   -1    0    0  502  501  0.00000000000E+00  0.00000000000E+00  0.47035690287E+03  0.47035690287E+03  0.00000000000E+00 0.  1.
         21   -1    0    0  501  502 -0.00000000000E+00 -0.00000000000E+00 -0.63676844828E+03  0.63676844828E+03  0.00000000000E+00 0.  1.
         25    1    1    2    0    0  0.10985247426E+03 -0.14276552984E+03 -0.18564268036E+03  0.28729386938E+03  0.12500000000E+03 0.  0.
         25    1    1    2    0    0 -0.33792388668E+03  0.33552657327E+03 -0.25674966339E+02  0.49300592132E+03  0.12500000000E+03 0.  0.
         25    1    1    2    0    0  0.22807141242E+03 -0.19276104343E+03  0.44906101295E+02  0.32682556045E+03  0.12500000000E+03 0.  0.
</event>
<event>
 5    0  0.5597833E-005  0.4243754E+03  0.7546771E-02  0.1035652E+00
         21   -1    0    0  502  501  0.00000000000E+00  0.00000000000E+00  0.37892487047E+03  0.37892487047E+03  0.00000000000E+00 0.  1.
         21   -1    0    0  501  502 -0.00000000000E+00 -0.00000000000E+00 -0.47527754052E+03  0.47527754052E+03  0.00000000000E+00 0.  1.
         25    1    1    2    0    0  0.25581709562E+03 -0.11075998809E+02  0.14631608826E+03  0.32030994653E+03  0.12500000000E+03 0.  0.
         25    1    1    2    0    0 -0.51484215758E+02 -0.11322210093E+03 -0.18947498978E+03  0.25883516060E+03  0.12500000000E+03 0.  0.
         25    1    1    2    0    0 -0.20433287987E+03  0.12429809974E+03 -0.53193768535E+02  0.27505730385E+03  0.12500000000E+03 0.  0.
</event>
<event>
 5    0  0.5597833E-005  0.6344014E+03  0.7546771E-02  0.9836497E-01
         21   -1    0    0  502  501  0.00000000000E+00  0.00000000000E+00  0.14113991147E+04  0.14113991147E+04  0.00000000000E+00 0.  1.
         21   -1    0    0  501  502 -0.00000000000E+00 -0.00000000000E+00 -0.28515329423E+03  0.28515329423E+03  0.00000000000E+00 0.  1.
         25    1    1    2    0    0 -0.74473863523E+02 -0.32292794990E+03  0.11188817551E+03  0.37144687506E+03  0.12500000000E+03 0.  0.
         25    1    1    2    0    0  0.36679484754E+03  0.10263883582E+03  0.26127051921E+03  0.47849814525E+03  0.12500000000E+03 0.  0.
         25    1    1    2    0    0 -0.29232098402E+03  0.22028911408E+03  0.75308712574E+03  0.84660738860E+03  0.12500000000E+03 0.  0.
</event>
<event>
 5    0  0.5650234E-005  0.3853040E+03  0.7546771E-02  0.1048991E+00
         21   -1    0    0  502  501  0.00000000000E+00  0.00000000000E+00  0.51209758600E+03  0.51209758600E+03  0.00000000000E+00 0. -1.
         21   -1    0    0  501  502 -0.00000000000E+00 -0.00000000000E+00 -0.28990404457E+03  0.28990404457E+03  0.00000000000E+00 0. -1.
         25    1    1    2    0    0 -0.50172837374E+02 -0.13196373025E+03  0.25744733021E+03  0.31911732567E+03  0.12500000000E+03 0.  0.
         25    1    1    2    0    0  0.20788861802E+03  0.13921213857E+03 -0.31744164317E+02  0.28147893171E+03  0.12500000000E+03 0.  0.
         25    1    1    2    0    0 -0.15771578064E+03 -0.72484083199E+01 -0.35096244698E+01  0.20140537319E+03  0.12500000000E+03 0.  0.
</event>
<event>
 5    0  0.5597833E-005  0.2417560E+03  0.7546771E-02  0.1118629E+00
         21   -1    0    0  502  501  0.00000000000E+00  0.00000000000E+00  0.66415431047E+02  0.66415431047E+02  0.00000000000E+00 0. -1.
         21   -1    0    0  501  502 -0.00000000000E+00 -0.00000000000E+00 -0.88000559552E+03  0.88000559552E+03  0.00000000000E+00 0. -1.
         25    1    1    2    0    0 -0.84535213862E+01 -0.12147008547E+03 -0.34794960833E+03  0.38925617994E+03  0.12500000000E+03 0.  0.
         25    1    1    2    0    0  0.33683206605E+02  0.38538408683E+01 -0.23797548733E+03  0.27093678796E+03  0.12500000000E+03 0.  0.
         25    1    1    2    0    0 -0.25229685219E+02  0.11761624460E+03 -0.22766506881E+03  0.28622805867E+03  0.12500000000E+03 0.  0.
</event>
<event>
 5    0  0.5597833E-005  0.2668233E+03  0.7546771E-02  0.1103112E+00
         21   -1    0    0  502  501  0.00000000000E+00  0.00000000000E+00  0.58323234113E+02  0.58323234113E+02  0.00000000000E+00 0.  1.
         21   -1    0    0  501  502 -0.00000000000E+00 -0.00000000000E+00 -0.12206914455E+04  0.12206914455E+04  0.00000000000E+00 0.  1.
         25    1    1    2    0    0 -0.21732653613E+02  0.97239866482E+02 -0.34655954154E+03  0.38164959806E+03  0.12500000000E+03 0.  0.
         25    1    1    2    0    0 -0.62307434304E+02 -0.40883454098E+01 -0.13644830525E+03  0.19529995121E+03  0.12500000000E+03 0.  0.
         25    1    1    2    0    0  0.84040087917E+02 -0.93151521073E+02 -0.67936036462E+03  0.70206513036E+03  0.12500000000E+03 0.  0.
</event>
<event>
 5    0  0.5597833E-005  0.3790516E+03  0.7546771E-02  0.1051285E+00
         21   -1    0    0  502  501  0.00000000000E+00  0.00000000000E+00  0.86030339947E+02  0.86030339947E+02  0.00000000000E+00 0. -1.
         21   -1    0    0  501  502 -0.00000000000E+00 -0.00000000000E+00 -0.16701100549E+04  0.16701100549E+04  0.00000000000E+00 0. -1.
         25    1    1    2    0    0  0.28011352262E+02 -0.28722140065E+02 -0.21120904023E+03  0.24868424932E+03  0.12500000000E+03 0.  0.
         25    1    1    2    0    0 -0.26735073700E+03  0.14453364824E+03 -0.70615188155E+03  0.77887217942E+03  0.12500000000E+03 0.  0.
         25    1    1    2    0    0  0.23933938474E+03 -0.11581150818E+03 -0.66671879322E+03  0.72858396616E+03  0.12500000000E+03 0.  0.
</event>
<event>
 5    0  0.5597833E-005  0.4037203E+03  0.7546771E-02  0.1042499E+00
         21   -1    0    0  502  501  0.00000000000E+00  0.00000000000E+00  0.25181092678E+03  0.25181092678E+03  0.00000000000E+00 0.  1.
         21   -1    0    0  501  502 -0.00000000000E+00 -0.00000000000E+00 -0.64727170787E+03  0.64727170787E+03  0.00000000000E+00 0.  1.
         25    1    1    2    0    0 -0.12176892873E+02 -0.10639527045E+03  0.92965269176E+02  0.18903907418E+03  0.12500000000E+03 0.  0.
         25    1    1    2    0    0  0.12965057490E+03 -0.12757074344E+03 -0.16495265427E+03  0.27553211120E+03  0.12500000000E+03 0.  0.
         25    1    1    2    0    0 -0.11747368203E+03  0.23396601389E+03 -0.32347339600E+03  0.43451144926E+03  0.12500000000E+03 0.  0.
</event>
<event>
 5    0  0.5597833E-005  0.2222823E+03  0.7546771E-02  0.1132193E+00
         21   -1    0    0  502  501  0.00000000000E+00  0.00000000000E+00  0.51557630690E+03  0.51557630690E+03  0.00000000000E+00 0. -1.
         21   -1    0    0  501  502 -0.00000000000E+00 -0.00000000000E+00 -0.95833409454E+02  0.95833409454E+02  0.00000000000E+00 0. -1.
         25    1    1    2    0    0 -0.32853834988E+01  0.29898303855E+02  0.45010813703E+02  0.13621921916E+03  0.12500000000E+03 0.  0.
         25    1    1    2    0    0  0.27136341736E+02 -0.81342862715E+02  0.23231063363E+03  0.27739191202E+03  0.12500000000E+03 0.  0.
         25    1    1    2    0    0 -0.23850958237E+02  0.51444558859E+02  0.14242145012E+03  0.19779858518E+03  0.12500000000E+03 0.  0.
</event>
<event>
 5    0  0.5597833E-005  0.7521298E+03  0.7546771E-02  0.9632015E-01
         21   -1    0    0  502  501  0.00000000000E+00  0.00000000000E+00  0.23909972120E+04  0.23909972120E+04  0.00000000000E+00 0. -1.
         21   -1    0    0  501  502 -0.00000000000E+00 -0.00000000000E+00 -0.23659551675E+03  0.23659551675E+03  0.00000000000E+00 0. -1.
         25    1    1    2    0    0 -0.21273938824E+03  0.29602953275E+03  0.43843076128E+03  0.58372773106E+03  0.12500000000E+03 0.  0.
         25    1    1    2    0    0 -0.13298545304E+03  0.18665485967E+03  0.43393763176E+02  0.26463783940E+03  0.12500000000E+03 0.  0.
         25    1    1    2    0    0  0.34572484127E+03 -0.48268439242E+03  0.16725771708E+04  0.17792271583E+04  0.12500000000E+03 0.  0.
</event>
<event>
 5    0  0.5597833E-005  0.3800848E+03  0.7546771E-02  0.1050902E+00
         21   -1    0    0  502  501  0.00000000000E+00  0.00000000000E+00  0.61799061734E+03  0.61799061734E+03  0.00000000000E+00 0. -1.
         21   -1    0    0  501  502 -0.00000000000E+00 -0.00000000000E+00 -0.23376479762E+03  0.23376479762E+03  0.00000000000E+00 0. -1.
         25    1    1    2    0    0 -0.12033006139E+02 -0.26192051118E+03  0.16239986834E+03  0.33278501266E+03  0.12500000000E+03 0.  0.
         25    1    1    2    0    0 -0.12916328783E+03  0.19146292117E+03  0.86868132503E+02  0.27660852762E+03  0.12500000000E+03 0.  0.
         25    1    1    2    0    0  0.14119629397E+03  0.70457590008E+02  0.13495781888E+03  0.24236187468E+03  0.12500000000E+03 0.  0.
</event>
<event>
 5    0  0.5597833E-005  0.3771019E+03  0.7546771E-02  0.1052010E+00
         21   -1    0    0  502  501  0.00000000000E+00  0.00000000000E+00  0.54292375789E+03  0.54292375789E+03  0.00000000000E+00 0.  1.
         21   -1    0    0  501  502 -0.00000000000E+00 -0.00000000000E+00 -0.26192597601E+03  0.26192597601E+03  0.00000000000E+00 0.  1.
         25    1    1    2    0    0 -0.14375157427E+03  0.19368907264E+02  0.39391262420E+03  0.43798610158E+03  0.12500000000E+03 0.  0.
         25    1    1    2    0    0 -0.31721876440E+02 -0.52599446577E+01 -0.15491314410E+02  0.12999586641E+03  0.12500000000E+03 0.  0.
         25    1    1    2    0    0  0.17547345071E+03 -0.14108962606E+02 -0.97423527910E+02  0.23686776590E+03  0.12500000000E+03 0.  0.
</event>
<event>
 5    0  0.5597833E-005  0.4690624E+03  0.7546771E-02  0.1022185E+00
         21   -1    0    0  502  501  0.00000000000E+00  0.00000000000E+00  0.11017304522E+03  0.11017304522E+03  0.00000000000E+00 0.  1.
         21   -1    0    0  501  502 -0.00000000000E+00 -0.00000000000E+00 -0.19970362407E+04  0.19970362407E+04  0.00000000000E+00 0.  1.
         25    1    1    2    0    0 -0.37897168437E+03  0.15895887439E+03 -0.78108607129E+03  0.89140782589E+03  0.12500000000E+03 0.  0.
         25    1    1    2    0    0  0.22921348892E+03 -0.16674268466E+03 -0.70136700286E+03  0.76673503838E+03  0.12500000000E+03 0.  0.
         25    1    1    2    0    0  0.14975819545E+03  0.77838102690E+01 -0.40441012129E+03  0.44906642160E+03  0.12500000000E+03 0.  0.
</event>
<event>
 5    0  0.5597833E-005  0.3428595E+03  0.7546771E-02  0.1065585E+00
         21   -1    0    0  502  501  0.00000000000E+00  0.00000000000E+00  0.17232140619E+03  0.17232140619E+03  0.00000000000E+00 0.  1.
         21   -1    0    0  501  502 -0.00000000000E+00 -0.00000000000E+00 -0.68217095657E+03  0.68217095657E+03  0.00000000000E+00 0.  1.
         25    1    1    2    0    0  0.99335540901E+02 -0.60773766223E+02 -0.11439010132E+02  0.17122164378E+03  0.12500000000E+03 0.  0.
         25    1    1    2    0    0 -0.16323722882E+03  0.14494023536E+03 -0.44484654901E+03  0.51104551349E+03  0.12500000000E+03 0.  0.
         25    1    1    2    0    0  0.63901687918E+02 -0.84166469138E+02 -0.53563991243E+02  0.17222520548E+03  0.12500000000E+03 0.  0.
</event>
<event>
 5    0  0.7438037E-005  0.2952740E+03  0.7546771E-02  0.1087627E+00
         21   -1    0    0  502  501  0.00000000000E+00  0.00000000000E+00  0.70798473283E+03  0.70798473283E+03  0.00000000000E+00 0.  1.
         21   -1    0    0  501  502 -0.00000000000E+00 -0.00000000000E+00 -0.12314773271E+03  0.12314773271E+03  0.00000000000E+00 0.  1.
         25    1    1    2    0    0  0.85017457815E+02  0.12019468877E+03  0.49043937334E+02  0.19926123338E+03  0.12500000000E+03 0.  0.
         25    1    1    2    0    0 -0.87926711840E+02 -0.12271395399E+03  0.23429473484E+03  0.30546496352E+03  0.12500000000E+03 0.  0.
         25    1    1    2    0    0  0.29092540251E+01  0.25192652279E+01  0.30149832794E+03  0.32640626864E+03  0.12500000000E+03 0.  0.
</event>
<event>
 5    0  0.5597833E-005  0.3242868E+03  0.7546771E-02  0.1073693E+00
         21   -1    0    0  502  501  0.00000000000E+00  0.00000000000E+00  0.18457846636E+04  0.18457846636E+04  0.00000000000E+00 0. -1.
         21   -1    0    0  501  502 -0.00000000000E+00 -0.00000000000E+00 -0.56974094552E+02  0.56974094552E+02  0.00000000000E+00 0. -1.
         25    1    1    2    0    0 -0.12719514926E+03 -0.57351994463E+02  0.23445758876E+03  0.30010534516E+03  0.12500000000E+03 0.  0.
         25    1    1    2    0    0 -0.51994426942E+02  0.38496754917E+02  0.32915910518E+03  0.35798901812E+03  0.12500000000E+03 0.  0.
         25    1    1    2    0    0  0.17918957620E+03  0.18855239546E+02  0.12251938751E+04  0.12446643949E+04  0.12500000000E+03 0.  0.
</event>
<event>
 5    0  0.5597833E-005  0.2086957E+03  0.7546771E-02  0.1142603E+00
         21   -1    0    0  502  501  0.00000000000E+00  0.00000000000E+00  0.17798997541E+03  0.17798997541E+03  0.00000000000E+00 0.  1.
         21   -1    0    0  501  502 -0.00000000000E+00 -0.00000000000E+00 -0.24469855456E+03  0.24469855456E+03  0.00000000000E+00 0.  1.
         25    1    1    2    0    0  0.47415381149E+01 -0.35475151063E+02 -0.19737042917E+02  0.13151243055E+03  0.12500000000E+03 0.  0.
         25    1    1    2    0    0  0.60169110179E+02  0.45560812644E+02 -0.28348614456E+02  0.14874391890E+03  0.12500000000E+03 0.  0.
         25    1    1    2    0    0 -0.64910648294E+02 -0.10085661581E+02 -0.18622921770E+02  0.14243218052E+03  0.12500000000E+03 0.  0.
</event>
<event>
 5    0  0.5597833E-005  0.2147795E+03  0.7546771E-02  0.1137836E+00
         21   -1    0    0  502  501  0.00000000000E+00  0.00000000000E+00  0.17115529836E+03  0.17115529836E+03  0.00000000000E+00 0.  1.
         21   -1    0    0  501  502 -0.00000000000E+00 -0.00000000000E+00 -0.26952273650E+03  0.26952273650E+03  0.00000000000E+00 0.  1.
         25    1    1    2    0    0  0.62673011892E+01 -0.29482143772E+02 -0.13053830592E+03  0.18323134333E+03  0.12500000000E+03 0.  0.
         25    1    1    2    0    0  0.11574956842E+02  0.27235099326E+02  0.67900783723E+01  0.12863450325E+03  0.12500000000E+03 0.  0.
         25    1    1    2    0    0 -0.17842258031E+02  0.22470444459E+01  0.25380789411E+02  0.12881218829E+03  0.12500000000E+03 0.  0.
</event>
<event>
 5    0  0.5597833E-005  0.3320733E+03  0.7546771E-02  0.1070223E+00
         21   -1    0    0  502  501  0.00000000000E+00  0.00000000000E+00  0.11055082082E+03  0.11055082082E+03  0.00000000000E+00 0.  1.
         21   -1    0    0  501  502 -0.00000000000E+00 -0.00000000000E+00 -0.99748431379E+03  0.99748431379E+03  0.00000000000E+00 0.  1.
         25    1    1    2    0    0 -0.19204371124E+03  0.12624051309E+03 -0.21592181123E+03  0.33921185524E+03  0.12500000000E+03 0.  0.
         25    1    1    2    0    0  0.64660000467E+02 -0.47356706984E+02 -0.14398243015E+03  0.20683209023E+03  0.12500000000E+03 0.  0.
         25    1    1    2    0    0  0.12738371077E+03 -0.78883806106E+02 -0.52702925159E+03  0.56199118914E+03  0.12500000000E+03 0.  0.
</event>
<event>
 5    0  0.5597833E-005  0.2304500E+03  0.7546771E-02  0.1126323E+00
         21   -1    0    0  502  501  0.00000000000E+00  0.00000000000E+00  0.50774240850E+02  0.50774240850E+02  0.00000000000E+00 0.  1.
         21   -1    0    0  501  502 -0.00000000000E+00 -0.00000000000E+00 -0.10459481719E+04  0.10459481719E+04  0.00000000000E+00 0.  1.
         25    1    1    2    0    0 -0.84304910024E+02  0.56461620897E+02 -0.26317754240E+03  0.30851685742E+03  0.12500000000E+03 0.  0.
         25    1    1    2    0    0  0.23232051806E+02 -0.36092421769E+02 -0.21449850725E+03  0.25194642437E+03  0.12500000000E+03 0.  0.
         25    1    1    2    0    0  0.61072858218E+02 -0.20369199129E+02 -0.51749788139E+03  0.53625913095E+03  0.12500000000E+03 0.  0.
</event>
<event>
 5    0  0.5597833E-005  0.2019893E+03  0.7546771E-02  0.1148071E+00
         21   -1    0    0  502  501  0.00000000000E+00  0.00000000000E+00  0.74122919781E+02  0.74122919781E+02  0.00000000000E+00 0. -1.
         21   -1    0    0  501  502 -0.00000000000E+00 -0.00000000000E+00 -0.55043251973E+03  0.55043251973E+03  0.00000000000E+00 0. -1.
         25    1    1    2    0    0 -0.60357543545E+02 -0.25783653428E+02 -0.14373388399E+03  0.20147520754E+03  0.12500000000E+03 0.  0.
         25    1    1    2    0    0  0.33757736294E+02 -0.49865843099E+01 -0.17804336832E+03  0.22020193411E+03  0.12500000000E+03 0.  0.
         25    1    1    2    0    0  0.26599807252E+02  0.30770237738E+02 -0.15453234764E+03  0.20287829786E+03  0.12500000000E+03 0.  0.
</event>
<event>
 5    0  0.5597833E-005  0.2968712E+03  0.7546771E-02  0.1086815E+00
         21   -1    0    0  502  501  0.00000000000E+00  0.00000000000E+00  0.95227742256E+02  0.95227742256E+02  0.00000000000E+00 0. -1.
         21   -1    0    0  501  502 -0.00000000000E+00 -0.00000000000E+00 -0.92549181420E+03  0.92549181420E+03  0.00000000000E+00 0. -1.
         25    1    1    2    0    0 -0.56204403493E+02  0.56994372900E+02 -0.38209083162E+03  0.40990937672E+03  0.12500000000E+03 0.  0.
         25    1    1    2    0    0  0.13549108168E+03  0.90553671886E+02 -0.20545763937E+03  0.29050928089E+03  0.12500000000E+03 0.  0.
         25    1    1    2    0    0 -0.79286678184E+02 -0.14754804479E+03 -0.24271560095E+03  0.32030089885E+03  0.12500000000E+03 0.  0.
</event>
<event>
 5    0  0.5597833E-005  0.2551248E+03  0.7546771E-02  0.1110108E+00
         21   -1    0    0  502  501  0.00000000000E+00  0.00000000000E+00  0.25338586276E+04  0.25338586276E+04  0.00000000000E+00 0. -1.
         21   -1    0    0  501  502 -0.00000000000E+00 -0.00000000000E+00 -0.25687565330E+02  0.25687565330E+02  0.00000000000E+00 0. -1.
         25    1    1    2    0    0 -0.82677402496E+02  0.27523929905E+02  0.16019808734E+04  0.16092112473E+04  0.12500000000E+03 0.  0.
         25    1    1    2    0    0  0.35360188087E+02  0.38445399215E+02  0.37927049975E+03  0.40273999503E+03  0.12500000000E+03 0.  0.
         25    1    1    2    0    0  0.47317214408E+02 -0.65969329121E+02  0.52691968913E+03  0.54759495063E+03  0.12500000000E+03 0.  0.
</event>
<event>
 5    0  0.5597833E-005  0.3164864E+03  0.7546771E-02  0.1077278E+00
         21   -1    0    0  502  501  0.00000000000E+00  0.00000000000E+00  0.82917782919E+03  0.82917782919E+03  0.00000000000E+00 0.  1.
         21   -1    0    0  501  502 -0.00000000000E+00 -0.00000000000E+00 -0.12079876495E+03  0.12079876495E+03  0.00000000000E+00 0.  1.
         25    1    1    2    0    0  0.97095700322E+02 -0.19087427070E+02  0.23993054478E+03  0.28806869183E+03  0.12500000000E+03 0.  0.
         25    1    1    2    0    0  0.31027570158E+02 -0.15332825757E+03  0.30354826006E+03  0.36364654661E+03  0.12500000000E+03 0.  0.
         25    1    1    2    0    0 -0.12812327048E+03  0.17241568464E+03  0.16490025941E+03  0.29826135570E+03  0.12500000000E+03 0.  0.
</event>
<event>
 5    0  0.5597833E-005  0.5084842E+03  0.7546771E-02  0.1011588E+00
         21   -1    0    0  502  501  0.00000000000E+00  0.00000000000E+00  0.53999734991E+03  0.53999734991E+03  0.00000000000E+00 0. -1.
         21   -1    0    0  501  502 -0.00000000000E+00 -0.00000000000E+00 -0.47881015680E+03  0.47881015680E+03  0.00000000000E+00 0. -1.
         25    1    1    2    0    0  0.19497647718E+03  0.60951709741E+01 -0.54626783353E+01  0.23174947383E+03  0.12500000000E+03 0.  0.
         25    1    1    2    0    0  0.69642295865E+02  0.26774377998E+03  0.20129162560E+03  0.36425279632E+03  0.12500000000E+03 0.  0.
         25    1    1    2    0    0 -0.26461877305E+03 -0.27383895095E+03 -0.13464175415E+03  0.42280523657E+03  0.12500000000E+03 0.  0.
</event>
<event>
 5    0  0.5597833E-005  0.2707995E+03  0.7546771E-02  0.1100823E+00
         21   -1    0    0  502  501  0.00000000000E+00  0.00000000000E+00  0.24386180893E+02  0.24386180893E+02  0.00000000000E+00 0. -1.
         21   -1    0    0  501  502 -0.00000000000E+00 -0.00000000000E+00 -0.30071274439E+04  0.30071274439E+04  0.00000000000E+00 0. -1.
         25    1    1    2    0    0  0.72728998090E+02 -0.35272994262E+02 -0.12026655262E+04  0.12118428360E+04  0.12500000000E+03 0.  0.
         25    1    1    2    0    0  0.90943438380E+01 -0.10995647469E+03 -0.89543410528E+03  0.91082400623E+03  0.12500000000E+03 0.  0.
         25    1    1    2    0    0 -0.81823341928E+02  0.14522946895E+03 -0.88464163162E+03  0.90884678265E+03  0.12500000000E+03 0.  0.
</event>
<event>
 5    0  0.5597833E-005  0.3623706E+03  0.7546771E-02  0.1057649E+00
         21   -1    0    0  502  501  0.00000000000E+00  0.00000000000E+00  0.11512597043E+03  0.11512597043E+03  0.00000000000E+00 0.  1.
         21   -1    0    0  501  502 -0.00000000000E+00 -0.00000000000E+00 -0.11405980833E+04  0.11405980833E+04  0.00000000000E+00 0.  1.
         25    1    1    2    0    0 -0.31309498509E+02  0.45600579924E+02  0.11845587422E+02  0.13720428393E+03  0.12500000000E+03 0.  0.
         25    1    1    2    0    0 -0.50139030117E+02  0.65305025796E+02 -0.81541119228E+03  0.82903503016E+03  0.12500000000E+03 0.  0.
         25    1    1    2    0    0  0.81448528626E+02 -0.11090560572E+03 -0.22190650806E+03  0.28948473969E+03  0.12500000000E+03 0.  0.
</event>
<event>
 5    0  0.5597833E-005  0.3092382E+03  0.7546771E-02  0.1080712E+00
         21   -1    0    0  502  501  0.00000000000E+00  0.00000000000E+00  0.42713931860E+03  0.42713931860E+03  0.00000000000E+00 0.  1.
         21   -1    0    0  501  502 -0.00000000000E+00 -0.00000000000E+00 -0.22388072201E+03  0.22388072201E+03  0.00000000000E+00 0.  1.
         25    1    1    2    0    0  0.12639712270E+03  0.86947278485E+02  0.81854751819E+02  0.21415242763E+03  0.12500000000E+03 0.  0.
         25    1    1    2    0    0 -0.98024495544E+02  0.49965782412E+02 -0.58968936107E+02  0.17665705920E+03  0.12500000000E+03 0.  0.
         25    1    1    2    0    0 -0.28372627160E+02 -0.13691306090E+03  0.18037278088E+03  0.26021055378E+03  0.12500000000E+03 0.  0.
</event>
<event>
 5    0  0.5597833E-005  0.2946877E+03  0.7546771E-02  0.1087927E+00
         21   -1    0    0  502  501  0.00000000000E+00  0.00000000000E+00  0.87047463420E+02  0.87047463420E+02  0.00000000000E+00 0. -1.
         21   -1    0    0  501  502 -0.00000000000E+00 -0.00000000000E+00 -0.99762598449E+03  0.99762598449E+03  0.00000000000E+00 0. -1.
         25    1    1    2    0    0  0.51398244931E+02  0.52800092683E+02 -0.56153848107E+03  0.57998284035E+03  0.12500000000E+03 0.  0.
         25    1    1    2    0    0 -0.74760566763E+02  0.89901087134E+02 -0.13718299746E+03  0.21935250763E+03  0.12500000000E+03 0.  0.
         25    1    1    2    0    0  0.23362321832E+02 -0.14270117982E+03 -0.21185704254E+03  0.28533809994E+03  0.12500000000E+03 0.  0.
</event>
<event>
 5    0  0.5597833E-005  0.4241788E+03  0.7546771E-02  0.1035715E+00
         21   -1    0    0  502  501  0.00000000000E+00  0.00000000000E+00  0.10872402496E+04  0.10872402496E+04  0.00000000000E+00 0. -1.
         21   -1    0    0  501  502 -0.00000000000E+00 -0.00000000000E+00 -0.16549021967E+03  0.16549021967E+03  0.00000000000E+00 0. -1.
         25    1    1    2    0    0 -0.19530936937E+03  0.30035714079E+03  0.36428574026E+03  0.52601260664E+03  0.12500000000E+03 0.  0.
         25    1    1    2    0    0  0.52210389219E+02 -0.20890896629E+03  0.24160887361E+03  0.34694196740E+03  0.12500000000E+03 0.  0.
         25    1    1    2    0    0  0.14309898015E+03 -0.91448174507E+02  0.31585541611E+03  0.37977589527E+03  0.12500000000E+03 0.  0.
</event>
<event>
 5    0  0.5597833E-005  0.2087415E+03  0.7546771E-02  0.1142567E+00
         21   -1    0    0  502  501  0.00000000000E+00  0.00000000000E+00  0.45127586127E+03  0.45127586127E+03  0.00000000000E+00 0. -1.
         21   -1    0    0  501  502 -0.00000000000E+00 -0.00000000000E+00 -0.96555120145E+02  0.96555120145E+02  0.00000000000E+00 0. -1.
         25    1    1    2    0    0  0.50595234046E+01  0.14875337514E+02  0.30193566156E+02  0.12955124809E+03  0.12500000000E+03 0.  0.
         25    1    1    2    0    0  0.11111802074E+02  0.28082069017E+02  0.13292521056E+03  0.18494914531E+03  0.12500000000E+03 0.  0.
         25    1    1    2    0    0 -0.16171325478E+02 -0.42957406531E+02  0.19160196440E+03  0.23333058802E+03  0.12500000000E+03 0.  0.
</event>
<event>
 5    0  0.5597833E-005  0.2783513E+03  0.7546771E-02  0.1096593E+00
         21   -1    0    0  502  501  0.00000000000E+00  0.00000000000E+00  0.16499824438E+03  0.16499824438E+03  0.00000000000E+00 0.  1.
         21   -1    0    0  501  502 -0.00000000000E+00 -0.00000000000E+00 -0.46957751685E+03  0.46957751685E+03  0.00000000000E+00 0.  1.
         25    1    1    2    0    0  0.33928583671E+01  0.38741954987E+01 -0.61550549711E+02  0.13942736836E+03  0.12500000000E+03 0.  0.
         25    1    1    2    0    0 -0.17577176502E+03 -0.19547561167E+02 -0.14177132544E+03  0.25884730874E+03  0.12500000000E+03 0.  0.
         25    1    1    2    0    0  0.17237890665E+03  0.15673365668E+02 -0.10125739731E+03  0.23630108413E+03  0.12500000000E+03 0.  0.
</event>
<event>
 5    0  0.5597833E-005  0.3756929E+03  0.7546771E-02  0.1052537E+00
         21   -1    0    0  502  501  0.00000000000E+00  0.00000000000E+00  0.11444548186E+03  0.11444548186E+03  0.00000000000E+00 0. -1.
         21   -1    0    0  501  502 -0.00000000000E+00 -0.00000000000E+00 -0.12332958337E+04  0.12332958337E+04  0.00000000000E+00 0. -1.
         25    1    1    2    0    0 -0.82572753358E+02  0.23901972699E+03 -0.48169086805E+03  0.55821123408E+03  0.12500000000E+03 0.  0.
         25    1    1    2    0    0  0.10281261228E+03 -0.94099117340E+02 -0.86545433780E+02  0.20625273146E+03  0.12500000000E+03 0.  0.
         25    1    1    2    0    0 -0.20239858918E+02 -0.14492060965E+03 -0.55061405005E+03  0.58327735007E+03  0.12500000000E+03 0.  0.
</event>
<event>
 5    0  0.5597833E-005  0.3397223E+03  0.7546771E-02  0.1066914E+00
         21   -1    0    0  502  501  0.00000000000E+00  0.00000000000E+00  0.74847839570E+02  0.74847839570E+02  0.00000000000E+00 0. -1.
         21   -1    0    0  501  502 -0.00000000000E+00 -0.00000000000E+00 -0.15419446138E+04  0.15419446138E+04  0.00000000000E+00 0. -1.
         25    1    1    2    0    0 -0.23981256574E+02  0.85727151468E+02 -0.44076376102E+03  0.46671397900E+03  0.12500000000E+03 0.  0.
         25    1    1    2    0    0 -0.20614980083E+03 -0.23813089498E+02 -0.38912157137E+03  0.45837255690E+03  0.12500000000E+03 0.  0.
         25    1    1    2    0    0  0.23013105740E+03 -0.61914061970E+02 -0.63721144186E+03  0.69170591749E+03  0.12500000000E+03 0.  0.
</event>
<event>
 5    0  0.5597833E-005  0.2618705E+03  0.7546771E-02  0.1106025E+00
         21   -1    0    0  502  501  0.00000000000E+00  0.00000000000E+00  0.27134430715E+03  0.27134430715E+03  0.00000000000E+00 0.  1.
         21   -1    0    0  501  502 -0.00000000000E+00 -0.00000000000E+00 -0.25272746146E+03  0.25272746146E+03  0.00000000000E+00 0.  1.
         25    1    1    2    0    0 -0.35050826137E+02 -0.43279136008E+02  0.54396789775E+02  0.14726049967E+03  0.12500000000E+03 0.  0.
         25    1    1    2    0    0 -0.48259236900E+02 -0.81989043161E+02 -0.79992476875E+02  0.17628089375E+03  0.12500000000E+03 0.  0.
         25    1    1    2    0    0  0.83310063037E+02  0.12526817917E+03  0.44212532788E+02  0.20053037518E+03  0.12500000000E+03 0.  0.
</event>
<event>
 5    0  0.5597833E-005  0.2149497E+03  0.7546771E-02  0.1137705E+00
         21   -1    0    0  502  501  0.00000000000E+00  0.00000000000E+00  0.76120639696E+02  0.76120639696E+02  0.00000000000E+00 0.  1.
         21   -1    0    0  501  502 -0.00000000000E+00 -0.00000000000E+00 -0.60697584694E+03  0.60697584694E+03  0.00000000000E+00 0.  1.
         25    1    1    2    0    0  0.38054210284E+02 -0.35608035306E+01 -0.15075271253E+03  0.19952990397E+03  0.12500000000E+03 0.  0.
         25    1    1    2    0    0 -0.40836539638E+02  0.48209381446E+02 -0.95497849034E+02  0.16951874999E+03  0.12500000000E+03 0.  0.
         25    1    1    2    0    0  0.27823293542E+01 -0.44648577916E+02 -0.28460464568E+03  0.31404783268E+03  0.12500000000E+03 0.  0.
</event>
<event>
 5    0  0.5597833E-005  0.4024722E+03  0.7546771E-02  0.1042927E+00
         21   -1    0    0  502  501  0.00000000000E+00  0.00000000000E+00  0.23477930804E+03  0.23477930804E+03  0.00000000000E+00 0.  1.
         21   -1    0    0  501  502 -0.00000000000E+00 -0.00000000000E+00 -0.68994101301E+03  0.68994101301E+03  0.00000000000E+00 0.  1.
         25    1    1    2    0    0 -0.51950273983E+02 -0.12024027383E+03 -0.17516540225E+03  0.25192156034E+03  0.12500000000E+03 0.  0.
         25    1    1    2    0    0  0.77376094913E+01  0.32421622207E+03 -0.24899329554E+03  0.42754963510E+03  0.12500000000E+03 0.  0.
         25    1    1    2    0    0  0.44212664491E+02 -0.20397594823E+03 -0.31003007178E+02  0.24524912561E+03  0.12500000000E+03 0.  0.
</event>
<event>
 5    0  0.5597833E-005  0.3700385E+03  0.7546771E-02  0.1054678E+00
         21   -1    0    0  502  501  0.00000000000E+00  0.00000000000E+00  0.52443432515E+03  0.52443432515E+03  0.00000000000E+00 0.  1.
         21   -1    0    0  501  502 -0.00000000000E+00 -0.00000000000E+00 -0.26109754768E+03  0.26109754768E+03  0.00000000000E+00 0.  1.
         25    1    1    2    0    0 -0.11963072551E+03 -0.13415539410E+03  0.14262419447E+03  0.26129646209E+03  0.12500000000E+03 0.  0.
         25    1    1    2    0    0 -0.10972243224E+03 -0.17720118428E+02 -0.53308762533E+02  0.17555579995E+03  0.12500000000E+03 0.  0.
         25    1    1    2    0    0  0.22935315776E+03  0.15187551253E+03  0.17402134552E+03  0.34867961078E+03  0.12500000000E+03 0.  0.
</event>
<event>
 5    0  0.5597833E-005  0.3191358E+03  0.7546771E-02  0.1076048E+00
         21   -1    0    0  502  501  0.00000000000E+00  0.00000000000E+00  0.11758602229E+04  0.11758602229E+04  0.00000000000E+00 0. -1.
         21   -1    0    0  501  502 -0.00000000000E+00 -0.00000000000E+00 -0.86615468917E+02  0.86615468917E+02  0.00000000000E+00 0. -1.
         25    1    1    2    0    0  0.19255352675E+02 -0.17906496093E+03  0.47536694058E+03  0.52348233689E+03  0.12500000000E+03 0.  0.
         25    1    1    2    0    0 -0.92312938679E+02 -0.14402819903E+02  0.15267423149E+03  0.21831981318E+03  0.12500000000E+03 0.  0.
         25    1    1    2    0    0  0.73057586004E+02  0.19346778084E+03  0.46120358189E+03  0.52067354172E+03  0.12500000000E+03 0.  0.
</event>
<event>
 5    0  0.5597833E-005  0.4825677E+03  0.7546771E-02  0.1018432E+00
         21   -1    0    0  502  501  0.00000000000E+00  0.00000000000E+00  0.37418153206E+03  0.37418153206E+03  0.00000000000E+00 0. -1.
         21   -1    0    0  501  502 -0.00000000000E+00 -0.00000000000E+00 -0.62234915039E+03  0.62234915039E+03  0.00000000000E+00 0. -1.
         25    1    1    2    0    0  0.29601784041E+03 -0.92214148679E+02 -0.19327665044E+03  0.38614877271E+03  0.12500000000E+03 0.  0.
         25    1    1    2    0    0  0.30849766532E+02 -0.10851801940E+01  0.14725831749E+03  0.19560904320E+03  0.12500000000E+03 0.  0.
         25    1    1    2    0    0 -0.32686760694E+03  0.93299328873E+02 -0.20214928539E+03  0.41477286654E+03  0.12500000000E+03 0.  0.
</event>
<event>
 5    0  0.5767190E-005  0.3688209E+03  0.7546771E-02  0.1055145E+00
         21   -1    0    0  502  501  0.00000000000E+00  0.00000000000E+00  0.22465948951E+03  0.22465948951E+03  0.00000000000E+00 0.  1.
         21   -1    0    0  501  502 -0.00000000000E+00 -0.00000000000E+00 -0.60548901476E+03  0.60548901476E+03  0.00000000000E+00 0. -1.
         25    1    1    2    0    0 -0.11756611634E+03  0.42473520598E+02  0.13230644895E+03  0.22080712872E+03  0.12500000000E+03 0.  0.
         25    1    1    2    0    0  0.10925674645E+03 -0.80787038785E+02 -0.21313367180E+03  0.28198323414E+03  0.12500000000E+03 0.  0.
         25    1    1    2    0    0  0.83093698823E+01  0.38313518187E+02 -0.30000230240E+03  0.32735814141E+03  0.12500000000E+03 0.  0.
</event>
<event>
 5    0  0.5597833E-005  0.2906321E+03  0.7546771E-02  0.1090020E+00
         21   -1    0    0  502  501  0.00000000000E+00  0.00000000000E+00  0.19183736163E+03  0.19183736163E+03  0.00000000000E+00 0. -1.
         21   -1    0    0  501  502 -0.00000000000E+00 -0.00000000000E+00 -0.44030550104E+03  0.44030550104E+03  0.00000000000E+00 0. -1.
         25    1    1    2    0    0  0.14336931047E+03  0.43448163724E+02 -0.11892000134E+03  0.22849391422E+03  0.12500000000E+03 0.  0.
         25    1    1    2    0    0 -0.48626417194E+02 -0.12183360898E+03 -0.13851250318E+03  0.22807601861E+03  0.12500000000E+03 0.  0.
         25    1    1    2    0    0 -0.94742893276E+02  0.78385445252E+02  0.89643651198E+01  0.17557292985E+03  0.12500000000E+03 0.  0.
</event>
<event>
 5    0  0.5597833E-005  0.3923896E+03  0.7546771E-02  0.1046447E+00
         21   -1    0    0  502  501  0.00000000000E+00  0.00000000000E+00  0.87194960000E+03  0.87194960000E+03  0.00000000000E+00 0. -1.
         21   -1    0    0  501  502 -0.00000000000E+00 -0.00000000000E+00 -0.17658087465E+03  0.17658087465E+03  0.00000000000E+00 0. -1.
         25    1    1    2    0    0  0.26790897343E+03  0.12120423264E+03  0.98300354312E+02  0.33429574288E+03  0.12500000000E+03 0.  0.
         25    1    1    2    0    0 -0.94455153615E+02 -0.72435696087E+02  0.25636858197E+03  0.30906076414E+03  0.12500000000E+03 0.  0.
         25    1    1    2    0    0 -0.17345381981E+03 -0.48768536551E+02  0.34069978907E+03  0.40517396762E+03  0.12500000000E+03 0.  0.
</event>
<event>
 5    0  0.5597833E-005  0.4183554E+03  0.7546771E-02  0.1037603E+00
         21   -1    0    0  502  501  0.00000000000E+00  0.00000000000E+00  0.13519318466E+03  0.13519318466E+03  0.00000000000E+00 0.  1.
         21   -1    0    0  501  502 -0.00000000000E+00 -0.00000000000E+00 -0.12946007989E+04  0.12946007989E+04  0.00000000000E+00 0.  1.
         25    1    1    2    0    0  0.70130223677E+02  0.53691280617E+02 -0.11109926663E+03  0.18912707086E+03  0.12500000000E+03 0.  0.
         25    1    1    2    0    0 -0.27793989190E+03 -0.17399390874E+03 -0.79891744864E+03  0.87259300567E+03  0.12500000000E+03 0.  0.
         25    1    1    2    0    0  0.20780966822E+03  0.12030262813E+03 -0.24939089892E+03  0.36807390699E+03  0.12500000000E+03 0.  0.
</event>
<event>
 5    0  0.5597833E-005  0.5179898E+03  0.7546771E-02  0.1009187E+00
         21   -1    0    0  502  501  0.00000000000E+00  0.00000000000E+00  0.65856772038E+03  0.65856772038E+03  0.00000000000E+00 0. -1.
         21   -1    0    0  501  502 -0.00000000000E+00 -0.00000000000E+00 -0.40741962758E+03  0.40741962758E+03  0.00000000000E+00 0. -1.
         25    1    1    2    0    0 -0.19211181587E+02 -0.13528004714E+02 -0.36038596799E+02  0.13219628160E+03  0.12500000000E+03 0.  0.
         25    1    1    2    0    0 -0.33750329925E+03  0.25374011435E+03  0.12987675462E+03  0.45911381380E+03  0.12500000000E+03 0.  0.
         25    1    1    2    0    0  0.35671448083E+03 -0.24021210964E+03  0.15730993498E+03  0.47467725256E+03  0.12500000000E+03 0.  0.
</event>
<event>
 5    0  0.5597833E-005  0.3780840E+03  0.7546771E-02  0.1051644E+00
         21   -1    0    0  502  501  0.00000000000E+00  0.00000000000E+00  0.31121949413E+03  0.31121949413E+03  0.00000000000E+00 0. -1.
         21   -1    0    0  501  502 -0.00000000000E+00 -0.00000000000E+00 -0.45931423938E+03  0.45931423938E+03  0.00000000000E+00 0. -1.
         25    1    1    2    0    0  0.12005136479E+03  0.17386237327E+03 -0.59750521097E+02  0.25265703987E+03  0.12500000000E+03 0.  0.
         25    1    1    2    0    0  0.48888981743E+02  0.92694220123E+02 -0.71274631454E+02  0.17800961791E+03  0.12500000000E+03 0.  0.
         25    1    1    2    0    0 -0.16894034654E+03 -0.26655659339E+03 -0.17069592696E+02  0.33986707573E+03  0.12500000000E+03 0.  0.
</event>
<event>
 5    0  0.5597833E-005  0.4438670E+03  0.7546771E-02  0.1029567E+00
         21   -1    0    0  502  501  0.00000000000E+00  0.00000000000E+00  0.23120644693E+04  0.23120644693E+04  0.00000000000E+00 0.  1.
         21   -1    0    0  501  502 -0.00000000000E+00 -0.00000000000E+00 -0.85212991925E+02  0.85212991925E+02  0.00000000000E+00 0.  1.
         25    1    1    2    0    0  0.76662548278E+02  0.96630264714E+02  0.44120771521E+03  0.47487240637E+03  0.12500000000E+03 0.  0.
         25    1    1    2    0    0  0.16625917094E+03  0.37970510756E+02  0.14649869112E+04  0.14801673965E+04  0.12500000000E+03 0.  0.
         25    1    1    2    0    0 -0.24292171922E+03 -0.13460077547E+03  0.32065685098E+03  0.44223765840E+03  0.12500000000E+03 0.  0.
</event>
<event>
 5    0  0.5597833E-005  0.3242231E+03  0.7546771E-02  0.1073722E+00
         21   -1    0    0  502  501  0.00000000000E+00  0.00000000000E+00  0.87745401685E+03  0.87745401685E+03  0.00000000000E+00 0.  1.
         21   -1    0    0  501  502 -0.00000000000E+00 -0.00000000000E+00 -0.11980186540E+03  0.11980186540E+03  0.00000000000E+00 0.  1.
         25    1    1    2    0    0  0.12346389512E+03 -0.44829853882E+02  0.63745528622E+03  0.66274225090E+03  0.12500000000E+03 0.  0.
         25    1    1    2    0    0 -0.42091374773E+01  0.31980546612E+01  0.90332584106E+02  0.15431435495E+03  0.12500000000E+03 0.  0.
         25    1    1    2    0    0 -0.11925475765E+03  0.41631799221E+02  0.29864281129E+02  0.18019927640E+03  0.12500000000E+03 0.  0.
</event>
<event>
 5    0  0.5597833E-005  0.2547213E+03  0.7546771E-02  0.1110357E+00
         21   -1    0    0  502  501  0.00000000000E+00  0.00000000000E+00  0.82993098294E+03  0.82993098294E+03  0.00000000000E+00 0. -1.
         21   -1    0    0  501  502 -0.00000000000E+00 -0.00000000000E+00 -0.78178732399E+02  0.78178732399E+02  0.00000000000E+00 0. -1.
         25    1    1    2    0    0 -0.50204253059E+02  0.76740370761E+02  0.53831409044E+03  0.56019336974E+03  0.12500000000E+03 0.  0.
         25    1    1    2    0    0 -0.27981817513E+01 -0.19145524900E+02  0.85510288712E+02  0.15268068123E+03  0.12500000000E+03 0.  0.
         25    1    1    2    0    0  0.53002434811E+02 -0.57594845861E+02  0.12792787139E+03  0.19523566437E+03  0.12500000000E+03 0.  0.
</event>
<event>
 5    0  0.5597833E-005  0.4076171E+03  0.7546771E-02  0.1041174E+00
         21   -1    0    0  502  501  0.00000000000E+00  0.00000000000E+00  0.32629251437E+03  0.32629251437E+03  0.00000000000E+00 0.  1.
         21   -1    0    0  501  502 -0.00000000000E+00 -0.00000000000E+00 -0.50921093704E+03  0.50921093704E+03  0.00000000000E+00 0.  1.
         25    1    1    2    0    0  0.16536087014E+02  0.78599904327E+02 -0.38381913748E+03  0.41157443729E+03  0.12500000000E+03 0.  0.
         25    1    1    2    0    0  0.78614932124E+02  0.41579007110E+02  0.16055677628E+03  0.22206440461E+03  0.12500000000E+03 0.  0.
         25    1    1    2    0    0 -0.95151019138E+02 -0.12017891144E+03  0.40343938525E+02  0.20186460951E+03  0.12500000000E+03 0.  0.
</event>
<event>
 5    0  0.5597833E-005  0.2808459E+03  0.7546771E-02  0.1095228E+00
         21   -1    0    0  502  501  0.00000000000E+00  0.00000000000E+00  0.28599090373E+03  0.28599090373E+03  0.00000000000E+00 0.  1.
         21   -1    0    0  501  502 -0.00000000000E+00 -0.00000000000E+00 -0.27579338090E+03  0.27579338090E+03  0.00000000000E+00 0.  1.
         25    1    1    2    0    0 -0.55987546538E+02 -0.52023959389E+02 -0.30025208022E+02  0.14955805172E+03  0.12500000000E+03 0.  0.
         25    1    1    2    0    0 -0.32596027171E+02 -0.11080724430E+03  0.74957092475E+02  0.18596857823E+03  0.12500000000E+03 0.  0.
         25    1    1    2    0    0  0.88583573709E+02  0.16283120369E+03 -0.34734361624E+02  0.22625765468E+03  0.12500000000E+03 0.  0.
</event>
<event>
 5    0  0.5597833E-005  0.2244213E+03  0.7546771E-02  0.1130629E+00
         21   -1    0    0  502  501  0.00000000000E+00  0.00000000000E+00  0.41766756898E+02  0.41766756898E+02  0.00000000000E+00 0. -1.
         21   -1    0    0  501  502 -0.00000000000E+00 -0.00000000000E+00 -0.12058610749E+04  0.12058610749E+04  0.00000000000E+00 0. -1.
         25    1    1    2    0    0 -0.68785645399E+01 -0.72805378205E+02 -0.46784610156E+03  0.48974780499E+03  0.12500000000E+03 0.  0.
         25    1    1    2    0    0  0.65100023636E+02  0.75934597554E+02 -0.33797520590E+03  0.37397368355E+03  0.12500000000E+03 0.  0.
         25    1    1    2    0    0 -0.58221459096E+02 -0.31292193488E+01 -0.35827301053E+03  0.38390634325E+03  0.12500000000E+03 0.  0.
</event>
<event>
 5    0  0.5597833E-005  0.2516394E+03  0.7546771E-02  0.1112273E+00
         21   -1    0    0  502  501  0.00000000000E+00  0.00000000000E+00  0.55452661068E+03  0.55452661068E+03  0.00000000000E+00 0.  1.
         21   -1    0    0  501  502 -0.00000000000E+00 -0.00000000000E+00 -0.11419181732E+03  0.11419181732E+03  0.00000000000E+00 0.  1.
         25    1    1    2    0    0 -0.28586008172E+02  0.11440120150E+03  0.18424575212E+03  0.25194501770E+03  0.12500000000E+03 0.  0.
         25    1    1    2    0    0 -0.70233445790E+02 -0.84472148682E+02  0.13817043041E+03  0.21629689931E+03  0.12500000000E+03 0.  0.
         25    1    1    2    0    0  0.98819453961E+02 -0.29929052815E+02  0.11791861082E+03  0.20047651100E+03  0.12500000000E+03 0.  0.
</event>
<event>
 5    0  0.5597833E-005  0.4183122E+03  0.7546771E-02  0.1037617E+00
         21   -1    0    0  502  501  0.00000000000E+00  0.00000000000E+00  0.15556330647E+03  0.15556330647E+03  0.00000000000E+00 0. -1.
         21   -1    0    0  501  502 -0.00000000000E+00 -0.00000000000E+00 -0.11248481362E+04  0.11248481362E+04  0.00000000000E+00 0. -1.
         25    1    1    2    0    0  0.31147708135E+03  0.10201083911E+03 -0.50212435483E+03  0.61251779665E+03  0.12500000000E+03 0.  0.
         25    1    1    2    0    0 -0.28516373816E+03 -0.14262892922E+03 -0.31783889533E+03  0.46723434420E+03  0.12500000000E+03 0.  0.
         25    1    1    2    0    0 -0.26313343191E+02  0.40618090114E+02 -0.14932157953E+03  0.20065930177E+03  0.12500000000E+03 0.  0.
</event>
<event>
 5    0  0.5597833E-005  0.4454576E+03  0.7546771E-02  0.1029085E+00
         21   -1    0    0  502  501  0.00000000000E+00  0.00000000000E+00  0.12112130127E+03  0.12112130127E+03  0.00000000000E+00 0.  1.
         21   -1    0    0  501  502 -0.00000000000E+00 -0.00000000000E+00 -0.16382957232E+04  0.16382957232E+04  0.00000000000E+00 0.  1.
         25    1    1    2    0    0 -0.29632227768E+02 -0.95826634119E+02 -0.23799616117E+03  0.28692853720E+03  0.12500000000E+03 0.  0.
         25    1    1    2    0    0  0.26371803800E+03 -0.16213326984E+03 -0.80125430529E+03  0.86802526605E+03  0.12500000000E+03 0.  0.
         25    1    1    2    0    0 -0.23408581023E+03  0.25795990396E+03 -0.47792395548E+03  0.60446322123E+03  0.12500000000E+03 0.  0.
</event>
<event>
 5    0  0.6938380E-005  0.4671310E+03  0.7546771E-02  0.1022733E+00
         21   -1    0    0  502  501  0.00000000000E+00  0.00000000000E+00  0.45434770656E+03  0.45434770656E+03  0.00000000000E+00 0.  1.
         21   -1    0    0  501  502 -0.00000000000E+00 -0.00000000000E+00 -0.48027392789E+03  0.48027392789E+03  0.00000000000E+00 0.  1.
         25    1    1    2    0    0  0.13776534976E+03 -0.19380746780E+03  0.94689913969E+02  0.28483645479E+03  0.12500000000E+03 0.  0.
         25    1    1    2    0    0  0.10419037512E+03  0.30209322883E+03 -0.37656025315E+02  0.34519404603E+03  0.12500000000E+03 0.  0.
         25    1    1    2    0    0 -0.24195572488E+03 -0.10828576104E+03 -0.82960109981E+02  0.30459113364E+03  0.12500000000E+03 0.  0.
</event>
<event>
 5    0  0.5597833E-005  0.3211664E+03  0.7546771E-02  0.1075114E+00
         21   -1    0    0  502  501  0.00000000000E+00  0.00000000000E+00  0.77636252469E+03  0.77636252469E+03  0.00000000000E+00 0.  1.
         21   -1    0    0  501  502 -0.00000000000E+00 -0.00000000000E+00 -0.13286041977E+03  0.13286041977E+03  0.00000000000E+00 0.  1.
         25    1    1    2    0    0  0.21782333997E+03 -0.33608021463E+02  0.24787399618E+03  0.35446159810E+03  0.12500000000E+03 0.  0.
         25    1    1    2    0    0 -0.12297276771E+03  0.10822836548E+03  0.15447430704E+03  0.25753250713E+03  0.12500000000E+03 0.  0.
         25    1    1    2    0    0 -0.94850572259E+02 -0.74620344020E+02  0.24115380170E+03  0.29722883923E+03  0.12500000000E+03 0.  0.
</event>
<event>
 5    0  0.5597833E-005  0.3876182E+03  0.7546771E-02  0.1048153E+00
         21   -1    0    0  502  501  0.00000000000E+00  0.00000000000E+00  0.17806174835E+04  0.17806174835E+04  0.00000000000E+00 0. -1.
         21   -1    0    0  501  502 -0.00000000000E+00 -0.00000000000E+00 -0.84379646161E+02  0.84379646161E+02  0.00000000000E+00 0. -1.
         25    1    1    2    0    0  0.75046648228E+02 -0.27425525197E+03  0.54667192968E+03  0.62874727939E+03  0.12500000000E+03 0.  0.
         25    1    1    2    0    0  0.36855176475E+02  0.36772833592E+02  0.18803530656E+03  0.23171711598E+03  0.12500000000E+03 0.  0.
         25    1    1    2    0    0 -0.11190182470E+03  0.23748241838E+03  0.96153060111E+03  0.10045327343E+04  0.12500000000E+03 0.  0.
</event>
<event>
 5    0  0.5597833E-005  0.3600357E+03  0.7546771E-02  0.1058570E+00
         21   -1    0    0  502  501  0.00000000000E+00  0.00000000000E+00  0.14162621951E+04  0.14162621951E+04  0.00000000000E+00 0. -1.
         21   -1    0    0  501  502 -0.00000000000E+00 -0.00000000000E+00 -0.91526621251E+02  0.91526621251E+02  0.00000000000E+00 0. -1.
         25    1    1    2    0    0 -0.37475195420E+02  0.42720744636E+02  0.34646002919E+03  0.37267815085E+03  0.12500000000E+03 0.  0.
         25    1    1    2    0    0 -0.77073170209E+02  0.90836931811E+01  0.94292549849E+03  0.95433551896E+03  0.12500000000E+03 0.  0.
         25    1    1    2    0    0  0.11454836563E+03 -0.51804437817E+02  0.35350046181E+02  0.18077514655E+03  0.12500000000E+03 0.  0.
</event>
<event>
 5    0  0.5597833E-005  0.3108314E+03  0.7546771E-02  0.1079948E+00
         21   -1    0    0  502  501  0.00000000000E+00  0.00000000000E+00  0.30448121547E+03  0.30448121547E+03  0.00000000000E+00 0.  1.
         21   -1    0    0  501  502 -0.00000000000E+00 -0.00000000000E+00 -0.31731409400E+03  0.31731409400E+03  0.00000000000E+00 0.  1.
         25    1    1    2    0    0 -0.49382436799E+02  0.84857242309E+02 -0.69567095025E+02  0.17350492024E+03  0.12500000000E+03 0.  0.
         25    1    1    2    0    0 -0.13667247612E+03 -0.10877895001E+03  0.59392673881E+02  0.22285581753E+03  0.12500000000E+03 0.  0.
         25    1    1    2    0    0  0.18605491292E+03  0.23921707700E+02 -0.26584573877E+01  0.22543457170E+03  0.12500000000E+03 0.  0.
</event>
<event>
 5    0  0.5597833E-005  0.3062017E+03  0.7546771E-02  0.1082181E+00
         21   -1    0    0  502  501  0.00000000000E+00  0.00000000000E+00  0.50196718243E+03  0.50196718243E+03  0.00000000000E+00 0. -1.
         21   -1    0    0  501  502 -0.00000000000E+00 -0.00000000000E+00 -0.18678402696E+03  0.18678402696E+03  0.00000000000E+00 0. -1.
         25    1    1    2    0    0  0.14068732323E+03 -0.68187737274E+02 -0.43929193500E+02  0.20493234121E+03  0.12500000000E+03 0.  0.
         25    1    1    2    0    0 -0.63147634894E+02  0.84639451451E+02  0.12123896233E+03  0.20365496930E+03  0.12500000000E+03 0.  0.
         25    1    1    2    0    0 -0.77539688332E+02 -0.16451714178E+02  0.23787338664E+03  0.28016389889E+03  0.12500000000E+03 0.  0.
</event>
<event>
 5    0  0.5597833E-005  0.2966872E+03  0.7546771E-02  0.1086908E+00
         21   -1    0    0  502  501  0.00000000000E+00  0.00000000000E+00  0.12752481295E+04  0.12752481295E+04  0.00000000000E+00 0.  1.
         21   -1    0    0  501  502 -0.00000000000E+00 -0.00000000000E+00 -0.69024422886E+02  0.69024422886E+02  0.00000000000E+00 0.  1.
         25    1    1    2    0    0 -0.10022041410E+03 -0.98235893537E+02  0.74565458871E+03  0.76897346368E+03  0.12500000000E+03 0.  0.
         25    1    1    2    0    0  0.97572509489E+02 -0.34539074691E+02  0.21101148845E+03  0.26620328801E+03  0.12500000000E+03 0.  0.
         25    1    1    2    0    0  0.26479046136E+01  0.13277496823E+03  0.24955762943E+03  0.30909580067E+03  0.12500000000E+03 0.  0.
</event>
<event>
 5    0  0.5597833E-005  0.4043331E+03  0.7546771E-02  0.1042290E+00
         21   -1    0    0  502  501  0.00000000000E+00  0.00000000000E+00  0.79723112831E+02  0.79723112831E+02  0.00000000000E+00 0.  1.
         21   -1    0    0  501  502 -0.00000000000E+00 -0.00000000000E+00 -0.20506629593E+04  0.20506629593E+04  0.00000000000E+00 0.  1.
         25    1    1    2    0    0  0.77172480656E+01  0.85053646989E+02 -0.31159328871E+03  0.34642323299E+03  0.12500000000E+03 0.  0.
         25    1    1    2    0    0  0.17692108815E+03 -0.21395585829E+03 -0.13376794668E+04  0.13718926841E+04  0.12500000000E+03 0.  0.
         25    1    1    2    0    0 -0.18463833622E+03  0.12890221130E+03 -0.32166709092E+03  0.41207015502E+03  0.12500000000E+03 0.  0.
</event>
<event>
 5    0  0.5597833E-005  0.2591364E+03  0.7546771E-02  0.1107663E+00
         21   -1    0    0  502  501  0.00000000000E+00  0.00000000000E+00  0.15324648078E+03  0.15324648078E+03  0.00000000000E+00 0.  1.
         21   -1    0    0  501  502 -0.00000000000E+00 -0.00000000000E+00 -0.43819375246E+03  0.43819375246E+03  0.00000000000E+00 0.  1.
         25    1    1    2    0    0  0.10389065280E+03 -0.63345062071E+02  0.19111507538E+02  0.17548821712E+03  0.12500000000E+03 0.  0.
         25    1    1    2    0    0 -0.78780913168E+02  0.48306057140E+02 -0.16797787515E+03  0.22886999361E+03  0.12500000000E+03 0.  0.
         25    1    1    2    0    0 -0.25109739633E+02  0.15039004931E+02 -0.13608090407E+03  0.18708202251E+03  0.12500000000E+03 0.  0.
</event>
<event>
 5    0  0.5597833E-005  0.3364775E+03  0.7546771E-02  0.1068306E+00
         21   -1    0    0  502  501  0.00000000000E+00  0.00000000000E+00  0.12333916193E+04  0.12333916193E+04  0.00000000000E+00 0.  1.
         21   -1    0    0  501  502 -0.00000000000E+00 -0.00000000000E+00 -0.91793338686E+02  0.91793338686E+02  0.00000000000E+00 0.  1.
         25    1    1    2    0    0  0.18751221501E+02  0.40121521792E+02  0.20773376959E+02  0.13423068952E+03  0.12500000000E+03 0.  0.
         25    1    1    2    0    0 -0.43249038825E+02 -0.13222304210E+03  0.90401753629E+03  0.92316093837E+03  0.12500000000E+03 0.  0.
         25    1    1    2    0    0  0.24497817324E+02  0.92101520304E+02  0.21680736734E+03  0.26779333007E+03  0.12500000000E+03 0.  0.
</event>
<event>
 5    0  0.5597833E-005  0.4850695E+03  0.7546771E-02  0.1017751E+00
         21   -1    0    0  502  501  0.00000000000E+00  0.00000000000E+00  0.36813788513E+03  0.36813788513E+03  0.00000000000E+00 0.  1.
         21   -1    0    0  501  502 -0.00000000000E+00 -0.00000000000E+00 -0.63914208632E+03  0.63914208632E+03  0.00000000000E+00 0.  1.
         25    1    1    2    0    0  0.29798866007E+03  0.21088496395E+03 -0.28468993087E+03  0.47952379116E+03  0.12500000000E+03 0.  0.
         25    1    1    2    0    0 -0.20963969784E+03 -0.16635921973E+03 -0.12086271365E+03  0.31915041665E+03  0.12500000000E+03 0.  0.
         25    1    1    2    0    0 -0.88348962227E+02 -0.44525744214E+02  0.13454844332E+03  0.20860576364E+03  0.12500000000E+03 0.  0.
</event>
<event>
 5    0  0.5653123E-005  0.2845674E+03  0.7546771E-02  0.1093220E+00
         21   -1    0    0  502  501  0.00000000000E+00  0.00000000000E+00  0.16740920949E+03  0.16740920949E+03  0.00000000000E+00 0. -1.
         21   -1    0    0  501  502 -0.00000000000E+00 -0.00000000000E+00 -0.48371662762E+03  0.48371662762E+03  0.00000000000E+00 0. -1.
         25    1    1    2    0    0 -0.12762901060E+03  0.62663310146E+02 -0.30218282139E+03  0.35658843549E+03  0.12500000000E+03 0.  0.
         25    1    1    2    0    0  0.40571517831E+02 -0.42938598027E+02  0.11823078577E+02  0.13876078858E+03  0.12500000000E+03 0.  0.
         25    1    1    2    0    0  0.87057492771E+02 -0.19724712119E+02 -0.25947675314E+02  0.15577661304E+03  0.12500000000E+03 0.  0.
</event>
<event>
 5    0  0.5597833E-005  0.2655340E+03  0.7546771E-02  0.1103863E+00
         21   -1    0    0  502  501  0.00000000000E+00  0.00000000000E+00  0.13860274752E+04  0.13860274752E+04  0.00000000000E+00 0.  1.
         21   -1    0    0  501  502 -0.00000000000E+00 -0.00000000000E+00 -0.50870769403E+02  0.50870769403E+02  0.00000000000E+00 0.  1.
         25    1    1    2    0    0  0.15620109489E+01 -0.42293341206E+02  0.27913593721E+03  0.30876048651E+03  0.12500000000E+03 0.  0.
         25    1    1    2    0    0  0.29635363679E+02 -0.47173959840E+02  0.12942508829E+03  0.18836000304E+03  0.12500000000E+03 0.  0.
         25    1    1    2    0    0 -0.31197374628E+02  0.89467301046E+02  0.92659568028E+03  0.93977775503E+03  0.12500000000E+03 0.  0.
</event>
<event>
 5    0  0.6425607E-005  0.2962547E+03  0.7546771E-02  0.1087128E+00
         21   -1    0    0  502  501  0.00000000000E+00  0.00000000000E+00  0.61155411446E+03  0.61155411446E+03  0.00000000000E+00 0. -1.
         21   -1    0    0  501  502 -0.00000000000E+00 -0.00000000000E+00 -0.14351446669E+03  0.14351446669E+03  0.00000000000E+00 0. -1.
         25    1    1    2    0    0 -0.11753831144E+03 -0.40600415072E+02  0.18089100855E+03  0.25260681965E+03  0.12500000000E+03 0.  0.
         25    1    1    2    0    0  0.16677904989E+03 -0.65431201071E+02  0.77428844948E+02  0.23176867689E+03  0.12500000000E+03 0.  0.
         25    1    1    2    0    0 -0.49240738452E+02  0.10603161614E+03  0.20971979427E+03  0.27069308460E+03  0.12500000000E+03 0.  0.
</event>
<event>
 5    0  0.5597833E-005  0.4229724E+03  0.7546771E-02  0.1036103E+00
         21   -1    0    0  502  501  0.00000000000E+00  0.00000000000E+00  0.54816290286E+03  0.54816290286E+03  0.00000000000E+00 0. -1.
         21   -1    0    0  501  502 -0.00000000000E+00 -0.00000000000E+00 -0.32637319966E+03  0.32637319966E+03  0.00000000000E+00 0. -1.
         25    1    1    2    0    0 -0.31228270947E+03  0.10675406262E+03  0.22462389721E+03  0.41832740254E+03  0.12500000000E+03 0.  0.
         25    1    1    2    0    0  0.88510131735E+02  0.18380757863E+02 -0.59611461468E+02  0.16537963000E+03  0.12500000000E+03 0.  0.
         25    1    1    2    0    0  0.22377257774E+03 -0.12513482049E+03  0.56777267451E+02  0.29082906998E+03  0.12500000000E+03 0.  0.
</event>
<event>
 5    0  0.5597833E-005  0.4274007E+03  0.7546771E-02  0.1034684E+00
         21   -1    0    0  502  501  0.00000000000E+00  0.00000000000E+00  0.39287677489E+03  0.39287677489E+03  0.00000000000E+00 0.  1.
         21   -1    0    0  501  502 -0.00000000000E+00 -0.00000000000E+00 -0.46495841683E+03  0.46495841683E+03  0.00000000000E+00 0.  1.
         25    1    1    2    0    0  0.14636258660E+03 -0.20935216740E+03 -0.21417667483E+03  0.35601542774E+03  0.12500000000E+03 0.  0.
         25    1    1    2    0    0 -0.21314152322E+03  0.22861995944E+03  0.11839801454E+03  0.35684658416E+03  0.12500000000E+03 0.  0.
         25    1    1    2    0    0  0.66778936624E+02 -0.19267792045E+02  0.23697018351E+02  0.14497317982E+03  0.12500000000E+03 0.  0.
</event>
<event>
 5    0  0.5597833E-005  0.3214704E+03  0.7546771E-02  0.1074975E+00
         21   -1    0    0  502  501  0.00000000000E+00  0.00000000000E+00  0.17606840681E+03  0.17606840681E+03  0.00000000000E+00 0. -1.
         21   -1    0    0  501  502 -0.00000000000E+00 -0.00000000000E+00 -0.58694932098E+03  0.58694932098E+03  0.00000000000E+00 0. -1.
         25    1    1    2    0    0  0.52765466576E+02  0.74578213061E+02  0.58758836303E+00  0.15482716036E+03  0.12500000000E+03 0.  0.
         25    1    1    2    0    0  0.15108984593E+03 -0.26346303556E+02 -0.23449098665E+03  0.30681149273E+03  0.12500000000E+03 0.  0.
         25    1    1    2    0    0 -0.20385531251E+03 -0.48231909505E+02 -0.17697751588E+03  0.30137907469E+03  0.12500000000E+03 0.  0.
</event>
<event>
 5    0  0.5597833E-005  0.2663782E+03  0.7546771E-02  0.1103371E+00
         21   -1    0    0  502  501  0.00000000000E+00  0.00000000000E+00  0.16919054059E+03  0.16919054059E+03  0.00000000000E+00 0. -1.
         21   -1    0    0  501  502 -0.00000000000E+00 -0.00000000000E+00 -0.41939297286E+03  0.41939297286E+03  0.00000000000E+00 0. -1.
         25    1    1    2    0    0  0.27128129482E+02  0.15119431668E+03 -0.52993481526E+02  0.20500967267E+03  0.12500000000E+03 0.  0.
         25    1    1    2    0    0 -0.40173578655E+02  0.12062057303E+00 -0.93678127189E+02  0.16129018099E+03  0.12500000000E+03 0.  0.
         25    1    1    2    0    0  0.13045449173E+02 -0.15131493725E+03 -0.10353082355E+03  0.22228365978E+03  0.12500000000E+03 0.  0.
</event>
<event>
 5    0  0.5597833E-005  0.2325657E+03  0.7546771E-02  0.1124847E+00
         21   -1    0    0  502  501  0.00000000000E+00  0.00000000000E+00  0.84070441826E+03  0.84070441826E+03  0.00000000000E+00 0.  1.
         21   -1    0    0  501  502 -0.00000000000E+00 -0.00000000000E+00 -0.64335103033E+02  0.64335103033E+02  0.00000000000E+00 0.  1.
         25    1    1    2    0    0  0.56069623902E+00 -0.22729955698E+02  0.12511604015E+03  0.17831429771E+03  0.12500000000E+03 0.  0.
         25    1    1    2    0    0  0.42967637230E+02 -0.74137218500E+02  0.38810071837E+03  0.41664098768E+03  0.12500000000E+03 0.  0.
         25    1    1    2    0    0 -0.43528333469E+02  0.96867174198E+02  0.26315255671E+03  0.31008423590E+03  0.12500000000E+03 0.  0.
</event>
<event>
 5    0  0.5597833E-005  0.5073295E+03  0.7546771E-02  0.1011883E+00
         21   -1    0    0  502  501  0.00000000000E+00  0.00000000000E+00  0.10448544003E+03  0.10448544003E+03  0.00000000000E+00 0.  1.
         21   -1    0    0  501  502 -0.00000000000E+00 -0.00000000000E+00 -0.24633404023E+04  0.24633404023E+04  0.00000000000E+00 0.  1.
         25    1    1    2    0    0 -0.23013982233E+03  0.26824448752E+03 -0.18175888789E+04  0.18558485325E+04  0.12500000000E+03 0.  0.
         25    1    1    2    0    0  0.15442041651E+03 -0.14119031128E+03 -0.41345901779E+03  0.47995179802E+03  0.12500000000E+03 0.  0.
         25    1    1    2    0    0  0.75719405819E+02 -0.12705417625E+03 -0.12780706561E+03  0.23202551183E+03  0.12500000000E+03 0.  0.
</event>
<event>
 5    0  0.5597833E-005  0.2435374E+03  0.7546771E-02  0.1117459E+00
         21   -1    0    0  502  501  0.00000000000E+00  0.00000000000E+00  0.54851509472E+02  0.54851509472E+02  0.00000000000E+00 0.  1.
         21   -1    0    0  501  502 -0.00000000000E+00 -0.00000000000E+00 -0.10812913475E+04  0.10812913475E+04  0.00000000000E+00 0.  1.
         25    1    1    2    0    0 -0.27962671807E+02  0.36132576079E+02 -0.39131526157E+03  0.41332808761E+03  0.12500000000E+03 0.  0.
         25    1    1    2    0    0  0.73997616147E+02  0.73984910803E+01 -0.11877018692E+03  0.18778110173E+03  0.12500000000E+03 0.  0.
         25    1    1    2    0    0 -0.46034944340E+02 -0.43531067160E+02 -0.51635438956E+03  0.53503366766E+03  0.12500000000E+03 0.  0.
</event>
<event>
 5    0  0.5597833E-005  0.3474777E+03  0.7546771E-02  0.1063655E+00
         21   -1    0    0  502  501  0.00000000000E+00  0.00000000000E+00  0.56094557790E+03  0.56094557790E+03  0.00000000000E+00 0.  1.
         21   -1    0    0  501  502 -0.00000000000E+00 -0.00000000000E+00 -0.21524507236E+03  0.21524507236E+03  0.00000000000E+00 0.  1.
         25    1    1    2    0    0 -0.53774505911E+02  0.10314032998E+03  0.66682565146E+02  0.18330627280E+03  0.12500000000E+03 0.  0.
         25    1    1    2    0    0 -0.40528466320E+02 -0.26619480151E+03  0.16650398798E+03  0.34036863391E+03  0.12500000000E+03 0.  0.
         25    1    1    2    0    0  0.94302972231E+02  0.16305447153E+03  0.11251395240E+03  0.25251574355E+03  0.12500000000E+03 0.  0.
</event>
<event>
 5    0  0.6540553E-005  0.2917918E+03  0.7546771E-02  0.1089417E+00
         21   -1    0    0  502  501  0.00000000000E+00  0.00000000000E+00  0.11901134949E+03  0.11901134949E+03  0.00000000000E+00 0.  1.
         21   -1    0    0  501  502 -0.00000000000E+00 -0.00000000000E+00 -0.71541478940E+03  0.71541478940E+03  0.00000000000E+00 0.  1.
         25    1    1    2    0    0  0.13747035930E+03 -0.27749352006E+02 -0.21133521599E+03  0.28276438909E+03  0.12500000000E+03 0.  0.
         25    1    1    2    0    0 -0.17868960286E+03  0.35769092465E+02 -0.35215834470E+03  0.41575221213E+03  0.12500000000E+03 0.  0.
         25    1    1    2    0    0  0.41219243565E+02 -0.80197404594E+01 -0.32909879221E+02  0.13590953766E+03  0.12500000000E+03 0.  0.
</event>
<event>
 5    0  0.5597833E-005  0.3581991E+03  0.7546771E-02  0.1059299E+00
         21   -1    0    0  502  501  0.00000000000E+00  0.00000000000E+00  0.11774384569E+04  0.11774384569E+04  0.00000000000E+00 0. -1.
         21   -1    0    0  501  502 -0.00000000000E+00 -0.00000000000E+00 -0.10897097802E+03  0.10897097802E+03  0.00000000000E+00 0. -1.
         25    1    1    2    0    0 -0.16114818758E+03  0.11020675457E+03  0.40877491694E+03  0.46993212258E+03  0.12500000000E+03 0.  0.
         25    1    1    2    0    0  0.64559414682E+01  0.68204692254E+02  0.50421792016E+02  0.15119826830E+03  0.12500000000E+03 0.  0.
         25    1    1    2    0    0  0.15469224611E+03 -0.17841144682E+03  0.60927076995E+03  0.66527904407E+03  0.12500000000E+03 0.  0.
</event>
<event>
 5    0  0.5597833E-005  0.3529311E+03  0.7546771E-02  0.1061418E+00
         21   -1    0    0  502  501  0.00000000000E+00  0.00000000000E+00  0.92473408087E+02  0.92473408087E+02  0.00000000000E+00 0. -1.
         21   -1    0    0  501  502 -0.00000000000E+00 -0.00000000000E+00 -0.13469857255E+04  0.13469857255E+04  0.00000000000E+00 0. -1.
         25    1    1    2    0    0 -0.66625574116E+01  0.13310622497E+03 -0.90044989580E+03  0.91880175862E+03  0.12500000000E+03 0.  0.
         25    1    1    2    0    0  0.53313366842E+02 -0.47042887811E+02 -0.33013129755E+03  0.36009307408E+03  0.12500000000E+03 0.  0.
         25    1    1    2    0    0 -0.46650809430E+02 -0.86063337160E+02 -0.23931124074E+02  0.16056430090E+03  0.12500000000E+03 0.  0.
</event>
<event>
 5    0  0.5597833E-005  0.4095877E+03  0.7546771E-02  0.1040509E+00
         21   -1    0    0  502  501  0.00000000000E+00  0.00000000000E+00  0.34159532341E+03  0.34159532341E+03  0.00000000000E+00 0. -1.
         21   -1    0    0  501  502 -0.00000000000E+00 -0.00000000000E+00 -0.49111364401E+03  0.49111364401E+03  0.00000000000E+00 0. -1.
         25    1    1    2    0    0  0.20923476865E+03 -0.14165519713E+03  0.14556515189E+03  0.31726896591E+03  0.12500000000E+03 0.  0.
         25    1    1    2    0    0 -0.15524426357E+03  0.28272513159E+02 -0.40623208705E+02  0.20536640781E+03  0.12500000000E+03 0.  0.
         25    1    1    2    0    0 -0.53990505080E+02  0.11338268397E+03 -0.25446026378E+03  0.31007359369E+03  0.12500000000E+03 0.  0.
</event>
<event>
 5    0  0.5597833E-005  0.2298511E+03  0.7546771E-02  0.1126745E+00
         21   -1    0    0  502  501  0.00000000000E+00  0.00000000000E+00  0.31659593966E+02  0.31659593966E+02  0.00000000000E+00 0. -1.
         21   -1    0    0  501  502 -0.00000000000E+00 -0.00000000000E+00 -0.16687366475E+04  0.16687366475E+04  0.00000000000E+00 0. -1.
         25    1    1    2    0    0 -0.55352644501E+02 -0.24590539824E+02 -0.51455220066E+03  0.53297052180E+03  0.12500000000E+03 0.  0.
         25    1    1    2    0    0  0.85055390847E+02  0.36350299013E+02 -0.33411199182E+03  0.36852623628E+03  0.12500000000E+03 0.  0.
         25    1    1    2    0    0 -0.29702746346E+02 -0.11759759189E+02 -0.78841286107E+03  0.79889948341E+03  0.12500000000E+03 0.  0.
</event>
<event>
 5    0  0.5597833E-005  0.2743416E+03  0.7546771E-02  0.1098820E+00
         21   -1    0    0  502  501  0.00000000000E+00  0.00000000000E+00  0.95865393173E+02  0.95865393173E+02  0.00000000000E+00 0.  1.
         21   -1    0    0  501  502 -0.00000000000E+00 -0.00000000000E+00 -0.78509377436E+03  0.78509377436E+03  0.00000000000E+00 0.  1.
         25    1    1    2    0    0 -0.71816994779E+02  0.75277246080E+02 -0.77135516290E+02  0.17999786774E+03  0.12500000000E+03 0.  0.
         25    1    1    2    0    0  0.13095398536E+03  0.15589821534E+01 -0.36740250592E+03  0.40958634995E+03  0.12500000000E+03 0.  0.
         25    1    1    2    0    0 -0.59136990580E+02 -0.76836228233E+02 -0.24469035898E+03  0.29137494985E+03  0.12500000000E+03 0.  0.
</event>
<event>
 5    0  0.5597833E-005  0.2515374E+03  0.7546771E-02  0.1112337E+00
         21   -1    0    0  502  501  0.00000000000E+00  0.00000000000E+00  0.23406540941E+03  0.23406540941E+03  0.00000000000E+00 0. -1.
         21   -1    0    0  501  502 -0.00000000000E+00 -0.00000000000E+00 -0.27031362817E+03  0.27031362817E+03  0.00000000000E+00 0. -1.
         25    1    1    2    0    0 -0.44122717609E+01  0.41553165707E+02  0.19811263905E+02  0.13328023072E+03  0.12500000000E+03 0.  0.
         25    1    1    2    0    0  0.12272320080E+03 -0.69376121916E+02 -0.56675697682E+02  0.19675153116E+03  0.12500000000E+03 0.  0.
         25    1    1    2    0    0 -0.11831092904E+03  0.27822956209E+02  0.61621502092E+00  0.17434727570E+03  0.12500000000E+03 0.  0.
</event>
<event>
 5    0  0.5597833E-005  0.6227205E+03  0.7546771E-02  0.9859358E-01
         21   -1    0    0  502  501  0.00000000000E+00  0.00000000000E+00  0.43798060376E+04  0.43798060376E+04  0.00000000000E+00 0.  1.
         21   -1    0    0  501  502 -0.00000000000E+00 -0.00000000000E+00 -0.88538346586E+02  0.88538346586E+02  0.00000000000E+00 0.  1.
         25    1    1    2    0    0 -0.15119288066E+03  0.11740386704E+03  0.19218273392E+04  0.19353780707E+04  0.12500000000E+03 0.  0.
         25    1    1    2    0    0 -0.26852614403E+03 -0.17710929734E+03  0.16721800262E+04  0.17074205789E+04  0.12500000000E+03 0.  0.
         25    1    1    2    0    0  0.41971902469E+03  0.59705430304E+02  0.69726032565E+03  0.82554573454E+03  0.12500000000E+03 0.  0.
</event>
<event>
 5    0  0.5597833E-005  0.3495925E+03  0.7546771E-02  0.1062782E+00
         21   -1    0    0  502  501  0.00000000000E+00  0.00000000000E+00  0.40642638935E+03  0.40642638935E+03  0.00000000000E+00 0. -1.
         21   -1    0    0  501  502 -0.00000000000E+00 -0.00000000000E+00 -0.30070610433E+03  0.30070610433E+03  0.00000000000E+00 0. -1.
         25    1    1    2    0    0  0.99021580460E+02  0.74106060581E+02  0.33042133846E+02  0.17892390623E+03  0.12500000000E+03 0.  0.
         25    1    1    2    0    0 -0.17140932432E+03 -0.18515579098E+03  0.16246064699E+03  0.32508811916E+03  0.12500000000E+03 0.  0.
         25    1    1    2    0    0  0.72387743864E+02  0.11104973040E+03 -0.89782495813E+02  0.20312046829E+03  0.12500000000E+03 0.  0.
</event>
<event>
 5    0  0.5597833E-005  0.5244770E+03  0.7546771E-02  0.1007580E+00
         21   -1    0    0  502  501  0.00000000000E+00  0.00000000000E+00  0.56255068005E+03  0.56255068005E+03  0.00000000000E+00 0. -1.
         21   -1    0    0  501  502 -0.00000000000E+00 -0.00000000000E+00 -0.48898013982E+03  0.48898013982E+03  0.00000000000E+00 0. -1.
         25    1    1    2    0    0  0.68403591944E+02 -0.27121491343E+03  0.58791467785E+02  0.31195835835E+03  0.12500000000E+03 0.  0.
         25    1    1    2    0    0  0.80775566451E+02 -0.18805836318E+03  0.20817122764E+02  0.24072597014E+03  0.12500000000E+03 0.  0.
         25    1    1    2    0    0 -0.14917915840E+03  0.45927327661E+03 -0.60380503204E+01  0.49884649138E+03  0.12500000000E+03 0.  0.
</event>
<event>
 5    0  0.5597833E-005  0.3005502E+03  0.7546771E-02  0.1084966E+00
         21   -1    0    0  502  501  0.00000000000E+00  0.00000000000E+00  0.32935567852E+03  0.32935567852E+03  0.00000000000E+00 0. -1.
         21   -1    0    0  501  502 -0.00000000000E+00 -0.00000000000E+00 -0.27426398462E+03  0.27426398462E+03  0.00000000000E+00 0. -1.
         25    1    1    2    0    0  0.70397761134E+01 -0.15470927442E+03  0.13361104987E+03  0.23971114010E+03  0.12500000000E+03 0.  0.
         25    1    1    2    0    0  0.49732342907E+01  0.45518433165E+02 -0.13361850383E+03  0.18861485992E+03  0.12500000000E+03 0.  0.
         25    1    1    2    0    0 -0.12013010404E+02  0.10919084126E+03  0.55099147852E+02  0.17529366311E+03  0.12500000000E+03 0.  0.
</event>
<event>
 5    0  0.5597833E-005  0.2836120E+03  0.7546771E-02  0.1093732E+00
         21   -1    0    0  502  501  0.00000000000E+00  0.00000000000E+00  0.10573511877E+04  0.10573511877E+04  0.00000000000E+00 0. -1.
         21   -1    0    0  501  502 -0.00000000000E+00 -0.00000000000E+00 -0.76072898990E+02  0.76072898990E+02  0.00000000000E+00 0.  1.
         25    1    1    2    0    0 -0.88047439905E+02  0.28691974413E+01  0.17558786427E+03  0.23284475954E+03  0.12500000000E+03 0.  0.
         25    1    1    2    0    0 -0.91202290884E+02 -0.16309822089E+00  0.17759503231E+03  0.23554804173E+03  0.12500000000E+03 0.  0.
         25    1    1    2    0    0  0.17924973079E+03 -0.27060992204E+01  0.62809539214E+03  0.66503128542E+03  0.12500000000E+03 0.  0.
</event>
<event>
 5    0  0.5597833E-005  0.6080847E+03  0.7546771E-02  0.9888774E-01
         21   -1    0    0  502  501  0.00000000000E+00  0.00000000000E+00  0.54686718188E+03  0.54686718188E+03  0.00000000000E+00 0. -1.
         21   -1    0    0  501  502 -0.00000000000E+00 -0.00000000000E+00 -0.67615493320E+03  0.67615493320E+03  0.00000000000E+00 0. -1.
         25    1    1    2    0    0  0.75921051537E+02 -0.37286468228E+03  0.44288206405E+01  0.40054549281E+03  0.12500000000E+03 0.  0.
         25    1    1    2    0    0 -0.37811353317E+02 -0.18842331896E+03 -0.83518450711E+02  0.24399462530E+03  0.12500000000E+03 0.  0.
         25    1    1    2    0    0 -0.38109698221E+02  0.56128800124E+03 -0.50198121244E+02  0.57848199697E+03  0.12500000000E+03 0.  0.
</event>
<event>
 5    0  0.5597833E-005  0.2969281E+03  0.7546771E-02  0.1086786E+00
         21   -1    0    0  502  501  0.00000000000E+00  0.00000000000E+00  0.15363308261E+04  0.15363308261E+04  0.00000000000E+00 0. -1.
         21   -1    0    0  501  502 -0.00000000000E+00 -0.00000000000E+00 -0.57387569371E+02  0.57387569371E+02  0.00000000000E+00 0. -1.
         25    1    1    2    0    0 -0.10571277215E+03  0.41825053941E+01  0.23524961001E+03  0.28663576636E+03  0.12500000000E+03 0.  0.
         25    1    1    2    0    0  0.10385652383E+03 -0.65424389585E+02  0.25954744723E+03  0.31313959452E+03  0.12500000000E+03 0.  0.
         25    1    1    2    0    0  0.18562483180E+01  0.61241884191E+02  0.98414619951E+03  0.99394303461E+03  0.12500000000E+03 0.  0.
</event>
<event>
 5    0  0.5597833E-005  0.2638451E+03  0.7546771E-02  0.1104855E+00
         21   -1    0    0  502  501  0.00000000000E+00  0.00000000000E+00  0.74315170415E+03  0.74315170415E+03  0.00000000000E+00 0. -1.
         21   -1    0    0  501  502 -0.00000000000E+00 -0.00000000000E+00 -0.93674296056E+02  0.93674296056E+02  0.00000000000E+00 0. -1.
         25    1    1    2    0    0  0.98932054712E+02 -0.10653807371E+03  0.36170164459E+03  0.40937878828E+03  0.12500000000E+03 0.  0.
         25    1    1    2    0    0  0.17039060347E+02  0.40535976150E+02  0.10684305655E+03  0.17021731308E+03  0.12500000000E+03 0.  0.
         25    1    1    2    0    0 -0.11597111506E+03  0.66002097559E+02  0.18093270695E+03  0.25722989884E+03  0.12500000000E+03 0.  0.
</event>
<event>
 5    0  0.5597833E-005  0.4211607E+03  0.7546771E-02  0.1036689E+00
         21   -1    0    0  502  501  0.00000000000E+00  0.00000000000E+00  0.20282242489E+03  0.20282242489E+03  0.00000000000E+00 0. -1.
         21   -1    0    0  501  502 -0.00000000000E+00 -0.00000000000E+00 -0.87453995317E+03  0.87453995317E+03  0.00000000000E+00 0. -1.
         25    1    1    2    0    0 -0.62980318222E+02 -0.20084219958E+03 -0.66732672451E+03  0.71081225852E+03  0.12500000000E+03 0.  0.
         25    1    1    2    0    0  0.22832217848E+02  0.31163896484E+02 -0.61457911187E+02  0.14454955366E+03  0.12500000000E+03 0.  0.
         25    1    1    2    0    0  0.40148100374E+02  0.16967830310E+03  0.57067107418E+02  0.22200056589E+03  0.12500000000E+03 0.  0.
</event>
<event>
 5    0  0.5597833E-005  0.2633081E+03  0.7546771E-02  0.1105172E+00
         21   -1    0    0  502  501  0.00000000000E+00  0.00000000000E+00  0.14294520481E+04  0.14294520481E+04  0.00000000000E+00 0.  1.
         21   -1    0    0  501  502 -0.00000000000E+00 -0.00000000000E+00 -0.48501923696E+02  0.48501923696E+02  0.00000000000E+00 0.  1.
         25    1    1    2    0    0  0.99302392870E+02 -0.89901872340E+02  0.71758411093E+03  0.74060466386E+03  0.12500000000E+03 0.  0.
         25    1    1    2    0    0 -0.43539863059E+02  0.46615701404E+02  0.50257015649E+03  0.52179546327E+03  0.12500000000E+03 0.  0.
         25    1    1    2    0    0 -0.55762529811E+02  0.43286170936E+02  0.16079585698E+03  0.21555384466E+03  0.12500000000E+03 0.  0.
</event>
<event>
 5    0  0.5597833E-005  0.5155336E+03  0.7546771E-02  0.1009802E+00
         21   -1    0    0  502  501  0.00000000000E+00  0.00000000000E+00  0.13269797978E+03  0.13269797978E+03  0.00000000000E+00 0. -1.
         21   -1    0    0  501  502 -0.00000000000E+00 -0.00000000000E+00 -0.20028553208E+04  0.20028553208E+04  0.00000000000E+00 0. -1.
         25    1    1    2    0    0  0.27770598634E+03 -0.33469729735E+03 -0.50494719474E+03  0.67804097603E+03  0.12500000000E+03 0.  0.
         25    1    1    2    0    0 -0.11245432635E+03  0.19147686324E+03 -0.59857950818E+03  0.65056267360E+03  0.12500000000E+03 0.  0.
         25    1    1    2    0    0 -0.16525166000E+03  0.14322043411E+03 -0.76663063812E+03  0.80694965096E+03  0.12500000000E+03 0.  0.
</event>
<event>
 5    0  0.5597833E-005  0.3223664E+03  0.7546771E-02  0.1074565E+00
         21   -1    0    0  502  501  0.00000000000E+00  0.00000000000E+00  0.10300666974E+03  0.10300666974E+03  0.00000000000E+00 0. -1.
         21   -1    0    0  501  502 -0.00000000000E+00 -0.00000000000E+00 -0.10088674540E+04  0.10088674540E+04  0.00000000000E+00 0. -1.
         25    1    1    2    0    0 -0.95668622158E+02  0.17376713156E+03 -0.24655889580E+03  0.34024078294E+03  0.12500000000E+03 0.  0.
         25    1    1    2    0    0 -0.44955443059E+02 -0.24619513239E+02 -0.11762313510E+03  0.17912932257E+03  0.12500000000E+03 0.  0.
         25    1    1    2    0    0  0.14062406522E+03 -0.14914761833E+03 -0.54167875338E+03  0.59250401824E+03  0.12500000000E+03 0.  0.
</event>
<event>
 5    0  0.5597833E-005  0.3027203E+03  0.7546771E-02  0.1083889E+00
         21   -1    0    0  502  501  0.00000000000E+00  0.00000000000E+00  0.62971689962E+03  0.62971689962E+03  0.00000000000E+00 0.  1.
         21   -1    0    0  501  502 -0.00000000000E+00 -0.00000000000E+00 -0.14552505241E+03  0.14552505241E+03  0.00000000000E+00 0.  1.
         25    1    1    2    0    0 -0.70699956438E+02  0.41604557363E+02  0.17356123042E+03  0.22908060533E+03  0.12500000000E+03 0.  0.
         25    1    1    2    0    0  0.11125731793E+01 -0.19509932188E+03  0.21298080168E+03  0.31472337870E+03  0.12500000000E+03 0.  0.
         25    1    1    2    0    0  0.69587383259E+02  0.15349476452E+03  0.97649815110E+02  0.23143796800E+03  0.12500000000E+03 0.  0.
</event>
<event>
 5    0  0.5960757E-005  0.4541988E+03  0.7546771E-02  0.1026477E+00
         21   -1    0    0  502  501  0.00000000000E+00  0.00000000000E+00  0.71325951673E+03  0.71325951673E+03  0.00000000000E+00 0. -1.
         21   -1    0    0  501  502 -0.00000000000E+00 -0.00000000000E+00 -0.28923072560E+03  0.28923072560E+03  0.00000000000E+00 0. -1.
         25    1    1    2    0    0  0.21377259165E+03 -0.25074146529E+03  0.76122333800E+02  0.36054072316E+03  0.12500000000E+03 0.  0.
         25    1    1    2    0    0 -0.16800831781E+03  0.13678482063E+03  0.38852341791E+03  0.46207394243E+03  0.12500000000E+03 0.  0.
         25    1    1    2    0    0 -0.45764273839E+02  0.11395664466E+03 -0.40616960574E+02  0.17987557674E+03  0.12500000000E+03 0.  0.
</event>
<event>
 5    0  0.5597833E-005  0.5024956E+03  0.7546771E-02  0.1013130E+00
         21   -1    0    0  502  501  0.00000000000E+00  0.00000000000E+00  0.18270891187E+04  0.18270891187E+04  0.00000000000E+00 0. -1.
         21   -1    0    0  501  502 -0.00000000000E+00 -0.00000000000E+00 -0.13819894718E+03  0.13819894718E+03  0.00000000000E+00 0. -1.
         25    1    1    2    0    0  0.71907437839E+02  0.43976603647E+02  0.19994211493E+03  0.25041260074E+03  0.12500000000E+03 0.  0.
         25    1    1    2    0    0 -0.35527643454E+03  0.17997322433E+03  0.10660541483E+04  0.11448616308E+04  0.12500000000E+03 0.  0.
         25    1    1    2    0    0  0.28336899671E+03 -0.22394982797E+03  0.42289390825E+03  0.57001383438E+03  0.12500000000E+03 0.  0.
</event>
<event>
 5    0  0.5597833E-005  0.3590841E+03  0.7546771E-02  0.1058947E+00
         21   -1    0    0  502  501  0.00000000000E+00  0.00000000000E+00  0.26665383073E+03  0.26665383073E+03  0.00000000000E+00 0. -1.
         21   -1    0    0  501  502 -0.00000000000E+00 -0.00000000000E+00 -0.48355358188E+03  0.48355358188E+03  0.00000000000E+00 0. -1.
         25    1    1    2    0    0 -0.23345630992E+03  0.91918757256E+02 -0.24296379630E+02  0.28136492432E+03  0.12500000000E+03 0.  0.
         25    1    1    2    0    0  0.16831998576E+03 -0.14643423085E+03 -0.49034904836E+02  0.26039205722E+03  0.12500000000E+03 0.  0.
         25    1    1    2    0    0  0.65136324164E+02  0.54515473596E+02 -0.14356846668E+03  0.20845043107E+03  0.12500000000E+03 0.  0.
</event>
<event>
 5    0  0.5597833E-005  0.4160723E+03  0.7546771E-02  0.1038352E+00
         21   -1    0    0  502  501  0.00000000000E+00  0.00000000000E+00  0.21581446867E+04  0.21581446867E+04  0.00000000000E+00 0.  1.
         21   -1    0    0  501  502 -0.00000000000E+00 -0.00000000000E+00 -0.80215265750E+02  0.80215265750E+02  0.00000000000E+00 0.  1.
         25    1    1    2    0    0  0.11212518662E+03  0.10537116149E+02  0.17095743046E+03  0.23986356814E+03  0.12500000000E+03 0.  0.
         25    1    1    2    0    0 -0.19219637644E+03  0.20229495249E+03  0.69866376579E+03  0.76263933321E+03  0.12500000000E+03 0.  0.
         25    1    1    2    0    0  0.80071189817E+02 -0.21283206864E+03  0.12083082247E+04  0.12358570511E+04  0.12500000000E+03 0.  0.
</event>
<event>
 5    0  0.5597833E-005  0.3694319E+03  0.7546771E-02  0.1054910E+00
         21   -1    0    0  502  501  0.00000000000E+00  0.00000000000E+00  0.23421626592E+03  0.23421626592E+03  0.00000000000E+00 0. -1.
         21   -1    0    0  501  502 -0.00000000000E+00 -0.00000000000E+00 -0.58270907525E+03  0.58270907525E+03  0.00000000000E+00 0. -1.
         25    1    1    2    0    0 -0.14900279077E+01  0.95731599508E+02  0.15475021939E+03  0.22076999281E+03  0.12500000000E+03 0.  0.
         25    1    1    2    0    0  0.31860925098E+02  0.33280344652E+02 -0.16598409683E+03  0.21283425544E+03  0.12500000000E+03 0.  0.
         25    1    1    2    0    0 -0.30370897190E+02 -0.12901194416E+03 -0.33725893188E+03  0.38332109291E+03  0.12500000000E+03 0.  0.
</event>
<event>
 5    0  0.5597833E-005  0.5157145E+03  0.7546771E-02  0.1009757E+00
         21   -1    0    0  502  501  0.00000000000E+00  0.00000000000E+00  0.89882585137E+03  0.89882585137E+03  0.00000000000E+00 0.  1.
         21   -1    0    0  501  502 -0.00000000000E+00 -0.00000000000E+00 -0.29589877745E+03  0.29589877745E+03  0.00000000000E+00 0.  1.
         25    1    1    2    0    0 -0.19123026823E+03 -0.17519783356E+03 -0.61558619832E+02  0.29441086945E+03  0.12500000000E+03 0.  0.
         25    1    1    2    0    0  0.24146774491E+02  0.11791732584E+03 -0.27130113423E+02  0.17563771094E+03  0.12500000000E+03 0.  0.
         25    1    1    2    0    0  0.16708349374E+03  0.57280507728E+02  0.69161580717E+03  0.72467604844E+03  0.12500000000E+03 0.  0.
</event>
<event>
 5    0  0.5597833E-005  0.6058732E+03  0.7546771E-02  0.9893295E-01
         21   -1    0    0  502  501  0.00000000000E+00  0.00000000000E+00  0.31513891749E+03  0.31513891749E+03  0.00000000000E+00 0.  1.
         21   -1    0    0  501  502 -0.00000000000E+00 -0.00000000000E+00 -0.11648269425E+04  0.11648269425E+04  0.00000000000E+00 0.  1.
         25    1    1    2    0    0  0.53870076394E+03  0.77072679161E+01 -0.58506546557E+03  0.80509907096E+03  0.12500000000E+03 0.  0.
         25    1    1    2    0    0 -0.29294804830E+03 -0.93172688531E+02 -0.15220225345E+03  0.36508935187E+03  0.12500000000E+03 0.  0.
         25    1    1    2    0    0 -0.24575271565E+03  0.85465420615E+02 -0.11242030596E+03  0.30977743714E+03  0.12500000000E+03 0.  0.
</event>
<event>
 5    0  0.5597833E-005  0.2094105E+03  0.7546771E-02  0.1142034E+00
         21   -1    0    0  502  501  0.00000000000E+00  0.00000000000E+00  0.85304053656E+02  0.85304053656E+02  0.00000000000E+00 0.  1.
         21   -1    0    0  501  502 -0.00000000000E+00 -0.00000000000E+00 -0.51407611904E+03  0.51407611904E+03  0.00000000000E+00 0.  1.
         25    1    1    2    0    0 -0.42184473482E+02 -0.84745489527E+00 -0.18370352795E+03  0.22616859677E+03  0.12500000000E+03 0.  0.
         25    1    1    2    0    0  0.51538852700E+02  0.36821634200E+02 -0.75129749623E+02  0.15900177786E+03  0.12500000000E+03 0.  0.
         25    1    1    2    0    0 -0.93543792185E+01 -0.35974179305E+02 -0.16993878781E+03  0.21420979807E+03  0.12500000000E+03 0.  0.
</event>
<event>
 5    0  0.5597833E-005  0.2628858E+03  0.7546771E-02  0.1105422E+00
         21   -1    0    0  502  501  0.00000000000E+00  0.00000000000E+00  0.11313017588E+03  0.11313017588E+03  0.00000000000E+00 0.  1.
         21   -1    0    0  501  502 -0.00000000000E+00 -0.00000000000E+00 -0.61087967507E+03  0.61087967507E+03  0.00000000000E+00 0.  1.
         25    1    1    2    0    0  0.39200050778E+01 -0.57266560861E+02 -0.15050810512E+03  0.20389339161E+03  0.12500000000E+03 0.  0.
         25    1    1    2    0    0  0.97153841067E+02 -0.67383607547E+02 -0.22335618992E+03  0.28194397843E+03  0.12500000000E+03 0.  0.
         25    1    1    2    0    0 -0.10107384614E+03  0.12465016841E+03 -0.12388520415E+03  0.23817248092E+03  0.12500000000E+03 0.  0.
</event>
<event>
 5    0  0.6002405E-005  0.3991930E+03  0.7546771E-02  0.1044059E+00
         21   -1    0    0  502  501  0.00000000000E+00  0.00000000000E+00  0.48450601211E+03  0.48450601211E+03  0.00000000000E+00 0. -1.
         21   -1    0    0  501  502 -0.00000000000E+00 -0.00000000000E+00 -0.32890218146E+03  0.32890218146E+03  0.00000000000E+00 0. -1.
         25    1    1    2    0    0  0.49269841353E+02 -0.61048406458E+02  0.27632065493E+03  0.31326112038E+03  0.12500000000E+03 0.  0.
         25    1    1    2    0    0  0.13529762581E+03 -0.88477613151E+02 -0.10869716705E+03  0.23146016872E+03  0.12500000000E+03 0.  0.
         25    1    1    2    0    0 -0.18456746717E+03  0.14952601961E+03 -0.12019657239E+02  0.26868690448E+03  0.12500000000E+03 0.  0.
</event>
<event>
 5    0  0.5597833E-005  0.3256671E+03  0.7546771E-02  0.1073070E+00
         21   -1    0    0  502  501  0.00000000000E+00  0.00000000000E+00  0.91428889608E+02  0.91428889608E+02  0.00000000000E+00 0. -1.
         21   -1    0    0  501  502 -0.00000000000E+00 -0.00000000000E+00 -0.11600171556E+04  0.11600171556E+04  0.00000000000E+00 0. -1.
         25    1    1    2    0    0  0.21573524825E+03  0.11026502543E+03 -0.35611757184E+03  0.44849169239E+03  0.12500000000E+03 0.  0.
         25    1    1    2    0    0 -0.17801888788E+03 -0.52163858821E+02 -0.37792284533E+03  0.43916109759E+03  0.12500000000E+03 0.  0.
         25    1    1    2    0    0 -0.37716360366E+02 -0.58101166613E+02 -0.33454784884E+03  0.36379325525E+03  0.12500000000E+03 0.  0.
</event>
<event>
 5    0  0.5597833E-005  0.4410928E+03  0.7546771E-02  0.1030412E+00
         21   -1    0    0  502  501  0.00000000000E+00  0.00000000000E+00  0.14861590579E+04  0.14861590579E+04  0.00000000000E+00 0.  1.
         21   -1    0    0  501  502 -0.00000000000E+00 -0.00000000000E+00 -0.13091659077E+03  0.13091659077E+03  0.00000000000E+00 0.  1.
         25    1    1    2    0    0 -0.24242026164E+03  0.48789585211E+02  0.88237993417E+03  0.92486072200E+03  0.12500000000E+03 0.  0.
         25    1    1    2    0    0  0.28863543359E+01  0.13029272605E+03  0.18808805921E+03  0.26074248507E+03  0.12500000000E+03 0.  0.
         25    1    1    2    0    0  0.23953390731E+03 -0.17908231126E+03  0.28477447377E+03  0.43147244161E+03  0.12500000000E+03 0.  0.
</event>
<event>
 5    0  0.5597833E-005  0.2981952E+03  0.7546771E-02  0.1086146E+00
         21   -1    0    0  502  501  0.00000000000E+00  0.00000000000E+00  0.35415123854E+03  0.35415123854E+03  0.00000000000E+00 0. -1.
         21   -1    0    0  501  502 -0.00000000000E+00 -0.00000000000E+00 -0.25108030480E+03  0.25108030480E+03  0.00000000000E+00 0. -1.
         25    1    1    2    0    0  0.40655721484E+02 -0.14886405198E+03 -0.94529983848E+02  0.21994160932E+03  0.12500000000E+03 0.  0.
         25    1    1    2    0    0  0.38561755246E+02  0.15967583068E+02  0.82761349561E+02  0.15561623841E+03  0.12500000000E+03 0.  0.
         25    1    1    2    0    0 -0.79217476730E+02  0.13289646891E+03  0.11483956803E+03  0.22967369561E+03  0.12500000000E+03 0.  0.
</event>
<event>
 5    0  0.5597833E-005  0.2227548E+03  0.7546771E-02  0.1131846E+00
         21   -1    0    0  502  501  0.00000000000E+00  0.00000000000E+00  0.25084721941E+03  0.25084721941E+03  0.00000000000E+00 0. -1.
         21   -1    0    0  501  502 -0.00000000000E+00 -0.00000000000E+00 -0.19780849410E+03  0.19780849410E+03  0.00000000000E+00 0. -1.
         25    1    1    2    0    0  0.38157107040E+02  0.10030287387E+03  0.33238305547E+02  0.16806670188E+03  0.12500000000E+03 0.  0.
         25    1    1    2    0    0 -0.22428917177E+02 -0.49446507792E+02 -0.22857969743E+02  0.13818646909E+03  0.12500000000E+03 0.  0.
         25    1    1    2    0    0 -0.15728189862E+02 -0.50856366077E+02  0.42658389506E+02  0.14240254254E+03  0.12500000000E+03 0.  0.
</event>
<event>
 5    0  0.5597833E-005  0.3030676E+03  0.7546771E-02  0.1083717E+00
         21   -1    0    0  502  501  0.00000000000E+00  0.00000000000E+00  0.43697505913E+03  0.43697505913E+03  0.00000000000E+00 0. -1.
         21   -1    0    0  501  502 -0.00000000000E+00 -0.00000000000E+00 -0.21019501716E+03  0.21019501716E+03  0.00000000000E+00 0. -1.
         25    1    1    2    0    0  0.10658011802E+03  0.12244110316E+03 -0.21278824377E+02  0.20598284799E+03  0.12500000000E+03 0.  0.
         25    1    1    2    0    0 -0.11800837801E+03 -0.18847170945E+02  0.21360123095E+03  0.27483027307E+03  0.12500000000E+03 0.  0.
         25    1    1    2    0    0  0.11428259995E+02 -0.10359393221E+03  0.34457635398E+02  0.16635695524E+03  0.12500000000E+03 0.  0.
</event>
<event>
 5    0  0.5597833E-005  0.4491043E+03  0.7546771E-02  0.1027989E+00
         21   -1    0    0  502  501  0.00000000000E+00  0.00000000000E+00  0.51587579648E+03  0.51587579648E+03  0.00000000000E+00 0.  1.
         21   -1    0    0  501  502 -0.00000000000E+00 -0.00000000000E+00 -0.39097521715E+03  0.39097521715E+03  0.00000000000E+00 0.  1.
         25    1    1    2    0    0  0.21876771321E+02  0.26239528954E+03 -0.16303633082E+03  0.33396964872E+03  0.12500000000E+03 0.  0.
         25    1    1    2    0    0  0.66879617564E+02 -0.16206610482E+03  0.32117451178E+03  0.38667347025E+03  0.12500000000E+03 0.  0.
         25    1    1    2    0    0 -0.88756388885E+02 -0.10032918472E+03 -0.33237601628E+02  0.18620789467E+03  0.12500000000E+03 0.  0.
</event>
<event>
 5    0  0.5597833E-005  0.2355010E+03  0.7546771E-02  0.1122827E+00
         21   -1    0    0  502  501  0.00000000000E+00  0.00000000000E+00  0.63835138521E+02  0.63835138521E+02  0.00000000000E+00 0.  1.
         21   -1    0    0  501  502 -0.00000000000E+00 -0.00000000000E+00 -0.86881204863E+03  0.86881204863E+03  0.00000000000E+00 0.  1.
         25    1    1    2    0    0 -0.13489574080E+02 -0.10472030468E+03 -0.27861780725E+03  0.32311173507E+03  0.12500000000E+03 0.  0.
         25    1    1    2    0    0 -0.32441377362E+02  0.18143167426E+02 -0.13760518614E+03  0.18958323961E+03  0.12500000000E+03 0.  0.
         25    1    1    2    0    0  0.45930951442E+02  0.86577137254E+02 -0.38875391673E+03  0.41995221248E+03  0.12500000000E+03 0.  0.
</event>
<event>
 5    0  0.5597833E-005  0.2162674E+03  0.7546771E-02  0.1136697E+00
         21   -1    0    0  502  501  0.00000000000E+00  0.00000000000E+00  0.11462348166E+03  0.11462348166E+03  0.00000000000E+00 0. -1.
         21   -1    0    0  501  502 -0.00000000000E+00 -0.00000000000E+00 -0.40804554767E+03  0.40804554767E+03  0.00000000000E+00 0. -1.
         25    1    1    2    0    0 -0.29496083872E+02  0.11611710431E+02 -0.32158515937E+02  0.13290606055E+03  0.12500000000E+03 0.  0.
         25    1    1    2    0    0  0.73453929647E+02  0.23848454713E+02 -0.98426395232E+02  0.17685300068E+03  0.12500000000E+03 0.  0.
         25    1    1    2    0    0 -0.43957845775E+02 -0.35460165144E+02 -0.16283715484E+03  0.21290996810E+03  0.12500000000E+03 0.  0.
</event>
<event>
 5    0  0.5597833E-005  0.2153955E+03  0.7546771E-02  0.1137363E+00
         21   -1    0    0  502  501  0.00000000000E+00  0.00000000000E+00  0.22886206418E+03  0.22886206418E+03  0.00000000000E+00 0.  1.
         21   -1    0    0  501  502 -0.00000000000E+00 -0.00000000000E+00 -0.20272140046E+03  0.20272140046E+03  0.00000000000E+00 0.  1.
         25    1    1    2    0    0 -0.38858623200E+02  0.70624967407E+02  0.19529859083E+02  0.15001431270E+03  0.12500000000E+03 0.  0.
         25    1    1    2    0    0 -0.57517954669E+01 -0.79700009940E+02  0.72604759744E+01  0.14853581806E+03  0.12500000000E+03 0.  0.
         25    1    1    2    0    0  0.44610418667E+02  0.90750425325E+01 -0.64967134157E+00  0.13303333388E+03  0.12500000000E+03 0.  0.
</event>
<event>
 5    0  0.5597833E-005  0.2019303E+03  0.7546771E-02  0.1148121E+00
         21   -1    0    0  502  501  0.00000000000E+00  0.00000000000E+00  0.10748534536E+03  0.10748534536E+03  0.00000000000E+00 0.  1.
         21   -1    0    0  501  502 -0.00000000000E+00 -0.00000000000E+00 -0.37936201877E+03  0.37936201877E+03  0.00000000000E+00 0.  1.
         25    1    1    2    0    0 -0.51267691421E+02  0.33402376747E+01 -0.91527980908E+02  0.16322348073E+03  0.12500000000E+03 0.  0.
         25    1    1    2    0    0  0.57399622346E+02  0.18922017959E+02 -0.11715472856E+03  0.18166725030E+03  0.12500000000E+03 0.  0.
         25    1    1    2    0    0 -0.61319309250E+01 -0.22262255633E+02 -0.63193963939E+02  0.14195663310E+03  0.12500000000E+03 0.  0.
</event>
<event>
 5    0  0.5597833E-005  0.2610785E+03  0.7546771E-02  0.1106497E+00
         21   -1    0    0  502  501  0.00000000000E+00  0.00000000000E+00  0.52271350961E+03  0.52271350961E+03  0.00000000000E+00 0.  1.
         21   -1    0    0  501  502 -0.00000000000E+00 -0.00000000000E+00 -0.13040022561E+03  0.13040022561E+03  0.00000000000E+00 0.  1.
         25    1    1    2    0    0 -0.60781027621E+02 -0.13505462451E+03  0.22858447733E+03  0.29968307960E+03  0.12500000000E+03 0.  0.
         25    1    1    2    0    0  0.22445608367E+02  0.49251313499E+01  0.84792632488E+02  0.15278367968E+03  0.12500000000E+03 0.  0.
         25    1    1    2    0    0  0.38335419254E+02  0.13012949316E+03  0.78936174172E+02  0.20064697594E+03  0.12500000000E+03 0.  0.
</event>
<event>
 5    0  0.5597833E-005  0.5638622E+03  0.7546771E-02  0.9983353E-01
         21   -1    0    0  502  501  0.00000000000E+00  0.00000000000E+00  0.11447561059E+04  0.11447561059E+04  0.00000000000E+00 0.  1.
         21   -1    0    0  501  502 -0.00000000000E+00 -0.00000000000E+00 -0.27773653100E+03  0.27773653100E+03  0.00000000000E+00 0.  1.
         25    1    1    2    0    0  0.11392375203E+03  0.33613970759E+02  0.15776097326E+03  0.23371359608E+03  0.12500000000E+03 0.  0.
         25    1    1    2    0    0 -0.49121631523E+03  0.21428572727E+02  0.57231115849E+03  0.76479913324E+03  0.12500000000E+03 0.  0.
         25    1    1    2    0    0  0.37729256320E+03 -0.55042543486E+02  0.13694744314E+03  0.42397990757E+03  0.12500000000E+03 0.  0.
</event>
<event>
 5    0  0.5597833E-005  0.2545077E+03  0.7546771E-02  0.1110489E+00
         21   -1    0    0  502  501  0.00000000000E+00  0.00000000000E+00  0.82936807131E+02  0.82936807131E+02  0.00000000000E+00 0.  1.
         21   -1    0    0  501  502 -0.00000000000E+00 -0.00000000000E+00 -0.78100618395E+03  0.78100618395E+03  0.00000000000E+00 0.  1.
         25    1    1    2    0    0  0.34616116082E+02 -0.25861423413E+02 -0.62459124965E+02  0.14626425060E+03  0.12500000000E+03 0.  0.
         25    1    1    2    0    0 -0.10909122412E+03  0.63478442397E+02 -0.40719544760E+03  0.44425616527E+03  0.12500000000E+03 0.  0.
         25    1    1    2    0    0  0.74475108033E+02 -0.37617018983E+02 -0.22841480425E+03  0.27342257521E+03  0.12500000000E+03 0.  0.
</event>
<event>
 5    0  0.5597833E-005  0.4398052E+03  0.7546771E-02  0.1030807E+00
         21   -1    0    0  502  501  0.00000000000E+00  0.00000000000E+00  0.13518428916E+04  0.13518428916E+04  0.00000000000E+00 0.  1.
         21   -1    0    0  501  502 -0.00000000000E+00 -0.00000000000E+00 -0.14308512247E+03  0.14308512247E+03  0.00000000000E+00 0.  1.
         25    1    1    2    0    0  0.17692662537E+03 -0.11557644483E+03  0.81259015117E+03  0.84887496084E+03  0.12500000000E+03 0.  0.
         25    1    1    2    0    0  0.27785249271E+02 -0.10577460741E+03  0.21845088793E+03  0.27441952935E+03  0.12500000000E+03 0.  0.
         25    1    1    2    0    0 -0.20471187464E+03  0.22135105224E+03  0.17771673006E+03  0.37163352391E+03  0.12500000000E+03 0.  0.
</event>
<event>
 5    0  0.5597833E-005  0.3290143E+03  0.7546771E-02  0.1071574E+00
         21   -1    0    0  502  501  0.00000000000E+00  0.00000000000E+00  0.57442435847E+03  0.57442435847E+03  0.00000000000E+00 0.  1.
         21   -1    0    0  501  502 -0.00000000000E+00 -0.00000000000E+00 -0.18845022413E+03  0.18845022413E+03  0.00000000000E+00 0.  1.
         25    1    1    2    0    0  0.19156963903E+03  0.14198925118E+03  0.22532088985E+03  0.35107602802E+03  0.12500000000E+03 0.  0.
         25    1    1    2    0    0 -0.17179633238E+03 -0.10440219276E+03  0.14798418023E+03  0.27917398745E+03  0.12500000000E+03 0.  0.
         25    1    1    2    0    0 -0.19773306653E+02 -0.37587058429E+02  0.12669064263E+02  0.13262456713E+03  0.12500000000E+03 0.  0.
</event>
<event>
 5    0  0.5597833E-005  0.5350577E+03  0.7546771E-02  0.1005013E+00
         21   -1    0    0  502  501  0.00000000000E+00  0.00000000000E+00  0.66349756824E+03  0.66349756824E+03  0.00000000000E+00 0. -1.
         21   -1    0    0  501  502 -0.00000000000E+00 -0.00000000000E+00 -0.43148119379E+03  0.43148119379E+03  0.00000000000E+00 0. -1.
         25    1    1    2    0    0 -0.10914260560E+02  0.19193628479E+03 -0.15683389478E+03  0.27781383885E+03  0.12500000000E+03 0.  0.
         25    1    1    2    0    0 -0.11027328738E+02 -0.37213348718E+03  0.44116253161E+03  0.59063890285E+03  0.12500000000E+03 0.  0.
         25    1    1    2    0    0  0.21941589298E+02  0.18019720239E+03 -0.52312262382E+02  0.22652602033E+03  0.12500000000E+03 0.  0.
</event>
<event>
 5    0  0.5597833E-005  0.2536962E+03  0.7546771E-02  0.1110991E+00
         21   -1    0    0  502  501  0.00000000000E+00  0.00000000000E+00  0.54989088606E+02  0.54989088606E+02  0.00000000000E+00 0. -1.
         21   -1    0    0  501  502 -0.00000000000E+00 -0.00000000000E+00 -0.11704461532E+04  0.11704461532E+04  0.00000000000E+00 0. -1.
         25    1    1    2    0    0 -0.18325681369E+02 -0.11495543410E+03 -0.65375481526E+03  0.67570033366E+03  0.12500000000E+03 0.  0.
         25    1    1    2    0    0 -0.39419916620E+02  0.57298933569E+02 -0.17097458489E+03  0.22292242214E+03  0.12500000000E+03 0.  0.
         25    1    1    2    0    0  0.57745597989E+02  0.57656500536E+02 -0.29072766447E+03  0.32681248603E+03  0.12500000000E+03 0.  0.
</event>
<event>
 5    0  0.5597833E-005  0.2630748E+03  0.7546771E-02  0.1105310E+00
         21   -1    0    0  502  501  0.00000000000E+00  0.00000000000E+00  0.28824499261E+03  0.28824499261E+03  0.00000000000E+00 0. -1.
         21   -1    0    0  501  502 -0.00000000000E+00 -0.00000000000E+00 -0.24010247663E+03  0.24010247663E+03  0.00000000000E+00 0. -1.
         25    1    1    2    0    0 -0.10224880003E+03 -0.54491324556E+02 -0.34317756325E+02  0.17385864936E+03  0.12500000000E+03 0.  0.
         25    1    1    2    0    0  0.99194995997E+02  0.11921303494E+03  0.19128435344E+02  0.20010570199E+03  0.12500000000E+03 0.  0.
         25    1    1    2    0    0  0.30538040301E+01 -0.64721710389E+02  0.63331836960E+02  0.15438311788E+03  0.12500000000E+03 0.  0.
</event>
<event>
 5    0  0.5597833E-005  0.3834921E+03  0.7546771E-02  0.1049651E+00
         21   -1    0    0  502  501  0.00000000000E+00  0.00000000000E+00  0.82826908364E+03  0.82826908364E+03  0.00000000000E+00 0.  1.
         21   -1    0    0  501  502 -0.00000000000E+00 -0.00000000000E+00 -0.17755847970E+03  0.17755847970E+03  0.00000000000E+00 0.  1.
         25    1    1    2    0    0  0.15425386679E+02 -0.63224735960E+02  0.70849208237E+03  0.72237202366E+03  0.12500000000E+03 0.  0.
         25    1    1    2    0    0  0.67234008377E+01  0.39105770762E+02  0.19955933270E+02  0.13265634059E+03  0.12500000000E+03 0.  0.
         25    1    1    2    0    0 -0.22148787517E+02  0.24118965198E+02 -0.77737411698E+02  0.15079919910E+03  0.12500000000E+03 0.  0.
</event>
<event>
 5    0  0.5597833E-005  0.2955982E+03  0.7546771E-02  0.1087462E+00
         21   -1    0    0  502  501  0.00000000000E+00  0.00000000000E+00  0.61775882903E+03  0.61775882903E+03  0.00000000000E+00 0. -1.
         21   -1    0    0  501  502 -0.00000000000E+00 -0.00000000000E+00 -0.14144399232E+03  0.14144399232E+03  0.00000000000E+00 0. -1.
         25    1    1    2    0    0 -0.17155598395E+01 -0.25783875047E+01  0.36818234498E+02  0.13034636021E+03  0.12500000000E+03 0.  0.
         25    1    1    2    0    0 -0.11656532923E+03  0.10852702892E+03  0.35732984362E+03  0.41070087548E+03  0.12500000000E+03 0.  0.
         25    1    1    2    0    0  0.11828088907E+03 -0.10594864142E+03  0.82166758592E+02  0.21815558566E+03  0.12500000000E+03 0.  0.
</event>
<event>
 5    0  0.5597833E-005  0.3175185E+03  0.7546771E-02  0.1076797E+00
         21   -1    0    0  502  501  0.00000000000E+00  0.00000000000E+00  0.97364865377E+02  0.97364865377E+02  0.00000000000E+00 0. -1.
         21   -1    0    0  501  502 -0.00000000000E+00 -0.00000000000E+00 -0.10354658630E+04  0.10354658630E+04  0.00000000000E+00 0. -1.
         25    1    1    2    0    0 -0.20148150202E+02  0.81520658223E+02 -0.39215025534E+03  0.42006950430E+03  0.12500000000E+03 0.  0.
         25    1    1    2    0    0  0.39594012251E+02  0.14233035169E+03 -0.17180053752E+03  0.25877797339E+03  0.12500000000E+03 0.  0.
         25    1    1    2    0    0 -0.19445862049E+02 -0.22385100991E+03 -0.37415020476E+03  0.45398325070E+03  0.12500000000E+03 0.  0.
</event>
<event>
 5    0  0.5597833E-005  0.2928256E+03  0.7546771E-02  0.1088883E+00
         21   -1    0    0  502  501  0.00000000000E+00  0.00000000000E+00  0.20184163883E+03  0.20184163883E+03  0.00000000000E+00 0. -1.
         21   -1    0    0  501  502 -0.00000000000E+00 -0.00000000000E+00 -0.42482231047E+03  0.42482231047E+03  0.00000000000E+00 0. -1.
         25    1    1    2    0    0  0.10847571881E+03 -0.40688373423E+02 -0.19331524414E+03  0.25771749828E+03  0.12500000000E+03 0.  0.
         25    1    1    2    0    0  0.90847891160E+01 -0.62960812318E+02 -0.81056611197E+02  0.16199312177E+03  0.12500000000E+03 0.  0.
         25    1    1    2    0    0 -0.11756050792E+03  0.10364918574E+03  0.51391183692E+02  0.20695332925E+03  0.12500000000E+03 0.  0.
</event>
<event>
 5    0  0.5597833E-005  0.3392833E+03  0.7546771E-02  0.1067102E+00
         21   -1    0    0  502  501  0.00000000000E+00  0.00000000000E+00  0.10747033256E+03  0.10747033256E+03  0.00000000000E+00 0.  1.
         21   -1    0    0  501  502 -0.00000000000E+00 -0.00000000000E+00 -0.10711159005E+04  0.10711159005E+04  0.00000000000E+00 0.  1.
         25    1    1    2    0    0 -0.10106608194E+03 -0.12779610698E+03 -0.25152442091E+03  0.32470868820E+03  0.12500000000E+03 0.  0.
         25    1    1    2    0    0  0.28833124085E+02 -0.12529016210E+03 -0.29008845200E+03  0.34103560481E+03  0.12500000000E+03 0.  0.
         25    1    1    2    0    0  0.72232957857E+02  0.25308626908E+03 -0.42203269499E+03  0.51284194002E+03  0.12500000000E+03 0.  0.
</event>
<event>
 5    0  0.5597833E-005  0.2395648E+03  0.7546771E-02  0.1120083E+00
         21   -1    0    0  502  501  0.00000000000E+00  0.00000000000E+00  0.16126648183E+03  0.16126648183E+03  0.00000000000E+00 0.  1.
         21   -1    0    0  501  502 -0.00000000000E+00 -0.00000000000E+00 -0.35587872473E+03  0.35587872473E+03  0.00000000000E+00 0.  1.
         25    1    1    2    0    0  0.74854606374E+02  0.78096966926E+02 -0.13479274533E+03  0.21329892764E+03  0.12500000000E+03 0.  0.
         25    1    1    2    0    0 -0.71151000289E+02 -0.90808596706E+01  0.10771019911E+02  0.14451969321E+03  0.12500000000E+03 0.  0.
         25    1    1    2    0    0 -0.37036060847E+01 -0.69016107255E+02 -0.70590517481E+02  0.15932658572E+03  0.12500000000E+03 0.  0.
</event>
<event>
 5    0  0.5626712E-005  0.3300837E+03  0.7546771E-02  0.1071100E+00
         21   -1    0    0  502  501  0.00000000000E+00  0.00000000000E+00  0.20771187081E+03  0.20771187081E+03  0.00000000000E+00 0.  1.
         21   -1    0    0  501  502 -0.00000000000E+00 -0.00000000000E+00 -0.52455002445E+03  0.52455002445E+03  0.00000000000E+00 0.  1.
         25    1    1    2    0    0  0.12861553424E+03 -0.82314985336E+02 -0.13144501766E+02  0.19777636458E+03  0.12500000000E+03 0.  0.
         25    1    1    2    0    0  0.81413023027E+02  0.10481679903E+03 -0.69138155196E+02  0.19498647692E+03  0.12500000000E+03 0.  0.
         25    1    1    2    0    0 -0.21002855727E+03 -0.22501813690E+02 -0.23455549668E+03  0.33949905377E+03  0.12500000000E+03 0.  0.
</event>
<event>
 5    0  0.5597833E-005  0.4577372E+03  0.7546771E-02  0.1025440E+00
         21   -1    0    0  502  501  0.00000000000E+00  0.00000000000E+00  0.62447650567E+03  0.62447650567E+03  0.00000000000E+00 0. -1.
         21   -1    0    0  501  502 -0.00000000000E+00 -0.00000000000E+00 -0.33551842309E+03  0.33551842309E+03  0.00000000000E+00 0. -1.
         25    1    1    2    0    0  0.14300874268E+03 -0.20435984272E+03 -0.70855348008E+02  0.28785400144E+03  0.12500000000E+03 0.  0.
         25    1    1    2    0    0 -0.19689404905E+02 -0.11940046383E+03  0.27635407316E+02  0.17616145766E+03  0.12500000000E+03 0.  0.
         25    1    1    2    0    0 -0.12331933778E+03  0.32376030656E+03  0.33217802328E+03  0.49597946966E+03  0.12500000000E+03 0.  0.
</event>
<event>
 5    0  0.5597833E-005  0.4401514E+03  0.7546771E-02  0.1030700E+00
         21   -1    0    0  502  501  0.00000000000E+00  0.00000000000E+00  0.25610325963E+03  0.25610325963E+03  0.00000000000E+00 0.  1.
         21   -1    0    0  501  502 -0.00000000000E+00 -0.00000000000E+00 -0.75646542275E+03  0.75646542275E+03  0.00000000000E+00 0.  1.
         25    1    1    2    0    0 -0.10090344653E+01 -0.16807649081E+03 -0.36233725340E+03  0.41852599694E+03  0.12500000000E+03 0.  0.
         25    1    1    2    0    0  0.12050192440E+03  0.29883966926E+03 -0.17653477262E+02  0.34606720008E+03  0.12500000000E+03 0.  0.
         25    1    1    2    0    0 -0.11949288994E+03 -0.13076317845E+03 -0.12037143246E+03  0.24797548536E+03  0.12500000000E+03 0.  0.
</event>
<event>
 5    0  0.5597833E-005  0.5139126E+03  0.7546771E-02  0.1010210E+00
         21   -1    0    0  502  501  0.00000000000E+00  0.00000000000E+00  0.10033353490E+04  0.10033353490E+04  0.00000000000E+00 0. -1.
         21   -1    0    0  501  502 -0.00000000000E+00 -0.00000000000E+00 -0.26322820584E+03  0.26322820584E+03  0.00000000000E+00 0. -1.
         25    1    1    2    0    0 -0.44369798139E+02 -0.20780519191E+01  0.12611514261E+03  0.18303831971E+03  0.12500000000E+03 0.  0.
         25    1    1    2    0    0  0.28489286876E+03  0.33571459945E+03  0.37484453521E+03  0.59160938509E+03  0.12500000000E+03 0.  0.
         25    1    1    2    0    0 -0.24052307062E+03 -0.33363654753E+03  0.23914746534E+03  0.49191585005E+03  0.12500000000E+03 0.  0.
</event>
<event>
 5    0  0.5597833E-005  0.3358913E+03  0.7546771E-02  0.1068559E+00
         21   -1    0    0  502  501  0.00000000000E+00  0.00000000000E+00  0.20841912238E+03  0.20841912238E+03  0.00000000000E+00 0. -1.
         21   -1    0    0  501  502 -0.00000000000E+00 -0.00000000000E+00 -0.54132739903E+03  0.54132739903E+03  0.00000000000E+00 0. -1.
         25    1    1    2    0    0  0.10075773326E+03  0.14157740132E+03 -0.11785251665E+03  0.24435731431E+03  0.12500000000E+03 0.  0.
         25    1    1    2    0    0 -0.63929964544E+02 -0.16182120338E+03 -0.28466056270E+03  0.35627205642E+03  0.12500000000E+03 0.  0.
         25    1    1    2    0    0 -0.36827768718E+02  0.20243802060E+02  0.69604802687E+02  0.14911715068E+03  0.12500000000E+03 0.  0.
</event>
<event>
 5    0  0.6912915E-005  0.2880775E+03  0.7546771E-02  0.1091357E+00
         21   -1    0    0  502  501  0.00000000000E+00  0.00000000000E+00  0.13136787757E+03  0.13136787757E+03  0.00000000000E+00 0. -1.
         21   -1    0    0  501  502 -0.00000000000E+00 -0.00000000000E+00 -0.63172698857E+03  0.63172698857E+03  0.00000000000E+00 0. -1.
         25    1    1    2    0    0 -0.38665094612E+02 -0.11746009847E+03 -0.19982566420E+03  0.26617129888E+03  0.12500000000E+03 0.  0.
         25    1    1    2    0    0 -0.55388803359E+02 -0.16630253615E+01 -0.26346834148E+03  0.29683539572E+03  0.12500000000E+03 0.  0.
         25    1    1    2    0    0  0.94053897971E+02  0.11912312383E+03 -0.37065105326E+02  0.20008817154E+03  0.12500000000E+03 0.  0.
</event>
<event>
 5    0  0.5597833E-005  0.3096788E+03  0.7546771E-02  0.1080500E+00
         21   -1    0    0  502  501  0.00000000000E+00  0.00000000000E+00  0.55718311287E+02  0.55718311287E+02  0.00000000000E+00 0.  1.
         21   -1    0    0  501  502 -0.00000000000E+00 -0.00000000000E+00 -0.17211752884E+04  0.17211752884E+04  0.00000000000E+00 0.  1.
         25    1    1    2    0    0 -0.13010257595E+03  0.34355453857E+02 -0.52583695184E+03  0.55698875878E+03  0.12500000000E+03 0.  0.
         25    1    1    2    0    0  0.44120717615E+02  0.20417358272E+02 -0.99271041250E+03  0.10017297387E+04  0.12500000000E+03 0.  0.
         25    1    1    2    0    0  0.85981858339E+02 -0.54772812128E+02 -0.14690961275E+03  0.21817510222E+03  0.12500000000E+03 0.  0.
</event>
<event>
 5    0  0.5597833E-005  0.2491387E+03  0.7546771E-02  0.1113850E+00
         21   -1    0    0  502  501  0.00000000000E+00  0.00000000000E+00  0.12226109661E+03  0.12226109661E+03  0.00000000000E+00 0.  1.
         21   -1    0    0  501  502 -0.00000000000E+00 -0.00000000000E+00 -0.50768489761E+03  0.50768489761E+03  0.00000000000E+00 0.  1.
         25    1    1    2    0    0 -0.85255063068E+02  0.62092531207E+02 -0.80842138254E+02  0.18244001625E+03  0.12500000000E+03 0.  0.
         25    1    1    2    0    0 -0.18072983379E+02  0.15936762458E+02 -0.52339651849E+02  0.13764102688E+03  0.12500000000E+03 0.  0.
         25    1    1    2    0    0  0.10332804645E+03 -0.78029293664E+02 -0.25224201090E+03  0.30986495109E+03  0.12500000000E+03 0.  0.
</event>
<event>
 5    0  0.5597833E-005  0.3404549E+03  0.7546771E-02  0.1066602E+00
         21   -1    0    0  502  501  0.00000000000E+00  0.00000000000E+00  0.33299026492E+03  0.33299026492E+03  0.00000000000E+00 0. -1.
         21   -1    0    0  501  502 -0.00000000000E+00 -0.00000000000E+00 -0.34808697167E+03  0.34808697167E+03  0.00000000000E+00 0. -1.
         25    1    1    2    0    0 -0.68545179686E+00  0.16536632833E+03  0.14192491807E+03  0.25122534657E+03  0.12500000000E+03 0.  0.
         25    1    1    2    0    0  0.11641900845E+03 -0.35010178942E+02 -0.20453996804E+02  0.17556327675E+03  0.12500000000E+03 0.  0.
         25    1    1    2    0    0 -0.11573355665E+03 -0.13035614939E+03 -0.13656762801E+03  0.25428861327E+03  0.12500000000E+03 0.  0.
</event>
<event>
 5    0  0.5597833E-005  0.3871314E+03  0.7546771E-02  0.1048329E+00
         21   -1    0    0  502  501  0.00000000000E+00  0.00000000000E+00  0.19437199950E+03  0.19437199950E+03  0.00000000000E+00 0.  1.
         21   -1    0    0  501  502 -0.00000000000E+00 -0.00000000000E+00 -0.77105108337E+03  0.77105108337E+03  0.00000000000E+00 0.  1.
         25    1    1    2    0    0 -0.21587063076E+03 -0.16395757915E+03 -0.28190578231E+03  0.41058261907E+03  0.12500000000E+03 0.  0.
         25    1    1    2    0    0  0.26898717091E+03  0.11899519695E+03 -0.15641530393E+03  0.35581554536E+03  0.12500000000E+03 0.  0.
         25    1    1    2    0    0 -0.53116540157E+02  0.44962382195E+02 -0.13835799764E+03  0.19902491844E+03  0.12500000000E+03 0.  0.
</event>
<event>
 5    0  0.5597833E-005  0.2408742E+03  0.7546771E-02  0.1119212E+00
         21   -1    0    0  502  501  0.00000000000E+00  0.00000000000E+00  0.43655205204E+03  0.43655205204E+03  0.00000000000E+00 0. -1.
         21   -1    0    0  501  502 -0.00000000000E+00 -0.00000000000E+00 -0.13290603350E+03  0.13290603350E+03  0.00000000000E+00 0. -1.
         25    1    1    2    0    0 -0.65843823873E+02 -0.39738022906E+02  0.34617365371E+02  0.15079085381E+03  0.12500000000E+03 0.  0.
         25    1    1    2    0    0  0.99430059543E+02 -0.12340600292E+02  0.21708116337E+03  0.26979225090E+03  0.12500000000E+03 0.  0.
         25    1    1    2    0    0 -0.33586235670E+02  0.52078623198E+02  0.51947489798E+02  0.14887498083E+03  0.12500000000E+03 0.  0.
</event>
<event>
 5    0  0.5597833E-005  0.5512708E+03  0.7546771E-02  0.1001200E+00
         21   -1    0    0  502  501  0.00000000000E+00  0.00000000000E+00  0.33824714773E+03  0.33824714773E+03  0.00000000000E+00 0.  1.
         21   -1    0    0  501  502 -0.00000000000E+00 -0.00000000000E+00 -0.89845397323E+03  0.89845397323E+03  0.00000000000E+00 0.  1.
         25    1    1    2    0    0 -0.14660872730E+03 -0.67364743751E+02 -0.82894382593E+02  0.22029209311E+03  0.12500000000E+03 0.  0.
         25    1    1    2    0    0 -0.28994655665E+03 -0.10810412586E+03 -0.40412702006E+03  0.52411750217E+03  0.12500000000E+03 0.  0.
         25    1    1    2    0    0  0.43655528394E+03  0.17546886961E+03 -0.73185422846E+02  0.49229152568E+03  0.12500000000E+03 0.  0.
</event>
<event>
 5    0  0.5597833E-005  0.3217409E+03  0.7546771E-02  0.1074851E+00
         21   -1    0    0  502  501  0.00000000000E+00  0.00000000000E+00  0.59101243358E+03  0.59101243358E+03  0.00000000000E+00 0. -1.
         21   -1    0    0  501  502 -0.00000000000E+00 -0.00000000000E+00 -0.17515237067E+03  0.17515237067E+03  0.00000000000E+00 0. -1.
         25    1    1    2    0    0 -0.13988168352E+02 -0.22071368920E+02  0.35940751697E+03  0.38142047328E+03  0.12500000000E+03 0.  0.
         25    1    1    2    0    0  0.26367645400E+02  0.15267070331E+03  0.21819075082E+02  0.20026150007E+03  0.12500000000E+03 0.  0.
         25    1    1    2    0    0 -0.12379477048E+02 -0.13059933439E+03  0.34633470856E+02  0.18448283090E+03  0.12500000000E+03 0.  0.
</event>
<event>
 5    0  0.5597833E-005  0.2202545E+03  0.7546771E-02  0.1133693E+00
         21   -1    0    0  502  501  0.00000000000E+00  0.00000000000E+00  0.85757617890E+02  0.85757617890E+02  0.00000000000E+00 0.  1.
         21   -1    0    0  501  502 -0.00000000000E+00 -0.00000000000E+00 -0.56568806263E+03  0.56568806263E+03  0.00000000000E+00 0.  1.
         25    1    1    2    0    0  0.29970163433E+01 -0.21858151152E+02 -0.65519365458E+02  0.14284448932E+03  0.12500000000E+03 0.  0.
         25    1    1    2    0    0  0.75188629539E+02  0.20436808829E+02 -0.20006034767E+03  0.24843537566E+03  0.12500000000E+03 0.  0.
         25    1    1    2    0    0 -0.78185645883E+02  0.14213423230E+01 -0.21435073160E+03  0.26016581554E+03  0.12500000000E+03 0.  0.
</event>
<event>
 5    0  0.5597833E-005  0.6814215E+03  0.7546771E-02  0.9749542E-01
         21   -1    0    0  502  501  0.00000000000E+00  0.00000000000E+00  0.84476037912E+03  0.84476037912E+03  0.00000000000E+00 0.  1.
         21   -1    0    0  501  502 -0.00000000000E+00 -0.00000000000E+00 -0.54966498693E+03  0.54966498693E+03  0.00000000000E+00 0.  1.
         25    1    1    2    0    0  0.33533139151E+03  0.42487041068E+03  0.18973516532E+03  0.58701485583E+03  0.12500000000E+03 0.  0.
         25    1    1    2    0    0  0.18220179998E+02 -0.40482040936E+03  0.74988238316E+02  0.43065040889E+03  0.12500000000E+03 0.  0.
         25    1    1    2    0    0 -0.35355157150E+03 -0.20050001318E+02  0.30371988555E+02  0.37676010133E+03  0.12500000000E+03 0.  0.
</event>
<event>
 5    0  0.5597833E-005  0.3842794E+03  0.7546771E-02  0.1049363E+00
         21   -1    0    0  502  501  0.00000000000E+00  0.00000000000E+00  0.48266718546E+03  0.48266718546E+03  0.00000000000E+00 0. -1.
         21   -1    0    0  501  502 -0.00000000000E+00 -0.00000000000E+00 -0.30594722939E+03  0.30594722939E+03  0.00000000000E+00 0. -1.
         25    1    1    2    0    0  0.32262119588E+02  0.31291477923E+03  0.37933141504E+02  0.34061771335E+03  0.12500000000E+03 0.  0.
         25    1    1    2    0    0  0.36865071764E+02 -0.15745042147E+03  0.19026936174E+02  0.20527224128E+03  0.12500000000E+03 0.  0.
         25    1    1    2    0    0 -0.69127191352E+02 -0.15546435776E+03  0.11975987840E+03  0.24272446022E+03  0.12500000000E+03 0.  0.
</event>
<event>
 5    0  0.5597833E-005  0.2898644E+03  0.7546771E-02  0.1090420E+00
         21   -1    0    0  502  501  0.00000000000E+00  0.00000000000E+00  0.56767653010E+03  0.56767653010E+03  0.00000000000E+00 0. -1.
         21   -1    0    0  501  502 -0.00000000000E+00 -0.00000000000E+00 -0.14800928566E+03  0.14800928566E+03  0.00000000000E+00 0. -1.
         25    1    1    2    0    0  0.12770611468E+02  0.33333216452E+02 -0.71180274654E+00  0.12999884038E+03  0.12500000000E+03 0.  0.
         25    1    1    2    0    0 -0.83894349424E+02  0.97523986927E+02  0.86089300967E+02  0.19896119630E+03  0.12500000000E+03 0.  0.
         25    1    1    2    0    0  0.71123737955E+02 -0.13085720338E+03  0.33428974623E+03  0.38672577909E+03  0.12500000000E+03 0.  0.
</event>
<event>
 5    0  0.5597833E-005  0.2731568E+03  0.7546771E-02  0.1099486E+00
         21   -1    0    0  502  501  0.00000000000E+00  0.00000000000E+00  0.21398357114E+03  0.21398357114E+03  0.00000000000E+00 0.  1.
         21   -1    0    0  501  502 -0.00000000000E+00 -0.00000000000E+00 -0.34869336293E+03  0.34869336293E+03  0.00000000000E+00 0.  1.
         25    1    1    2    0    0  0.13936809995E+03  0.35993892665E+02  0.66948585189E+01  0.19075861376E+03  0.12500000000E+03 0.  0.
         25    1    1    2    0    0 -0.13239463651E+03  0.48501038745E+02 -0.48420905196E+02  0.19455147030E+03  0.12500000000E+03 0.  0.
         25    1    1    2    0    0 -0.69734634465E+01 -0.84494931410E+02 -0.92983745115E+02  0.17736685001E+03  0.12500000000E+03 0.  0.
</event>
<event>
 5    0  0.5597833E-005  0.4071995E+03  0.7546771E-02  0.1041315E+00
         21   -1    0    0  502  501  0.00000000000E+00  0.00000000000E+00  0.10004626781E+03  0.10004626781E+03  0.00000000000E+00 0.  1.
         21   -1    0    0  501  502 -0.00000000000E+00 -0.00000000000E+00 -0.16573473932E+04  0.16573473932E+04  0.00000000000E+00 0.  1.
         25    1    1    2    0    0  0.21288363459E+03 -0.98689053646E+02 -0.40554184711E+03  0.48492077801E+03  0.12500000000E+03 0.  0.
         25    1    1    2    0    0  0.51097467044E+02  0.68146461845E+02 -0.10207266370E+03  0.18247936890E+03  0.12500000000E+03 0.  0.
         25    1    1    2    0    0 -0.26398110164E+03  0.30542591801E+02 -0.10496866146E+04  0.10899935141E+04  0.12500000000E+03 0.  0.
</event>
<event>
 5    0  0.5597833E-005  0.2288595E+03  0.7546771E-02  0.1127445E+00
         21   -1    0    0  502  501  0.00000000000E+00  0.00000000000E+00  0.15478297658E+03  0.15478297658E+03  0.00000000000E+00 0.  1.
         21   -1    0    0  501  502 -0.00000000000E+00 -0.00000000000E+00 -0.33838767630E+03  0.33838767630E+03  0.00000000000E+00 0.  1.
         25    1    1    2    0    0 -0.12304897490E+02  0.13295636520E+02 -0.76626231807E+02  0.14773206779E+03  0.12500000000E+03 0.  0.
         25    1    1    2    0    0  0.41306685635E+01  0.99439504913E+02 -0.57250225880E+02  0.16972880110E+03  0.12500000000E+03 0.  0.
         25    1    1    2    0    0  0.81742289264E+01 -0.11273514143E+03 -0.49728242036E+02  0.17570978399E+03  0.12500000000E+03 0.  0.
</event>
<event>
 5    0  0.5597833E-005  0.2809709E+03  0.7546771E-02  0.1095160E+00
         21   -1    0    0  502  501  0.00000000000E+00  0.00000000000E+00  0.30475129330E+03  0.30475129330E+03  0.00000000000E+00 0.  1.
         21   -1    0    0  501  502 -0.00000000000E+00 -0.00000000000E+00 -0.25904614269E+03  0.25904614269E+03  0.00000000000E+00 0.  1.
         25    1    1    2    0    0 -0.11042111721E+03 -0.87018635553E+02  0.10859564515E+03  0.21721666650E+03  0.12500000000E+03 0.  0.
         25    1    1    2    0    0  0.11160237853E+03  0.11775279885E+03 -0.73068426937E+02  0.21745070142E+03  0.12500000000E+03 0.  0.
         25    1    1    2    0    0 -0.11812613215E+01 -0.30734163300E+02  0.10177932388E+02  0.12913006807E+03  0.12500000000E+03 0.  0.
</event>
<event>
 5    0  0.6334334E-005  0.3574799E+03  0.7546771E-02  0.1059586E+00
         21   -1    0    0  502  501  0.00000000000E+00  0.00000000000E+00  0.20127715609E+03  0.20127715609E+03  0.00000000000E+00 0.  1.
         21   -1    0    0  501  502 -0.00000000000E+00 -0.00000000000E+00 -0.63490488738E+03  0.63490488738E+03  0.00000000000E+00 0.  1.
         25    1    1    2    0    0 -0.64269130060E+01 -0.14062644865E+03 -0.74870380548E+02  0.20260226345E+03  0.12500000000E+03 0.  0.
         25    1    1    2    0    0  0.13479911671E+03 -0.61935390004E+02 -0.12725884509E+02  0.19440612783E+03  0.12500000000E+03 0.  0.
         25    1    1    2    0    0 -0.12837220370E+03  0.20256183865E+03 -0.34603146623E+03  0.43917365220E+03  0.12500000000E+03 0.  0.
</event>
<event>
 5    0  0.5597833E-005  0.3575627E+03  0.7546771E-02  0.1059553E+00
         21   -1    0    0  502  501  0.00000000000E+00  0.00000000000E+00  0.12388929834E+04  0.12388929834E+04  0.00000000000E+00 0.  1.
         21   -1    0    0  501  502 -0.00000000000E+00 -0.00000000000E+00 -0.10319787171E+03  0.10319787171E+03  0.00000000000E+00 0.  1.
         25    1    1    2    0    0 -0.15424502899E+03 -0.85117917904E+02  0.46914517585E+03  0.51648696493E+03  0.12500000000E+03 0.  0.
         25    1    1    2    0    0  0.26970072965E+02  0.18310378886E+03  0.14638042740E+03  0.26703297897E+03  0.12500000000E+03 0.  0.
         25    1    1    2    0    0  0.12727495602E+03 -0.97985870957E+02  0.52016950841E+03  0.55857091118E+03  0.12500000000E+03 0.  0.
</event>
<event>
 5    0  0.5597833E-005  0.3064053E+03  0.7546771E-02  0.1082082E+00
         21   -1    0    0  502  501  0.00000000000E+00  0.00000000000E+00  0.74806829418E+02  0.74806829418E+02  0.00000000000E+00 0. -1.
         21   -1    0    0  501  502 -0.00000000000E+00 -0.00000000000E+00 -0.12550219838E+04  0.12550219838E+04  0.00000000000E+00 0. -1.
         25    1    1    2    0    0  0.15636649113E+02  0.14119196652E+03 -0.18514759468E+03  0.26473441034E+03  0.12500000000E+03 0.  0.
         25    1    1    2    0    0  0.55869578307E+02 -0.14468204392E+03 -0.33720878483E+03  0.39164916466E+03  0.12500000000E+03 0.  0.
         25    1    1    2    0    0 -0.71506227420E+02  0.34900774004E+01 -0.65785877486E+03  0.67344523820E+03  0.12500000000E+03 0.  0.
</event>
<event>
 5    0  0.5597833E-005  0.6177625E+03  0.7546771E-02  0.9869225E-01
         21   -1    0    0  502  501  0.00000000000E+00  0.00000000000E+00  0.21119657593E+03  0.21119657593E+03  0.00000000000E+00 0. -1.
         21   -1    0    0  501  502 -0.00000000000E+00 -0.00000000000E+00 -0.18069921747E+04  0.18069921747E+04  0.00000000000E+00 0. -1.
         25    1    1    2    0    0 -0.30909050932E+03  0.41565884884E+02 -0.15837745920E+03  0.37144728471E+03  0.12500000000E+03 0.  0.
         25    1    1    2    0    0 -0.41188478084E+02 -0.17722564676E+03 -0.11136621181E+04  0.11353297908E+04  0.12500000000E+03 0.  0.
         25    1    1    2    0    0  0.35027898740E+03  0.13565976188E+03 -0.32375602148E+03  0.51141167512E+03  0.12500000000E+03 0.  0.
</event>
<event>
 5    0  0.5597833E-005  0.2685967E+03  0.7546771E-02  0.1102085E+00
         21   -1    0    0  502  501  0.00000000000E+00  0.00000000000E+00  0.74529784349E+03  0.74529784349E+03  0.00000000000E+00 0. -1.
         21   -1    0    0  501  502 -0.00000000000E+00 -0.00000000000E+00 -0.96799171391E+02  0.96799171391E+02  0.00000000000E+00 0. -1.
         25    1    1    2    0    0  0.30751819833E+02 -0.31041347110E+02  0.41216153167E+02  0.13868313140E+03  0.12500000000E+03 0.  0.
         25    1    1    2    0    0 -0.59240544016E+02 -0.53808175047E+02  0.48430851489E+03  0.50654170544E+03  0.12500000000E+03 0.  0.
         25    1    1    2    0    0  0.28488724183E+02  0.84849522157E+02  0.12297400405E+03  0.19687217804E+03  0.12500000000E+03 0.  0.
</event>
<event>
 5    0  0.5597833E-005  0.3265802E+03  0.7546771E-02  0.1072660E+00
         21   -1    0    0  502  501  0.00000000000E+00  0.00000000000E+00  0.11733727240E+04  0.11733727240E+04  0.00000000000E+00 0. -1.
         21   -1    0    0  501  502 -0.00000000000E+00 -0.00000000000E+00 -0.90895788982E+02  0.90895788982E+02  0.00000000000E+00 0. -1.
         25    1    1    2    0    0  0.63303877966E+02  0.75197592777E+02  0.21030535064E+03  0.26365773160E+03  0.12500000000E+03 0.  0.
         25    1    1    2    0    0 -0.15116545043E+03 -0.20846158471E+03  0.47198634881E+03  0.55199940142E+03  0.12500000000E+03 0.  0.
         25    1    1    2    0    0  0.87861572466E+02  0.13326399193E+03  0.40018523552E+03  0.44861137992E+03  0.12500000000E+03 0.  0.
</event>
<event>
 5    0  0.5597833E-005  0.4706121E+03  0.7546771E-02  0.1021748E+00
         21   -1    0    0  502  501  0.00000000000E+00  0.00000000000E+00  0.23920171650E+03  0.23920171650E+03  0.00000000000E+00 0. -1.
         21   -1    0    0  501  502 -0.00000000000E+00 -0.00000000000E+00 -0.92589514803E+03  0.92589514803E+03  0.00000000000E+00 0. -1.
         25    1    1    2    0    0  0.25701858081E+03  0.45453490072E+02 -0.31276052522E+03  0.42610880861E+03  0.12500000000E+03 0.  0.
         25    1    1    2    0    0 -0.31956051423E+03 -0.17396795815E+03 -0.86208801000E+02  0.39425972415E+03  0.12500000000E+03 0.  0.
         25    1    1    2    0    0  0.62541933426E+02  0.12851446807E+03 -0.28772410532E+03  0.34472833177E+03  0.12500000000E+03 0.  0.
</event>
<event>
 5    0  0.5597833E-005  0.2747939E+03  0.7546771E-02  0.1098567E+00
         21   -1    0    0  502  501  0.00000000000E+00  0.00000000000E+00  0.29319215268E+03  0.29319215268E+03  0.00000000000E+00 0.  1.
         21   -1    0    0  501  502 -0.00000000000E+00 -0.00000000000E+00 -0.25755022304E+03  0.25755022304E+03  0.00000000000E+00 0.  1.
         25    1    1    2    0    0  0.13734640552E+03  0.82007257752E+01 -0.47629519716E+02  0.19189804106E+03  0.12500000000E+03 0.  0.
         25    1    1    2    0    0 -0.96544305592E+02 -0.95390096607E+02  0.79812454981E+02  0.20103507516E+03  0.12500000000E+03 0.  0.
         25    1    1    2    0    0 -0.40802099930E+02  0.87189370832E+02  0.34589943759E+01  0.15780925951E+03  0.12500000000E+03 0.  0.
</event>
<event>
 5    0  0.5597833E-005  0.3461577E+03  0.7546771E-02  0.1064203E+00
         21   -1    0    0  502  501  0.00000000000E+00  0.00000000000E+00  0.12042035983E+03  0.12042035983E+03  0.00000000000E+00 0.  1.
         21   -1    0    0  501  502 -0.00000000000E+00 -0.00000000000E+00 -0.99505738018E+03  0.99505738018E+03  0.00000000000E+00 0.  1.
         25    1    1    2    0    0  0.40192719245E+02 -0.67195229514E+02 -0.67397343297E+03  0.68992451898E+03  0.12500000000E+03 0.  0.
         25    1    1    2    0    0  0.28492694141E+02 -0.94788162350E+02 -0.86246077022E+02  0.18127331614E+03  0.12500000000E+03 0.  0.
         25    1    1    2    0    0 -0.68685413386E+02  0.16198339186E+03 -0.11441751036E+03  0.24427990488E+03  0.12500000000E+03 0.  0.
</event>
<event>
 5    0  0.5919484E-005  0.2621531E+03  0.7546771E-02  0.1105856E+00
         21   -1    0    0  502  501  0.00000000000E+00  0.00000000000E+00  0.65557874066E+03  0.65557874066E+03  0.00000000000E+00 0. -1.
         21   -1    0    0  501  502 -0.00000000000E+00 -0.00000000000E+00 -0.10482992426E+03  0.10482992426E+03  0.00000000000E+00 0. -1.
         25    1    1    2    0    0  0.35955943794E+02  0.86712480840E+01  0.14452589303E+02  0.13115600549E+03  0.12500000000E+03 0.  0.
         25    1    1    2    0    0 -0.33816249747E+02 -0.21424990037E+02  0.46834727899E+03  0.48639155285E+03  0.12500000000E+03 0.  0.
         25    1    1    2    0    0 -0.21396940472E+01  0.12753741953E+02  0.67948948112E+02  0.14286110658E+03  0.12500000000E+03 0.  0.
</event>
<event>
 5    0  0.5597833E-005  0.3693089E+03  0.7546771E-02  0.1054958E+00
         21   -1    0    0  502  501  0.00000000000E+00  0.00000000000E+00  0.82916832994E+03  0.82916832994E+03  0.00000000000E+00 0.  1.
         21   -1    0    0  501  502 -0.00000000000E+00 -0.00000000000E+00 -0.16448897889E+03  0.16448897889E+03  0.00000000000E+00 0.  1.
         25    1    1    2    0    0  0.10715123827E+03 -0.64433521396E+01  0.15337877655E+03  0.22510653866E+03  0.12500000000E+03 0.  0.
         25    1    1    2    0    0 -0.23415067240E+03  0.17102399822E+03  0.19946927663E+03  0.37348191077E+03  0.12500000000E+03 0.  0.
         25    1    1    2    0    0  0.12699943412E+03 -0.16458064608E+03  0.31183129787E+03  0.39506885940E+03  0.12500000000E+03 0.  0.
</event>
<event>
 5    0  0.5597833E-005  0.3355289E+03  0.7546771E-02  0.1068716E+00
         21   -1    0    0  502  501  0.00000000000E+00  0.00000000000E+00  0.12031349220E+03  0.12031349220E+03  0.00000000000E+00 0. -1.
         21   -1    0    0  501  502 -0.00000000000E+00 -0.00000000000E+00 -0.93571934913E+03  0.93571934913E+03  0.00000000000E+00 0. -1.
         25    1    1    2    0    0  0.16749955576E+03  0.92468919940E+02 -0.25241764706E+03  0.34050884112E+03  0.12500000000E+03 0.  0.
         25    1    1    2    0    0 -0.23881227738E+03 -0.63513747966E+02 -0.26478057057E+03  0.38314364220E+03  0.12500000000E+03 0.  0.
         25    1    1    2    0    0  0.71312721617E+02 -0.28955171973E+02 -0.29820763930E+03  0.33238035800E+03  0.12500000000E+03 0.  0.
</event>
<event>
 5    0  0.5597833E-005  0.2264491E+03  0.7546771E-02  0.1129164E+00
         21   -1    0    0  502  501  0.00000000000E+00  0.00000000000E+00  0.71322580164E+03  0.71322580164E+03  0.00000000000E+00 0. -1.
         21   -1    0    0  501  502 -0.00000000000E+00 -0.00000000000E+00 -0.71897572416E+02  0.71897572416E+02  0.00000000000E+00 0. -1.
         25    1    1    2    0    0  0.20332436160E+02 -0.46767818245E+02  0.10187834232E+03  0.16912963495E+03  0.12500000000E+03 0.  0.
         25    1    1    2    0    0  0.60755526097E+02 -0.45304437870E+01  0.27484970780E+03  0.30802454569E+03  0.12500000000E+03 0.  0.
         25    1    1    2    0    0 -0.81087962257E+02  0.51298262032E+02  0.26460017911E+03  0.30796919342E+03  0.12500000000E+03 0.  0.
</event>
<event>
 5    0  0.5597833E-005  0.3685492E+03  0.7546771E-02  0.1055249E+00
         21   -1    0    0  502  501  0.00000000000E+00  0.00000000000E+00  0.15642491372E+03  0.15642491372E+03  0.00000000000E+00 0.  1.
         21   -1    0    0  501  502 -0.00000000000E+00 -0.00000000000E+00 -0.86833028421E+03  0.86833028421E+03  0.00000000000E+00 0.  1.
         25    1    1    2    0    0 -0.21120994922E+02  0.13636812316E+02  0.76047931375E+02  0.14845991696E+03  0.12500000000E+03 0.  0.
         25    1    1    2    0    0 -0.12661110194E+03  0.10099566867E+01 -0.48401291051E+03  0.51567905590E+03  0.12500000000E+03 0.  0.
         25    1    1    2    0    0  0.14773209686E+03 -0.14646769002E+02 -0.30394039136E+03  0.36061622507E+03  0.12500000000E+03 0.  0.
</event>
<event>
 5    0  0.5597833E-005  0.3679663E+03  0.7546771E-02  0.1055473E+00
         21   -1    0    0  502  501  0.00000000000E+00  0.00000000000E+00  0.95698992266E+03  0.95698992266E+03  0.00000000000E+00 0.  1.
         21   -1    0    0  501  502 -0.00000000000E+00 -0.00000000000E+00 -0.14148443780E+03  0.14148443780E+03  0.00000000000E+00 0.  1.
         25    1    1    2    0    0  0.12904045555E+03  0.74245150415E+02  0.21102556364E+03  0.28691561484E+03  0.12500000000E+03 0.  0.
         25    1    1    2    0    0 -0.39150172682E+02  0.17533200776E+03  0.39361658629E+03  0.45036992125E+03  0.12500000000E+03 0.  0.
         25    1    1    2    0    0 -0.89890282870E+02 -0.24957715817E+03  0.21086333493E+03  0.36118882437E+03  0.12500000000E+03 0.  0.
</event>
<event>
 5    0  0.5619317E-005  0.2523757E+03  0.7546771E-02  0.1111813E+00
         21   -1    0    0  502  501  0.00000000000E+00  0.00000000000E+00  0.35240315009E+03  0.35240315009E+03  0.00000000000E+00 0.  1.
         21   -1    0    0  501  502 -0.00000000000E+00 -0.00000000000E+00 -0.18074047996E+03  0.18074047996E+03  0.00000000000E+00 0.  1.
         25    1    1    2    0    0  0.17391369894E+01 -0.22448354336E+02  0.77196458405E+02  0.14863124301E+03  0.12500000000E+03 0.  0.
         25    1    1    2    0    0 -0.10472757517E+03 -0.30422715060E+02  0.12965408460E+03  0.21054355427E+03  0.12500000000E+03 0.  0.
         25    1    1    2    0    0  0.10298843818E+03  0.52871069395E+02 -0.35187872874E+02  0.17396883277E+03  0.12500000000E+03 0.  0.
</event>
<event>
 5    0  0.5597833E-005  0.5894889E+03  0.7546771E-02  0.9927456E-01
         21   -1    0    0  502  501  0.00000000000E+00  0.00000000000E+00  0.20865969533E+03  0.20865969533E+03  0.00000000000E+00 0.  1.
         21   -1    0    0  501  502 -0.00000000000E+00 -0.00000000000E+00 -0.16653773038E+04  0.16653773038E+04  0.00000000000E+00 0.  1.
         25    1    1    2    0    0  0.74141176392E+02  0.10695835649E+03 -0.11246230281E+04  0.11390078838E+04  0.12500000000E+03 0.  0.
         25    1    1    2    0    0  0.64242536255E+02  0.12610726615E+03  0.97034822899E+02  0.21229908831E+03  0.12500000000E+03 0.  0.
         25    1    1    2    0    0 -0.13838371265E+03 -0.23306562264E+03 -0.42912940325E+03  0.52273002699E+03  0.12500000000E+03 0.  0.
</event>
<event>
 5    0  0.5597833E-005  0.3127710E+03  0.7546771E-02  0.1079025E+00
         21   -1    0    0  502  501  0.00000000000E+00  0.00000000000E+00  0.18204659293E+03  0.18204659293E+03  0.00000000000E+00 0. -1.
         21   -1    0    0  501  502 -0.00000000000E+00 -0.00000000000E+00 -0.53736610603E+03  0.53736610603E+03  0.00000000000E+00 0. -1.
         25    1    1    2    0    0 -0.75545487300E+02  0.74598062347E+02 -0.15995082666E+03  0.22908788380E+03  0.12500000000E+03 0.  0.
         25    1    1    2    0    0 -0.96696320642E+02 -0.54457465547E+01 -0.21365407929E+03  0.26580613270E+03  0.12500000000E+03 0.  0.
         25    1    1    2    0    0  0.17224180794E+03 -0.69152315793E+02  0.18285392843E+02  0.22451868246E+03  0.12500000000E+03 0.  0.
</event>
<event>
 5    0  0.5597833E-005  0.2532047E+03  0.7546771E-02  0.1111296E+00
         21   -1    0    0  502  501  0.00000000000E+00  0.00000000000E+00  0.66321740436E+03  0.66321740436E+03  0.00000000000E+00 0. -1.
         21   -1    0    0  501  502 -0.00000000000E+00 -0.00000000000E+00 -0.96669071355E+02  0.96669071355E+02  0.00000000000E+00 0. -1.
         25    1    1    2    0    0  0.22469555214E+02 -0.10477422856E+03  0.25716207749E+03  0.30535201650E+03  0.12500000000E+03 0.  0.
         25    1    1    2    0    0  0.49023312925E+02  0.61030607114E+02  0.52018178890E+02  0.15639344983E+03  0.12500000000E+03 0.  0.
         25    1    1    2    0    0 -0.71492868139E+02  0.43743621442E+02  0.25736807663E+03  0.29814100939E+03  0.12500000000E+03 0.  0.
</event>
<event>
 5    0  0.5597833E-005  0.3335481E+03  0.7546771E-02  0.1069578E+00
         21   -1    0    0  502  501  0.00000000000E+00  0.00000000000E+00  0.14913753380E+04  0.14913753380E+04  0.00000000000E+00 0.  1.
         21   -1    0    0  501  502 -0.00000000000E+00 -0.00000000000E+00 -0.74598501565E+02  0.74598501565E+02  0.00000000000E+00 0.  1.
         25    1    1    2    0    0  0.14540594307E+03 -0.49900691934E+02  0.39203001532E+03  0.43925562062E+03  0.12500000000E+03 0.  0.
         25    1    1    2    0    0 -0.15941772376E+02  0.17952745273E+03  0.69924930808E+03  0.73284298540E+03  0.12500000000E+03 0.  0.
         25    1    1    2    0    0 -0.12946417069E+03 -0.12962676080E+03  0.32549751301E+03  0.39387523352E+03  0.12500000000E+03 0.  0.
</event>
<event>
 5    0  0.5597833E-005  0.3919718E+03  0.7546771E-02  0.1046596E+00
         21   -1    0    0  502  501  0.00000000000E+00  0.00000000000E+00  0.86006589277E+03  0.86006589277E+03  0.00000000000E+00 0.  1.
         21   -1    0    0  501  502 -0.00000000000E+00 -0.00000000000E+00 -0.17863967810E+03  0.17863967810E+03  0.00000000000E+00 0.  1.
         25    1    1    2    0    0  0.25297833932E+03 -0.43873465632E+01  0.17215610575E+03  0.33057527693E+03  0.12500000000E+03 0.  0.
         25    1    1    2    0    0 -0.32389084166E+03  0.17908634961E+02  0.35549913186E+03  0.49722291708E+03  0.12500000000E+03 0.  0.
         25    1    1    2    0    0  0.70912502339E+02 -0.13521288397E+02  0.15377097706E+03  0.21090737686E+03  0.12500000000E+03 0.  0.
</event>
<event>
 5    0  0.5701981E-005  0.3580932E+03  0.7546771E-02  0.1059341E+00
         21   -1    0    0  502  501  0.00000000000E+00  0.00000000000E+00  0.11801217868E+03  0.11801217868E+03  0.00000000000E+00 0. -1.
         21   -1    0    0  501  502 -0.00000000000E+00 -0.00000000000E+00 -0.10865890601E+04  0.10865890601E+04  0.00000000000E+00 0. -1.
         25    1    1    2    0    0 -0.22398798604E+02 -0.18487886396E+03 -0.31963542805E+03  0.39047881810E+03  0.12500000000E+03 0.  0.
         25    1    1    2    0    0 -0.83141016616E+02  0.11825947025E+03 -0.61596439941E+02  0.20079056841E+03  0.12500000000E+03 0.  0.
         25    1    1    2    0    0  0.10553981522E+03  0.66619393704E+02 -0.58734501341E+03  0.61333185225E+03  0.12500000000E+03 0.  0.
</event>
<event>
 5    0  0.5597833E-005  0.2168839E+03  0.7546771E-02  0.1136228E+00
         21   -1    0    0  502  501  0.00000000000E+00  0.00000000000E+00  0.72776691259E+02  0.72776691259E+02  0.00000000000E+00 0. -1.
         21   -1    0    0  501  502 -0.00000000000E+00 -0.00000000000E+00 -0.64634181702E+03  0.64634181702E+03  0.00000000000E+00 0. -1.
         25    1    1    2    0    0  0.38148557928E+02 -0.23022893654E+02 -0.95891887013E+02  0.16372421965E+03  0.12500000000E+03 0.  0.
         25    1    1    2    0    0  0.37480552086E+02  0.32507304339E+02 -0.26539196504E+03  0.29752211973E+03  0.12500000000E+03 0.  0.
         25    1    1    2    0    0 -0.75629110014E+02 -0.94844106841E+01 -0.21228127371E+03  0.25787216891E+03  0.12500000000E+03 0.  0.
</event>
<event>
 5    0  0.5597833E-005  0.3349872E+03  0.7546771E-02  0.1068951E+00
         21   -1    0    0  502  501  0.00000000000E+00  0.00000000000E+00  0.10825474576E+04  0.10825474576E+04  0.00000000000E+00 0.  1.
         21   -1    0    0  501  502 -0.00000000000E+00 -0.00000000000E+00 -0.10365960020E+03  0.10365960020E+03  0.00000000000E+00 0.  1.
         25    1    1    2    0    0 -0.23597876358E+03 -0.11228340033E+03  0.47247283983E+03  0.55421036009E+03  0.12500000000E+03 0.  0.
         25    1    1    2    0    0  0.16420092070E+03  0.57623868524E+02  0.36259192123E+03  0.42116547095E+03  0.12500000000E+03 0.  0.
         25    1    1    2    0    0  0.71777842884E+02  0.54659531802E+02  0.14382309639E+03  0.21083122681E+03  0.12500000000E+03 0.  0.
</event>
<event>
 5    0  0.5597833E-005  0.3837535E+03  0.7546771E-02  0.1049555E+00
         21   -1    0    0  502  501  0.00000000000E+00  0.00000000000E+00  0.63402476454E+02  0.63402476454E+02  0.00000000000E+00 0. -1.
         21   -1    0    0  501  502 -0.00000000000E+00 -0.00000000000E+00 -0.23227289939E+04  0.23227289939E+04  0.00000000000E+00 0. -1.
         25    1    1    2    0    0  0.18289942570E+03 -0.75214648826E+02 -0.30291009393E+03  0.38273877296E+03  0.12500000000E+03 0.  0.
         25    1    1    2    0    0  0.13727060913E+02  0.72924946156E+02 -0.12745656831E+04  0.12828285780E+04  0.12500000000E+03 0.  0.
         25    1    1    2    0    0 -0.19662648661E+03  0.22897026693E+01 -0.68185074046E+03  0.72056411945E+03  0.12500000000E+03 0.  0.
</event>
<event>
 5    0  0.5597833E-005  0.3456574E+03  0.7546771E-02  0.1064412E+00
         21   -1    0    0  502  501  0.00000000000E+00  0.00000000000E+00  0.53929966212E+03  0.53929966212E+03  0.00000000000E+00 0. -1.
         21   -1    0    0  501  502 -0.00000000000E+00 -0.00000000000E+00 -0.22154478965E+03  0.22154478965E+03  0.00000000000E+00 0. -1.
         25    1    1    2    0    0  0.10018769751E+03  0.75076409867E+02  0.38087682549E+02  0.18096881945E+03  0.12500000000E+03 0.  0.
         25    1    1    2    0    0 -0.10948693807E+02 -0.24206478739E+03  0.20466252070E+03  0.34092078635E+03  0.12500000000E+03 0.  0.
         25    1    1    2    0    0 -0.89239003703E+02  0.16698837752E+03  0.75004669219E+02  0.23895484597E+03  0.12500000000E+03 0.  0.
</event>
<event>
 5    0  0.5597833E-005  0.2679851E+03  0.7546771E-02  0.1102438E+00
         21   -1    0    0  502  501  0.00000000000E+00  0.00000000000E+00  0.18018073738E+03  0.18018073738E+03  0.00000000000E+00 0. -1.
         21   -1    0    0  501  502 -0.00000000000E+00 -0.00000000000E+00 -0.39857776590E+03  0.39857776590E+03  0.00000000000E+00 0. -1.
         25    1    1    2    0    0 -0.16205674193E+02 -0.15858764722E+01  0.32150946727E+02  0.13009159179E+03  0.12500000000E+03 0.  0.
         25    1    1    2    0    0  0.20485684688E+02  0.13303133608E+03 -0.82526898842E+02  0.20137698153E+03  0.12500000000E+03 0.  0.
         25    1    1    2    0    0 -0.42800104950E+01 -0.13144545961E+03 -0.16802107641E+03  0.24728992996E+03  0.12500000000E+03 0.  0.
</event>
<event>
 5    0  0.5597833E-005  0.2859912E+03  0.7546771E-02  0.1092461E+00
         21   -1    0    0  502  501  0.00000000000E+00  0.00000000000E+00  0.13573774662E+03  0.13573774662E+03  0.00000000000E+00 0. -1.
         21   -1    0    0  501  502 -0.00000000000E+00 -0.00000000000E+00 -0.60256607066E+03  0.60256607066E+03  0.00000000000E+00 0. -1.
         25    1    1    2    0    0 -0.66870604149E+02 -0.37612449609E+02 -0.76452355605E+02  0.16539751129E+03  0.12500000000E+03 0.  0.
         25    1    1    2    0    0  0.12394744925E+03  0.12789694877E+03 -0.10057148092E+03  0.23970861990E+03  0.12500000000E+03 0.  0.
         25    1    1    2    0    0 -0.57076845098E+02 -0.90284499157E+02 -0.28980448752E+03  0.33319768609E+03  0.12500000000E+03 0.  0.
</event>
<event>
 5    0  0.5597833E-005  0.3891067E+03  0.7546771E-02  0.1047618E+00
         21   -1    0    0  502  501  0.00000000000E+00  0.00000000000E+00  0.60145724501E+03  0.60145724501E+03  0.00000000000E+00 0.  1.
         21   -1    0    0  501  502 -0.00000000000E+00 -0.00000000000E+00 -0.25172868436E+03  0.25172868436E+03  0.00000000000E+00 0.  1.
         25    1    1    2    0    0 -0.11337447242E+03 -0.17424534912E+03  0.80528835343E+02  0.25558776576E+03  0.12500000000E+03 0.  0.
         25    1    1    2    0    0  0.23812504369E+02 -0.10545454399E+03 -0.20519878709E+02  0.16653456589E+03  0.12500000000E+03 0.  0.
         25    1    1    2    0    0  0.89561968050E+02  0.27969989311E+03  0.28971960402E+03  0.43106359772E+03  0.12500000000E+03 0.  0.
</event>
<event>
 5    0  0.5597833E-005  0.3006355E+03  0.7546771E-02  0.1084923E+00
         21   -1    0    0  502  501  0.00000000000E+00  0.00000000000E+00  0.68386739642E+02  0.68386739642E+02  0.00000000000E+00 0. -1.
         21   -1    0    0  501  502 -0.00000000000E+00 -0.00000000000E+00 -0.13216263531E+04  0.13216263531E+04  0.00000000000E+00 0. -1.
         25    1    1    2    0    0 -0.36820464706E+02 -0.38232892113E+02 -0.26476273672E+03  0.29755975436E+03  0.12500000000E+03 0.  0.
         25    1    1    2    0    0 -0.16879604129E+03 -0.11487214645E+01 -0.33997382571E+03  0.39962560639E+03  0.12500000000E+03 0.  0.
         25    1    1    2    0    0  0.20561650599E+03  0.39381613577E+02 -0.64850305104E+03  0.69282773201E+03  0.12500000000E+03 0.  0.
</event>
<event>
 5    0  0.5597833E-005  0.4597625E+03  0.7546771E-02  0.1024850E+00
         21   -1    0    0  502  501  0.00000000000E+00  0.00000000000E+00  0.59892378012E+03  0.59892378012E+03  0.00000000000E+00 0.  1.
         21   -1    0    0  501  502 -0.00000000000E+00 -0.00000000000E+00 -0.35293572928E+03  0.35293572928E+03  0.00000000000E+00 0.  1.
         25    1    1    2    0    0  0.22083262346E+03 -0.10696043982E+03 -0.15778081098E+03  0.31737575141E+03  0.12500000000E+03 0.  0.
         25    1    1    2    0    0 -0.15005414618E+03 -0.11359814710E+03  0.17575672100E+03  0.28624501880E+03  0.12500000000E+03 0.  0.
         25    1    1    2    0    0 -0.70778477278E+02  0.22055858692E+03  0.22801214083E+03  0.34823873919E+03  0.12500000000E+03 0.  0.
</event>
<event>
 5    0  0.5597833E-005  0.2927876E+03  0.7546771E-02  0.1088903E+00
         21   -1    0    0  502  501  0.00000000000E+00  0.00000000000E+00  0.19066784783E+03  0.19066784783E+03  0.00000000000E+00 0.  1.
         21   -1    0    0  501  502 -0.00000000000E+00 -0.00000000000E+00 -0.44960179791E+03  0.44960179791E+03  0.00000000000E+00 0.  1.
         25    1    1    2    0    0 -0.12162316729E+03  0.14623234633E+03 -0.10621324564E+03  0.25116199451E+03  0.12500000000E+03 0.  0.
         25    1    1    2    0    0 -0.15913988458E+02 -0.54000224345E+02 -0.10359594959E+02  0.13748309156E+03  0.12500000000E+03 0.  0.
         25    1    1    2    0    0  0.13753715575E+03 -0.92232121986E+02 -0.14236110948E+03  0.25162455967E+03  0.12500000000E+03 0.  0.
</event>
<event>
 5    0  0.5597833E-005  0.2968855E+03  0.7546771E-02  0.1086808E+00
         21   -1    0    0  502  501  0.00000000000E+00  0.00000000000E+00  0.20940523095E+03  0.20940523095E+03  0.00000000000E+00 0. -1.
         21   -1    0    0  501  502 -0.00000000000E+00 -0.00000000000E+00 -0.42091120993E+03  0.42091120993E+03  0.00000000000E+00 0. -1.
         25    1    1    2    0    0  0.34434720563E+02  0.20032767214E+03 -0.13677732288E+03  0.27504538218E+03  0.12500000000E+03 0.  0.
         25    1    1    2    0    0  0.86973979768E+01 -0.15211811831E+03 -0.83966818551E+02  0.21422183191E+03  0.12500000000E+03 0.  0.
         25    1    1    2    0    0 -0.43132118540E+02 -0.48209553833E+02  0.92381624600E+01  0.14104922678E+03  0.12500000000E+03 0.  0.
</event>
<event>
 5    0  0.5597833E-005  0.3557674E+03  0.7546771E-02  0.1060272E+00
         21   -1    0    0  502  501  0.00000000000E+00  0.00000000000E+00  0.14482367451E+03  0.14482367451E+03  0.00000000000E+00 0. -1.
         21   -1    0    0  501  502 -0.00000000000E+00 -0.00000000000E+00 -0.87396233700E+03  0.87396233700E+03  0.00000000000E+00 0. -1.
         25    1    1    2    0    0 -0.14569933198E+03 -0.52957965200E+02 -0.20274892782E+03  0.28419178234E+03  0.12500000000E+03 0.  0.
         25    1    1    2    0    0  0.48635583834E+02 -0.18377834934E+03 -0.24122636934E+03  0.33159472699E+03  0.12500000000E+03 0.  0.
         25    1    1    2    0    0  0.97063748146E+02  0.23673631454E+03 -0.28516336532E+03  0.40299950217E+03  0.12500000000E+03 0.  0.
</event>
<event>
 5    0  0.5597833E-005  0.2779610E+03  0.7546771E-02  0.1096808E+00
         21   -1    0    0  502  501  0.00000000000E+00  0.00000000000E+00  0.18300598758E+03  0.18300598758E+03  0.00000000000E+00 0.  1.
         21   -1    0    0  501  502 -0.00000000000E+00 -0.00000000000E+00 -0.42218468380E+03  0.42218468380E+03  0.00000000000E+00 0.  1.
         25    1    1    2    0    0  0.56393776223E+01 -0.10084414095E+02  0.94569627684E+01  0.12588857030E+03  0.12500000000E+03 0.  0.
         25    1    1    2    0    0 -0.11826582215E+03 -0.10534546716E+03 -0.15686894740E+03  0.25557257051E+03  0.12500000000E+03 0.  0.
         25    1    1    2    0    0  0.11262644453E+03  0.11542988126E+03 -0.91766711589E+02  0.22372953057E+03  0.12500000000E+03 0.  0.
</event>
<event>
 5    0  0.5597833E-005  0.3700106E+03  0.7546771E-02  0.1054689E+00
         21   -1    0    0  502  501  0.00000000000E+00  0.00000000000E+00  0.10688481751E+03  0.10688481751E+03  0.00000000000E+00 0.  1.
         21   -1    0    0  501  502 -0.00000000000E+00 -0.00000000000E+00 -0.12808912748E+04  0.12808912748E+04  0.00000000000E+00 0.  1.
         25    1    1    2    0    0  0.36109629032E+02 -0.83939512814E+01 -0.43417116158E+03  0.45332544742E+03  0.12500000000E+03 0.  0.
         25    1    1    2    0    0 -0.17496504914E+03  0.28126187801E+02 -0.54185801145E+02  0.22352841409E+03  0.12500000000E+03 0.  0.
         25    1    1    2    0    0  0.13885542011E+03 -0.19732236519E+02 -0.68564949455E+03  0.71092223079E+03  0.12500000000E+03 0.  0.
</event>
<event>
 5    0  0.5597833E-005  0.3338834E+03  0.7546771E-02  0.1069431E+00
         21   -1    0    0  502  501  0.00000000000E+00  0.00000000000E+00  0.49399077405E+03  0.49399077405E+03  0.00000000000E+00 0. -1.
         21   -1    0    0  501  502 -0.00000000000E+00 -0.00000000000E+00 -0.22566836763E+03  0.22566836763E+03  0.00000000000E+00 0. -1.
         25    1    1    2    0    0 -0.55065177854E+02 -0.64413256373E+02 -0.72574533154E+02  0.16755090054E+03  0.12500000000E+03 0.  0.
         25    1    1    2    0    0 -0.90034469823E+02 -0.14816476564E+02  0.18985369474E+01  0.15477189078E+03  0.12500000000E+03 0.  0.
         25    1    1    2    0    0  0.14509964768E+03  0.79229732937E+02  0.33899840263E+03  0.39733635037E+03  0.12500000000E+03 0.  0.
</event>
<event>
 5    0  0.5597833E-005  0.2063969E+03  0.7546771E-02  0.1144451E+00
         21   -1    0    0  502  501  0.00000000000E+00  0.00000000000E+00  0.41439898907E+03  0.41439898907E+03  0.00000000000E+00 0. -1.
         21   -1    0    0  501  502 -0.00000000000E+00 -0.00000000000E+00 -0.10279874041E+03  0.10279874041E+03  0.00000000000E+00 0. -1.
         25    1    1    2    0    0  0.37398175235E+02 -0.31391862612E+02  0.16074807607E+03  0.20940156759E+03  0.12500000000E+03 0.  0.
         25    1    1    2    0    0  0.17164177441E+02 -0.49763212617E+01  0.58898475845E+02  0.13933198921E+03  0.12500000000E+03 0.  0.
         25    1    1    2    0    0 -0.54562352676E+02  0.36368183874E+02  0.91953696743E+02  0.16846417267E+03  0.12500000000E+03 0.  0.
</event>
<event>
 5    0  0.5597833E-005  0.4540574E+03  0.7546771E-02  0.1026519E+00
         21   -1    0    0  502  501  0.00000000000E+00  0.00000000000E+00  0.95121726560E+03  0.95121726560E+03  0.00000000000E+00 0.  1.
         21   -1    0    0  501  502 -0.00000000000E+00 -0.00000000000E+00 -0.21674132622E+03  0.21674132622E+03  0.00000000000E+00 0.  1.
         25    1    1    2    0    0  0.18226793870E+03  0.68359957503E+01  0.49777134034E+02  0.22665192563E+03  0.12500000000E+03 0.  0.
         25    1    1    2    0    0 -0.30001430261E+03  0.16581925193E+03  0.24758677409E+03  0.44094083139E+03  0.12500000000E+03 0.  0.
         25    1    1    2    0    0  0.11774636391E+03 -0.17265524768E+03  0.43711203126E+03  0.50036583480E+03  0.12500000000E+03 0.  0.
</event>
<event>
 5    0  0.5597833E-005  0.3141494E+03  0.7546771E-02  0.1078374E+00
         21   -1    0    0  502  501  0.00000000000E+00  0.00000000000E+00  0.15646179285E+03  0.15646179285E+03  0.00000000000E+00 0.  1.
         21   -1    0    0  501  502 -0.00000000000E+00 -0.00000000000E+00 -0.63075990361E+03  0.63075990361E+03  0.00000000000E+00 0.  1.
         25    1    1    2    0    0  0.64244704794E+02 -0.28720545614E+02 -0.18846232816E+03  0.23684446578E+03  0.12500000000E+03 0.  0.
         25    1    1    2    0    0 -0.21571706027E+03  0.86286429724E+02 -0.18504480959E+03  0.32225111265E+03  0.12500000000E+03 0.  0.
         25    1    1    2    0    0  0.15147235548E+03 -0.57565884110E+02 -0.10079097301E+03  0.22812611803E+03  0.12500000000E+03 0.  0.
</event>
<event>
 5    0  0.5597833E-005  0.3510059E+03  0.7546771E-02  0.1062203E+00
         21   -1    0    0  502  501  0.00000000000E+00  0.00000000000E+00  0.22193594636E+03  0.22193594636E+03  0.00000000000E+00 0. -1.
         21   -1    0    0  501  502 -0.00000000000E+00 -0.00000000000E+00 -0.55513815828E+03  0.55513815828E+03  0.00000000000E+00 0. -1.
         25    1    1    2    0    0  0.19840977415E+03  0.12836418640E+03 -0.15081261560E+03  0.30694176623E+03  0.12500000000E+03 0.  0.
         25    1    1    2    0    0 -0.76227331319E+02 -0.20581181968E+02 -0.21629448198E+03  0.26199712599E+03  0.12500000000E+03 0.  0.
         25    1    1    2    0    0 -0.12218244283E+03 -0.10778300443E+03  0.33904885663E+02  0.20813521243E+03  0.12500000000E+03 0.  0.
</event>
<event>
 5    0  0.5614246E-005  0.3875073E+03  0.7546771E-02  0.1048193E+00
         21   -1    0    0  502  501  0.00000000000E+00  0.00000000000E+00  0.14133579137E+04  0.14133579137E+04  0.00000000000E+00 0.  1.
         21   -1    0    0  501  502 -0.00000000000E+00 -0.00000000000E+00 -0.10624479738E+03  0.10624479738E+03  0.00000000000E+00 0.  1.
         25    1    1    2    0    0  0.82319430167E+01  0.34214136810E+02 -0.21136106732E+02  0.13156788001E+03  0.12500000000E+03 0.  0.
         25    1    1    2    0    0 -0.11023844218E+03 -0.12980641469E+03  0.60305685660E+03  0.63898731734E+03  0.12500000000E+03 0.  0.
         25    1    1    2    0    0  0.10200649917E+03  0.95592277878E+02  0.72519236641E+03  0.74904751369E+03  0.12500000000E+03 0.  0.
</event>
<event>
 5    0  0.5597833E-005  0.4219050E+03  0.7546771E-02  0.1036448E+00
         21   -1    0    0  502  501  0.00000000000E+00  0.00000000000E+00  0.40036096734E+03  0.40036096734E+03  0.00000000000E+00 0.  1.
         21   -1    0    0  501  502 -0.00000000000E+00 -0.00000000000E+00 -0.44460839101E+03  0.44460839101E+03  0.00000000000E+00 0.  1.
         25    1    1    2    0    0 -0.11422197887E+03 -0.30157878747E+02  0.28232146180E+03  0.33058518705E+03  0.12500000000E+03 0.  0.
         25    1    1    2    0    0 -0.57919737515E+02  0.96660762562E+02 -0.18615754486E+03  0.25095344294E+03  0.12500000000E+03 0.  0.
         25    1    1    2    0    0  0.17214171638E+03 -0.66502883814E+02 -0.14041134061E+03  0.26343072836E+03  0.12500000000E+03 0.  0.
</event>
<event>
 5    0  0.5597833E-005  0.2688643E+03  0.7546771E-02  0.1101931E+00
         21   -1    0    0  502  501  0.00000000000E+00  0.00000000000E+00  0.12097422005E+03  0.12097422005E+03  0.00000000000E+00 0. -1.
         21   -1    0    0  501  502 -0.00000000000E+00 -0.00000000000E+00 -0.59754910616E+03  0.59754910616E+03  0.00000000000E+00 0. -1.
         25    1    1    2    0    0  0.94117343210E+02  0.21982356166E+01 -0.20495244904E+03  0.25786316701E+03  0.12500000000E+03 0.  0.
         25    1    1    2    0    0 -0.15193669586E+03  0.79163010176E+02 -0.15732118433E+03  0.26405775271E+03  0.12500000000E+03 0.  0.
         25    1    1    2    0    0  0.57819352649E+02 -0.81361245792E+02 -0.11430125274E+03  0.19660240648E+03  0.12500000000E+03 0.  0.
</event>
<event>
 5    0  0.5597833E-005  0.2499321E+03  0.7546771E-02  0.1113348E+00
         21   -1    0    0  502  501  0.00000000000E+00  0.00000000000E+00  0.65707612544E+02  0.65707612544E+02  0.00000000000E+00 0. -1.
         21   -1    0    0  501  502 -0.00000000000E+00 -0.00000000000E+00 -0.95066716056E+03  0.95066716056E+03  0.00000000000E+00 0. -1.
         25    1    1    2    0    0 -0.69772071153E+02 -0.21036613987E+02 -0.75685245675E+02  0.16329095950E+03  0.12500000000E+03 0.  0.
         25    1    1    2    0    0  0.45416583161E+02 -0.10286429523E+02 -0.49226385905E+03  0.51001684638E+03  0.12500000000E+03 0.  0.
         25    1    1    2    0    0  0.24355487992E+02  0.31323043510E+02 -0.31701044328E+03  0.34306696723E+03  0.12500000000E+03 0.  0.
</event>
<event>
 5    0  0.5597833E-005  0.3242884E+03  0.7546771E-02  0.1073692E+00
         21   -1    0    0  502  501  0.00000000000E+00  0.00000000000E+00  0.35218196951E+03  0.35218196951E+03  0.00000000000E+00 0.  1.
         21   -1    0    0  501  502 -0.00000000000E+00 -0.00000000000E+00 -0.29860405474E+03  0.29860405474E+03  0.00000000000E+00 0.  1.
         25    1    1    2    0    0 -0.65080882879E+02  0.78050063018E+02 -0.14198201064E+03  0.21473524396E+03  0.12500000000E+03 0.  0.
         25    1    1    2    0    0 -0.93744082921E+02  0.14205226887E+02  0.13181014284E+03  0.20491133524E+03  0.12500000000E+03 0.  0.
         25    1    1    2    0    0  0.15882496580E+03 -0.92255289905E+02  0.63749782583E+02  0.23113944505E+03  0.12500000000E+03 0.  0.
</event>
<event>
 5    0  0.5597833E-005  0.3008947E+03  0.7546771E-02  0.1084794E+00
         21   -1    0    0  502  501  0.00000000000E+00  0.00000000000E+00  0.30627316627E+03  0.30627316627E+03  0.00000000000E+00 0. -1.
         21   -1    0    0  501  502 -0.00000000000E+00 -0.00000000000E+00 -0.29561066890E+03  0.29561066890E+03  0.00000000000E+00 0. -1.
         25    1    1    2    0    0  0.42205609526E+02  0.63968660801E+02  0.47498608999E+02  0.15412469269E+03  0.12500000000E+03 0.  0.
         25    1    1    2    0    0 -0.11183903586E+03  0.11979067039E+03 -0.57395986718E+02  0.21395577568E+03  0.12500000000E+03 0.  0.
         25    1    1    2    0    0  0.69633426334E+02 -0.18375933119E+03  0.20559875094E+02  0.23380336680E+03  0.12500000000E+03 0.  0.
</event>
<event>
 5    0  0.5597833E-005  0.3383044E+03  0.7546771E-02  0.1067520E+00
         21   -1    0    0  502  501  0.00000000000E+00  0.00000000000E+00  0.96315686249E+03  0.96315686249E+03  0.00000000000E+00 0.  1.
         21   -1    0    0  501  502 -0.00000000000E+00 -0.00000000000E+00 -0.11882784550E+03  0.11882784550E+03  0.00000000000E+00 0.  1.
         25    1    1    2    0    0 -0.15544934816E+03 -0.60467471250E+02  0.12467857837E+03  0.24287972914E+03  0.12500000000E+03 0.  0.
         25    1    1    2    0    0  0.11586329808E+03 -0.69607570775E+02  0.14158563246E+03  0.23225203782E+03  0.12500000000E+03 0.  0.
         25    1    1    2    0    0  0.39586050078E+02  0.13007504203E+03  0.57806480616E+03  0.60685294103E+03  0.12500000000E+03 0.  0.
</event>
<event>
 5    0  0.5597833E-005  0.4231836E+03  0.7546771E-02  0.1036035E+00
         21   -1    0    0  502  501  0.00000000000E+00  0.00000000000E+00  0.60881608232E+03  0.60881608232E+03  0.00000000000E+00 0. -1.
         21   -1    0    0  501  502 -0.00000000000E+00 -0.00000000000E+00 -0.29415182358E+03  0.29415182358E+03  0.00000000000E+00 0. -1.
         25    1    1    2    0    0 -0.66908127942E+02 -0.24309051913E+03  0.22764130112E+03  0.36196030176E+03  0.12500000000E+03 0.  0.
         25    1    1    2    0    0 -0.16536050646E+02 -0.14945338200E+02  0.18706006262E+03  0.22608244322E+03  0.12500000000E+03 0.  0.
         25    1    1    2    0    0  0.83444178588E+02  0.25803585733E+03 -0.10003710500E+03  0.31492516092E+03  0.12500000000E+03 0.  0.
</event>
<event>
 5    0  0.5597833E-005  0.2374351E+03  0.7546771E-02  0.1121513E+00
         21   -1    0    0  502  501  0.00000000000E+00  0.00000000000E+00  0.11216726878E+03  0.11216726878E+03  0.00000000000E+00 0. -1.
         21   -1    0    0  501  502 -0.00000000000E+00 -0.00000000000E+00 -0.50260140955E+03  0.50260140955E+03  0.00000000000E+00 0. -1.
         25    1    1    2    0    0  0.56700703339E+02 -0.10954118881E+03 -0.21846185907E+03  0.28029417702E+03  0.12500000000E+03 0.  0.
         25    1    1    2    0    0 -0.58584431908E+02  0.49227791827E+02 -0.10544260897E+03  0.18055097600E+03  0.12500000000E+03 0.  0.
         25    1    1    2    0    0  0.18837285690E+01  0.60313396980E+02 -0.66529672728E+02  0.15392352530E+03  0.12500000000E+03 0.  0.
</event>
<event>
 5    0  0.5597833E-005  0.4943271E+03  0.7546771E-02  0.1015270E+00
         21   -1    0    0  502  501  0.00000000000E+00  0.00000000000E+00  0.11896718905E+04  0.11896718905E+04  0.00000000000E+00 0. -1.
         21   -1    0    0  501  502 -0.00000000000E+00 -0.00000000000E+00 -0.20540053164E+03  0.20540053164E+03  0.00000000000E+00 0. -1.
         25    1    1    2    0    0  0.35549426042E+03  0.20290451469E+03  0.40490292086E+03  0.58916702776E+03  0.12500000000E+03 0.  0.
         25    1    1    2    0    0 -0.21121522450E+03 -0.24989191814E+03  0.28320401977E+03  0.45043019284E+03  0.12500000000E+03 0.  0.
         25    1    1    2    0    0 -0.14427903592E+03  0.46987403446E+02  0.29616441827E+03  0.35547520158E+03  0.12500000000E+03 0.  0.
</event>
<event>
 5    0  0.5818651E-005  0.2928728E+03  0.7546771E-02  0.1088859E+00
         21   -1    0    0  502  501  0.00000000000E+00  0.00000000000E+00  0.13455996427E+03  0.13455996427E+03  0.00000000000E+00 0. -1.
         21   -1    0    0  501  502 -0.00000000000E+00 -0.00000000000E+00 -0.63744409513E+03  0.63744409513E+03  0.00000000000E+00 0. -1.
         25    1    1    2    0    0 -0.14453373162E+03 -0.56221183676E+02 -0.19566706601E+03  0.27921572626E+03  0.12500000000E+03 0.  0.
         25    1    1    2    0    0  0.55790869928E+01  0.60832061886E+02 -0.26770137477E+03  0.30169635732E+03  0.12500000000E+03 0.  0.
         25    1    1    2    0    0  0.13895464463E+03 -0.46108782094E+01 -0.39515690077E+02  0.19109197582E+03  0.12500000000E+03 0.  0.
</event>
<event>
 5    0  0.5597833E-005  0.4175983E+03  0.7546771E-02  0.1037851E+00
         21   -1    0    0  502  501  0.00000000000E+00  0.00000000000E+00  0.55074658329E+03  0.55074658329E+03  0.00000000000E+00 0. -1.
         21   -1    0    0  501  502 -0.00000000000E+00 -0.00000000000E+00 -0.31663985707E+03  0.31663985707E+03  0.00000000000E+00 0. -1.
         25    1    1    2    0    0 -0.29213064779E+03  0.30423954038E+02  0.90782938173E+02  0.33186213134E+03  0.12500000000E+03 0.  0.
         25    1    1    2    0    0  0.91641914302E+02 -0.16072055697E+03  0.14404426969E+03  0.26571241883E+03  0.12500000000E+03 0.  0.
         25    1    1    2    0    0  0.20048873349E+03  0.13029660293E+03 -0.72048164347E+00  0.26981189018E+03  0.12500000000E+03 0.  0.
</event>
<event>
 5    0  0.5597833E-005  0.2520043E+03  0.7546771E-02  0.1112045E+00
         21   -1    0    0  502  501  0.00000000000E+00  0.00000000000E+00  0.14560870848E+03  0.14560870848E+03  0.00000000000E+00 0. -1.
         21   -1    0    0  501  502 -0.00000000000E+00 -0.00000000000E+00 -0.43614272787E+03  0.43614272787E+03  0.00000000000E+00 0. -1.
         25    1    1    2    0    0  0.63958550152E+02 -0.77571669832E+02 -0.30702959573E+02  0.16332707009E+03  0.12500000000E+03 0.  0.
         25    1    1    2    0    0  0.56802842078E+02  0.39016444090E+02 -0.15960475741E+03  0.21412035019E+03  0.12500000000E+03 0.  0.
         25    1    1    2    0    0 -0.12076139223E+03  0.38555225741E+02 -0.10022630241E+03  0.20430401606E+03  0.12500000000E+03 0.  0.
</event>
<event>
 5    0  0.5597833E-005  0.2203243E+03  0.7546771E-02  0.1133641E+00
         21   -1    0    0  502  501  0.00000000000E+00  0.00000000000E+00  0.23946836531E+03  0.23946836531E+03  0.00000000000E+00 0. -1.
         21   -1    0    0  501  502 -0.00000000000E+00 -0.00000000000E+00 -0.20271073185E+03  0.20271073185E+03  0.00000000000E+00 0. -1.
         25    1    1    2    0    0 -0.20002261073E+02 -0.21834185882E+02  0.68662713748E+01  0.12864279150E+03  0.12500000000E+03 0.  0.
         25    1    1    2    0    0  0.51468240086E+02 -0.37162419410E+02  0.82102219056E+02  0.16246784152E+03  0.12500000000E+03 0.  0.
         25    1    1    2    0    0 -0.31465979013E+02  0.58996605293E+02 -0.52210856972E+02  0.15106846414E+03  0.12500000000E+03 0.  0.
</event>
<event>
 5    0  0.5597833E-005  0.3577971E+03  0.7546771E-02  0.1059460E+00
         21   -1    0    0  502  501  0.00000000000E+00  0.00000000000E+00  0.31388537604E+03  0.31388537604E+03  0.00000000000E+00 0.  1.
         21   -1    0    0  501  502 -0.00000000000E+00 -0.00000000000E+00 -0.40785184345E+03  0.40785184345E+03  0.00000000000E+00 0.  1.
         25    1    1    2    0    0 -0.25208237479E+02  0.39431575712E+02 -0.45973460408E+02  0.14116962656E+03  0.12500000000E+03 0.  0.
         25    1    1    2    0    0 -0.22286925513E+03  0.24120330928E+02 -0.12484602026E+03  0.28541903234E+03  0.12500000000E+03 0.  0.
         25    1    1    2    0    0  0.24807749261E+03 -0.63551906640E+02  0.76853013264E+02  0.29514856060E+03  0.12500000000E+03 0.  0.
</event>
<event>
 5    0  0.5597833E-005  0.2741430E+03  0.7546771E-02  0.1098932E+00
         21   -1    0    0  502  501  0.00000000000E+00  0.00000000000E+00  0.46177228543E+03  0.46177228543E+03  0.00000000000E+00 0.  1.
         21   -1    0    0  501  502 -0.00000000000E+00 -0.00000000000E+00 -0.16275201187E+03  0.16275201187E+03  0.00000000000E+00 0.  1.
         25    1    1    2    0    0  0.64701649410E+02  0.64354220997E+01  0.22438135077E+03  0.26495227621E+03  0.12500000000E+03 0.  0.
         25    1    1    2    0    0 -0.92069251923E+02  0.67781928506E+02 -0.38040622767E+02  0.17361804619E+03  0.12500000000E+03 0.  0.
         25    1    1    2    0    0  0.27367602513E+02 -0.74217350605E+02  0.11267954556E+03  0.18595397491E+03  0.12500000000E+03 0.  0.
</event>
<event>
 5    0  0.5597833E-005  0.2253141E+03  0.7546771E-02  0.1129982E+00
         21   -1    0    0  502  501  0.00000000000E+00  0.00000000000E+00  0.16727723227E+03  0.16727723227E+03  0.00000000000E+00 0. -1.
         21   -1    0    0  501  502 -0.00000000000E+00 -0.00000000000E+00 -0.30348677513E+03  0.30348677513E+03  0.00000000000E+00 0. -1.
         25    1    1    2    0    0  0.39699097521E+02  0.58225528005E+02  0.36635031521E+02  0.14809914244E+03  0.12500000000E+03 0.  0.
         25    1    1    2    0    0 -0.35055473502E+02 -0.23885097546E+02 -0.13198673025E+03  0.18666783619E+03  0.12500000000E+03 0.  0.
         25    1    1    2    0    0 -0.46436240191E+01 -0.34340430459E+02 -0.40857844133E+02  0.13599702877E+03  0.12500000000E+03 0.  0.
</event>
<event>
 5    0  0.5597833E-005  0.3392783E+03  0.7546771E-02  0.1067104E+00
         21   -1    0    0  502  501  0.00000000000E+00  0.00000000000E+00  0.39192845477E+03  0.39192845477E+03  0.00000000000E+00 0.  1.
         21   -1    0    0  501  502 -0.00000000000E+00 -0.00000000000E+00 -0.29370090656E+03  0.29370090656E+03  0.00000000000E+00 0.  1.
         25    1    1    2    0    0  0.44666908672E+00 -0.14573946230E+02  0.10314202678E+03  0.16271409623E+03  0.12500000000E+03 0.  0.
         25    1    1    2    0    0  0.20460504919E+03  0.80400673120E+02  0.70870812466E+02  0.26263123663E+03  0.12500000000E+03 0.  0.
         25    1    1    2    0    0 -0.20505171828E+03 -0.65826726890E+02 -0.75785291043E+02  0.26028402848E+03  0.12500000000E+03 0.  0.
</event>
<event>
 5    0  0.5597833E-005  0.2834664E+03  0.7546771E-02  0.1093811E+00
         21   -1    0    0  502  501  0.00000000000E+00  0.00000000000E+00  0.36773593150E+02  0.36773593150E+02  0.00000000000E+00 0. -1.
         21   -1    0    0  501  502 -0.00000000000E+00 -0.00000000000E+00 -0.21850795685E+04  0.21850795685E+04  0.00000000000E+00 0. -1.
         25    1    1    2    0    0  0.17029567994E+03 -0.35610743937E+02 -0.66104908284E+03  0.69489541199E+03  0.12500000000E+03 0.  0.
         25    1    1    2    0    0 -0.16751423037E+03  0.33681533801E+02 -0.75588266406E+03  0.78497074144E+03  0.12500000000E+03 0.  0.
         25    1    1    2    0    0 -0.27814495664E+01  0.19292101363E+01 -0.73137422850E+03  0.74198700826E+03  0.12500000000E+03 0.  0.
</event>
<event>
 5    0  0.5597833E-005  0.2726097E+03  0.7546771E-02  0.1099795E+00
         21   -1    0    0  502  501  0.00000000000E+00  0.00000000000E+00  0.24888090297E+03  0.24888090297E+03  0.00000000000E+00 0.  1.
         21   -1    0    0  501  502 -0.00000000000E+00 -0.00000000000E+00 -0.29860087766E+03  0.29860087766E+03  0.00000000000E+00 0.  1.
         25    1    1    2    0    0 -0.80437613656E+02  0.68092123876E+02 -0.85144799073E+02  0.18434040207E+03  0.12500000000E+03 0.  0.
         25    1    1    2    0    0 -0.38479565672E+02 -0.34374519462E+01  0.10339556268E+03  0.16675771476E+03  0.12500000000E+03 0.  0.
         25    1    1    2    0    0  0.11891717933E+03 -0.64654671930E+02 -0.67970738294E+02  0.19638366380E+03  0.12500000000E+03 0.  0.
</event>
<event>
 5    0  0.5597833E-005  0.3885384E+03  0.7546771E-02  0.1047822E+00
         21   -1    0    0  502  501  0.00000000000E+00  0.00000000000E+00  0.18928363766E+03  0.18928363766E+03  0.00000000000E+00 0.  1.
         21   -1    0    0  501  502 -0.00000000000E+00 -0.00000000000E+00 -0.79754447956E+03  0.79754447956E+03  0.00000000000E+00 0.  1.
         25    1    1    2    0    0  0.13414053237E+03 -0.26537154285E+03 -0.26844172987E+03  0.41964473131E+03  0.12500000000E+03 0.  0.
         25    1    1    2    0    0 -0.64569030447E+02  0.36307886975E+02 -0.23742612832E+03  0.27835874112E+03  0.12500000000E+03 0.  0.
         25    1    1    2    0    0 -0.69571501923E+02  0.22906365588E+03 -0.10239298372E+03  0.28882464479E+03  0.12500000000E+03 0.  0.
</event>
<event>
 5    0  0.5597833E-005  0.4682087E+03  0.7546771E-02  0.1022427E+00
         21   -1    0    0  502  501  0.00000000000E+00  0.00000000000E+00  0.53581168082E+03  0.53581168082E+03  0.00000000000E+00 0. -1.
         21   -1    0    0  501  502 -0.00000000000E+00 -0.00000000000E+00 -0.40913509854E+03  0.40913509854E+03  0.00000000000E+00 0. -1.
         25    1    1    2    0    0  0.38955252954E+03  0.12073665320E+03 -0.65462341983E+01  0.42661032088E+03  0.12500000000E+03 0.  0.
         25    1    1    2    0    0 -0.14347540159E+03 -0.11774495001E+03  0.76979400994E+02  0.23664296375E+03  0.12500000000E+03 0.  0.
         25    1    1    2    0    0 -0.24607712796E+03 -0.29917031939E+01  0.56243415486E+02  0.28169349474E+03  0.12500000000E+03 0.  0.
</event>
<event>
 5    0  0.5597833E-005  0.2621198E+03  0.7546771E-02  0.1105876E+00
         21   -1    0    0  502  501  0.00000000000E+00  0.00000000000E+00  0.84631502140E+03  0.84631502140E+03  0.00000000000E+00 0. -1.
         21   -1    0    0  501  502 -0.00000000000E+00 -0.00000000000E+00 -0.81183453389E+02  0.81183453389E+02  0.00000000000E+00 0. -1.
         25    1    1    2    0    0  0.54382143597E+02  0.81653555519E+02  0.56087149393E+03  0.58294644125E+03  0.12500000000E+03 0.  0.
         25    1    1    2    0    0  0.73119960537E+01 -0.36564534495E+02  0.85624230304E+02  0.15603505787E+03  0.12500000000E+03 0.  0.
         25    1    1    2    0    0 -0.61694139651E+02 -0.45089021025E+02  0.11863584378E+03  0.18851697566E+03  0.12500000000E+03 0.  0.
</event>
<event>
 5    0  0.5597833E-005  0.2574814E+03  0.7546771E-02  0.1108666E+00
         21   -1    0    0  502  501  0.00000000000E+00  0.00000000000E+00  0.12363867254E+03  0.12363867254E+03  0.00000000000E+00 0. -1.
         21   -1    0    0  501  502 -0.00000000000E+00 -0.00000000000E+00 -0.53621314994E+03  0.53621314994E+03  0.00000000000E+00 0. -1.
         25    1    1    2    0    0 -0.42910539077E+02 -0.48874452691E+02 -0.67391228974E+02  0.15619412355E+03  0.12500000000E+03 0.  0.
         25    1    1    2    0    0 -0.96542019657E+02 -0.17004403429E+02 -0.21069017621E+03  0.26386523387E+03  0.12500000000E+03 0.  0.
         25    1    1    2    0    0  0.13945255873E+03  0.65878856120E+02 -0.13449307222E+03  0.23979246505E+03  0.12500000000E+03 0.  0.
</event>
<event>
 5    0  0.5597833E-005  0.2593920E+03  0.7546771E-02  0.1107509E+00
         21   -1    0    0  502  501  0.00000000000E+00  0.00000000000E+00  0.63752361416E+03  0.63752361416E+03  0.00000000000E+00 0.  1.
         21   -1    0    0  501  502 -0.00000000000E+00 -0.00000000000E+00 -0.10553998902E+03  0.10553998902E+03  0.00000000000E+00 0.  1.
         25    1    1    2    0    0 -0.63059880549E+02  0.12814081931E+03  0.16400847895E+03  0.25083938941E+03  0.12500000000E+03 0.  0.
         25    1    1    2    0    0  0.18386709608E+02 -0.90502605738E+02  0.84375543994E+02  0.17684180829E+03  0.12500000000E+03 0.  0.
         25    1    1    2    0    0  0.44673170942E+02 -0.37638213575E+02  0.28359960219E+03  0.31538240548E+03  0.12500000000E+03 0.  0.
</event>
<event>
 5    0  0.5597833E-005  0.2851396E+03  0.7546771E-02  0.1092914E+00
         21   -1    0    0  502  501  0.00000000000E+00  0.00000000000E+00  0.14566038096E+03  0.14566038096E+03  0.00000000000E+00 0. -1.
         21   -1    0    0  501  502 -0.00000000000E+00 -0.00000000000E+00 -0.55817901899E+03  0.55817901899E+03  0.00000000000E+00 0. -1.
         25    1    1    2    0    0 -0.22146119046E+02  0.55214135287E+02 -0.34466006704E+03  0.37142241873E+03  0.12500000000E+03 0.  0.
         25    1    1    2    0    0 -0.38531176510E+01 -0.10014748784E+03 -0.10561831939E+03  0.19189735597E+03  0.12500000000E+03 0.  0.
         25    1    1    2    0    0  0.25999236697E+02  0.44933352550E+02  0.37759748412E+02  0.14051962525E+03  0.12500000000E+03 0.  0.
</event>
<event>
 5    0  0.5597833E-005  0.3849204E+03  0.7546771E-02  0.1049130E+00
         21   -1    0    0  502  501  0.00000000000E+00  0.00000000000E+00  0.21663713745E+03  0.21663713745E+03  0.00000000000E+00 0.  1.
         21   -1    0    0  501  502 -0.00000000000E+00 -0.00000000000E+00 -0.68392581391E+03  0.68392581391E+03  0.00000000000E+00 0.  1.
         25    1    1    2    0    0  0.82791762666E+02  0.27015731665E+03 -0.62120281886E+02  0.31515612183E+03  0.12500000000E+03 0.  0.
         25    1    1    2    0    0 -0.16465977693E+02 -0.17258929590E+03 -0.10182719968E+03  0.23675297691E+03  0.12500000000E+03 0.  0.
         25    1    1    2    0    0 -0.66325784973E+02 -0.97568020749E+02 -0.30334119491E+03  0.34865385263E+03  0.12500000000E+03 0.  0.
</event>
<event>
 5    0  0.5597833E-005  0.2619476E+03  0.7546771E-02  0.1105979E+00
         21   -1    0    0  502  501  0.00000000000E+00  0.00000000000E+00  0.14718143402E+03  0.14718143402E+03  0.00000000000E+00 0.  1.
         21   -1    0    0  501  502 -0.00000000000E+00 -0.00000000000E+00 -0.46620398509E+03  0.46620398509E+03  0.00000000000E+00 0.  1.
         25    1    1    2    0    0  0.90830030844E+01 -0.15798855321E+02 -0.27676862817E+03  0.30423342735E+03  0.12500000000E+03 0.  0.
         25    1    1    2    0    0 -0.54153299859E+01  0.85910330765E+02 -0.62929964571E+02  0.16430182948E+03  0.12500000000E+03 0.  0.
         25    1    1    2    0    0 -0.36676730986E+01 -0.70111475444E+02  0.20676041676E+02  0.14485016229E+03  0.12500000000E+03 0.  0.
</event>
<event>
 5    0  0.5597833E-005  0.2877301E+03  0.7546771E-02  0.1091540E+00
         21   -1    0    0  502  501  0.00000000000E+00  0.00000000000E+00  0.87503938118E+02  0.87503938118E+02  0.00000000000E+00 0. -1.
         21   -1    0    0  501  502 -0.00000000000E+00 -0.00000000000E+00 -0.94611282398E+03  0.94611282398E+03  0.00000000000E+00 0. -1.
         25    1    1    2    0    0  0.22662975191E+02  0.39435034928E+02 -0.36922386955E+02  0.13804707560E+03  0.12500000000E+03 0.  0.
         25    1    1    2    0    0 -0.27633755340E+02  0.10348711300E+03 -0.33891031757E+03  0.37677368585E+03  0.12500000000E+03 0.  0.
         25    1    1    2    0    0  0.49707801487E+01 -0.14292214793E+03 -0.48277618134E+03  0.51879600065E+03  0.12500000000E+03 0.  0.
</event>
<event>
 5    0  0.5597833E-005  0.2676268E+03  0.7546771E-02  0.1102646E+00
         21   -1    0    0  502  501  0.00000000000E+00  0.00000000000E+00  0.81750510373E+03  0.81750510373E+03  0.00000000000E+00 0.  1.
         21   -1    0    0  501  502 -0.00000000000E+00 -0.00000000000E+00 -0.87613049192E+02  0.87613049192E+02  0.00000000000E+00 0.  1.
         25    1    1    2    0    0 -0.12169593813E+02  0.10220735768E+03  0.98607020197E+02  0.18958583125E+03  0.12500000000E+03 0.  0.
         25    1    1    2    0    0  0.94806197903E+02 -0.69102637151E+02  0.42622622841E+03  0.45940960744E+03  0.12500000000E+03 0.  0.
         25    1    1    2    0    0 -0.82636604090E+02 -0.33104720532E+02  0.20505880593E+03  0.25612271423E+03  0.12500000000E+03 0.  0.
</event>
<event>
 5    0  0.5597833E-005  0.3274693E+03  0.7546771E-02  0.1072262E+00
         21   -1    0    0  502  501  0.00000000000E+00  0.00000000000E+00  0.17299332073E+03  0.17299332073E+03  0.00000000000E+00 0. -1.
         21   -1    0    0  501  502 -0.00000000000E+00 -0.00000000000E+00 -0.61988587120E+03  0.61988587120E+03  0.00000000000E+00 0. -1.
         25    1    1    2    0    0  0.18060320102E+03  0.12338361222E+03 -0.78203355338E+02  0.26378361732E+03  0.12500000000E+03 0.  0.
         25    1    1    2    0    0 -0.36060210590E+02  0.12144721745E+02 -0.20572993154E+03  0.24371630595E+03  0.12500000000E+03 0.  0.
         25    1    1    2    0    0 -0.14454299043E+03 -0.13552833396E+03 -0.16295926360E+03  0.28537926866E+03  0.12500000000E+03 0.  0.
</event>
<event>
 5    0  0.5597833E-005  0.2597885E+03  0.7546771E-02  0.1107270E+00
         21   -1    0    0  502  501  0.00000000000E+00  0.00000000000E+00  0.35644694963E+03  0.35644694963E+03  0.00000000000E+00 0. -1.
         21   -1    0    0  501  502 -0.00000000000E+00 -0.00000000000E+00 -0.18934116373E+03  0.18934116373E+03  0.00000000000E+00 0. -1.
         25    1    1    2    0    0  0.11031328026E+03 -0.40768630078E+02  0.12492704555E+03  0.21228016325E+03  0.12500000000E+03 0.  0.
         25    1    1    2    0    0 -0.68535913875E+02  0.35637149749E+02  0.11154400736E+03  0.18448372153E+03  0.12500000000E+03 0.  0.
         25    1    1    2    0    0 -0.41777366382E+02  0.51314803291E+01 -0.69365267016E+02  0.14902422857E+03  0.12500000000E+03 0.  0.
</event>
<event>
 5    0  0.5597833E-005  0.2948177E+03  0.7546771E-02  0.1087860E+00
         21   -1    0    0  502  501  0.00000000000E+00  0.00000000000E+00  0.61418299508E+03  0.61418299508E+03  0.00000000000E+00 0. -1.
         21   -1    0    0  501  502 -0.00000000000E+00 -0.00000000000E+00 -0.14151723548E+03  0.14151723548E+03  0.00000000000E+00 0. -1.
         25    1    1    2    0    0 -0.90024092918E+02  0.10411719459E+03  0.25059444386E+03  0.31203734201E+03  0.12500000000E+03 0.  0.
         25    1    1    2    0    0  0.12542199282E+03  0.47966350081E+02  0.93777215206E+02  0.20603546567E+03  0.12500000000E+03 0.  0.
         25    1    1    2    0    0 -0.35397899900E+02 -0.15208354467E+03  0.12829410053E+03  0.23762742289E+03  0.12500000000E+03 0.  0.
</event>
<event>
 5    0  0.6477420E-005  0.3536254E+03  0.7546771E-02  0.1061137E+00
         21   -1    0    0  502  501  0.00000000000E+00  0.00000000000E+00  0.55956949622E+03  0.55956949622E+03  0.00000000000E+00 0. -1.
         21   -1    0    0  501  502 -0.00000000000E+00 -0.00000000000E+00 -0.22347699504E+03  0.22347699504E+03  0.00000000000E+00 0. -1.
         25    1    1    2    0    0  0.12965056696E+03 -0.21908792838E+02  0.21074416664E+03  0.27807798994E+03  0.12500000000E+03 0.  0.
         25    1    1    2    0    0 -0.16316914667E+03  0.62399691482E+02  0.24378825492E+03  0.32492399905E+03  0.12500000000E+03 0.  0.
         25    1    1    2    0    0  0.33518579712E+02 -0.40490898644E+02 -0.11843992037E+03  0.18004450227E+03  0.12500000000E+03 0.  0.
</event>
<event>
 5    0  0.5597833E-005  0.3207864E+03  0.7546771E-02  0.1075288E+00
         21   -1    0    0  502  501  0.00000000000E+00  0.00000000000E+00  0.17551796431E+03  0.17551796431E+03  0.00000000000E+00 0. -1.
         21   -1    0    0  501  502 -0.00000000000E+00 -0.00000000000E+00 -0.58628706434E+03  0.58628706434E+03  0.00000000000E+00 0. -1.
         25    1    1    2    0    0  0.41424175072E+02  0.89757570998E+02  0.23079160951E+02  0.16102804570E+03  0.12500000000E+03 0.  0.
         25    1    1    2    0    0  0.22013790918E+02 -0.63641300255E+02 -0.43562242257E+03  0.45817760435E+03  0.12500000000E+03 0.  0.
         25    1    1    2    0    0 -0.63437965990E+02 -0.26116270743E+02  0.17741615930E+01  0.14259937860E+03  0.12500000000E+03 0.  0.
</event>
<event>
 5    0  0.5597833E-005  0.3074709E+03  0.7546771E-02  0.1081564E+00
         21   -1    0    0  502  501  0.00000000000E+00  0.00000000000E+00  0.19764717249E+03  0.19764717249E+03  0.00000000000E+00 0.  1.
         21   -1    0    0  501  502 -0.00000000000E+00 -0.00000000000E+00 -0.47831877009E+03  0.47831877009E+03  0.00000000000E+00 0.  1.
         25    1    1    2    0    0 -0.65178532586E+02  0.18151535394E+03 -0.44943299206E+01  0.22987227721E+03  0.12500000000E+03 0.  0.
         25    1    1    2    0    0  0.62495371600E+02 -0.47350345256E+02 -0.19750941087E+03  0.24654146517E+03  0.12500000000E+03 0.  0.
         25    1    1    2    0    0  0.26831609868E+01 -0.13416500868E+03 -0.78667856811E+02  0.19955220020E+03  0.12500000000E+03 0.  0.
</event>
<event>
 5    0  0.5597833E-005  0.3416738E+03  0.7546771E-02  0.1066085E+00
         21   -1    0    0  502  501  0.00000000000E+00  0.00000000000E+00  0.99460273387E+03  0.99460273387E+03  0.00000000000E+00 0.  1.
         21   -1    0    0  501  502 -0.00000000000E+00 -0.00000000000E+00 -0.11737445305E+03  0.11737445305E+03  0.00000000000E+00 0.  1.
         25    1    1    2    0    0 -0.28431488899E+01  0.18324221688E+02  0.78355101088E+02  0.14868887807E+03  0.12500000000E+03 0.  0.
         25    1    1    2    0    0 -0.78391539972E+02  0.28830532285E+02  0.11047937646E+01  0.15034178960E+03  0.12500000000E+03 0.  0.
         25    1    1    2    0    0  0.81234688862E+02 -0.47154753974E+02  0.79776838597E+03  0.81294651925E+03  0.12500000000E+03 0.  0.
</event>
<event>
 5    0  0.5597833E-005  0.3849017E+03  0.7546771E-02  0.1049137E+00
         21   -1    0    0  502  501  0.00000000000E+00  0.00000000000E+00  0.51245733913E+03  0.51245733913E+03  0.00000000000E+00 0.  1.
         21   -1    0    0  501  502 -0.00000000000E+00 -0.00000000000E+00 -0.28909585074E+03  0.28909585074E+03  0.00000000000E+00 0.  1.
         25    1    1    2    0    0  0.21370901523E+03  0.61270293000E+02  0.67327044504E+00  0.25505106408E+03  0.12500000000E+03 0.  0.
         25    1    1    2    0    0  0.42727052249E+02 -0.14675042549E+03  0.12215018685E+03  0.23217871677E+03  0.12500000000E+03 0.  0.
         25    1    1    2    0    0 -0.25643606748E+03  0.85480132492E+02  0.10053803111E+03  0.31432340902E+03  0.12500000000E+03 0.  0.
</event>
<event>
 5    0  0.5707858E-005  0.3393988E+03  0.7546771E-02  0.1067052E+00
         21   -1    0    0  502  501  0.00000000000E+00  0.00000000000E+00  0.14252980983E+03  0.14252980983E+03  0.00000000000E+00 0.  1.
         21   -1    0    0  501  502 -0.00000000000E+00 -0.00000000000E+00 -0.80819272808E+03  0.80819272808E+03  0.00000000000E+00 0.  1.
         25    1    1    2    0    0 -0.13474165440E+03 -0.44625094617E+01 -0.74223512067E+02  0.19826587494E+03  0.12500000000E+03 0.  0.
         25    1    1    2    0    0  0.19034946439E+02  0.65413491960E+02 -0.90845994290E+01  0.14264916426E+03  0.12500000000E+03 0.  0.
         25    1    1    2    0    0  0.11570670797E+03 -0.60950982498E+02 -0.58235480675E+03  0.60980749871E+03  0.12500000000E+03 0.  0.
</event>
<event>
 5    0  0.5597833E-005  0.4357080E+03  0.7546771E-02  0.1032072E+00
         21   -1    0    0  502  501  0.00000000000E+00  0.00000000000E+00  0.37657351164E+03  0.37657351164E+03  0.00000000000E+00 0. -1.
         21   -1    0    0  501  502 -0.00000000000E+00 -0.00000000000E+00 -0.50412857538E+03  0.50412857538E+03  0.00000000000E+00 0. -1.
         25    1    1    2    0    0 -0.34019971099E+03  0.42691393352E+02  0.59679040120E+02  0.36979046263E+03  0.12500000000E+03 0.  0.
         25    1    1    2    0    0  0.66215406897E+02 -0.54466056507E+02  0.80498325154E+01  0.15179206575E+03  0.12500000000E+03 0.  0.
         25    1    1    2    0    0  0.27398430409E+03  0.11774663155E+02 -0.19528393638E+03  0.35911955863E+03  0.12500000000E+03 0.  0.
</event>
<event>
 5    0  0.5597833E-005  0.2465625E+03  0.7546771E-02  0.1115497E+00
         21   -1    0    0  502  501  0.00000000000E+00  0.00000000000E+00  0.39217177230E+03  0.39217177230E+03  0.00000000000E+00 0.  1.
         21   -1    0    0  501  502 -0.00000000000E+00 -0.00000000000E+00 -0.15501637442E+03  0.15501637442E+03  0.00000000000E+00 0.  1.
         25    1    1    2    0    0 -0.48611971502E+02 -0.33171841437E+02  0.44569132451E+02  0.14517197527E+03  0.12500000000E+03 0.  0.
         25    1    1    2    0    0 -0.26588544234E+02 -0.53365427868E+02  0.18649466593E+03  0.23229309072E+03  0.12500000000E+03 0.  0.
         25    1    1    2    0    0  0.75200515736E+02  0.86537269305E+02  0.60915994955E+01  0.16972308072E+03  0.12500000000E+03 0.  0.
</event>
<event>
 5    0  0.5597833E-005  0.3390583E+03  0.7546771E-02  0.1067198E+00
         21   -1    0    0  502  501  0.00000000000E+00  0.00000000000E+00  0.49433052270E+03  0.49433052270E+03  0.00000000000E+00 0. -1.
         21   -1    0    0  501  502 -0.00000000000E+00 -0.00000000000E+00 -0.23255799970E+03  0.23255799970E+03  0.00000000000E+00 0. -1.
         25    1    1    2    0    0 -0.51901658592E+02 -0.16428460045E+03  0.10781238742E+03  0.23860369442E+03  0.12500000000E+03 0.  0.
         25    1    1    2    0    0 -0.36484512899E+02 -0.72654978890E+02  0.14204131542E+03  0.20593834253E+03  0.12500000000E+03 0.  0.
         25    1    1    2    0    0  0.88386171491E+02  0.23693957934E+03  0.11918820150E+02  0.28234648544E+03  0.12500000000E+03 0.  0.
</event>
<event>
 5    0  0.5597833E-005  0.3716186E+03  0.7546771E-02  0.1054076E+00
         21   -1    0    0  502  501  0.00000000000E+00  0.00000000000E+00  0.16341842656E+04  0.16341842656E+04  0.00000000000E+00 0. -1.
         21   -1    0    0  501  502 -0.00000000000E+00 -0.00000000000E+00 -0.84507247573E+02  0.84507247573E+02  0.00000000000E+00 0. -1.
         25    1    1    2    0    0  0.17619113055E+03 -0.10984171581E+03  0.47352843890E+03  0.53194238360E+03  0.12500000000E+03 0.  0.
         25    1    1    2    0    0  0.27491523037E+02 -0.52152251179E+02  0.10492467225E+03  0.17352183721E+03  0.12500000000E+03 0.  0.
         25    1    1    2    0    0 -0.20368265359E+03  0.16199396699E+03  0.97122390689E+03  0.10132272924E+04  0.12500000000E+03 0.  0.
</event>
<event>
 5    0  0.5702736E-005  0.2649781E+03  0.7546771E-02  0.1104189E+00
         21   -1    0    0  502  501  0.00000000000E+00  0.00000000000E+00  0.46194408711E+03  0.46194408711E+03  0.00000000000E+00 0. -1.
         21   -1    0    0  501  502 -0.00000000000E+00 -0.00000000000E+00 -0.15199540597E+03  0.15199540597E+03  0.00000000000E+00 0. -1.
         25    1    1    2    0    0 -0.96669326300E+02 -0.78749639151E+02  0.21260904789E+03  0.27635859234E+03  0.12500000000E+03 0.  0.
         25    1    1    2    0    0  0.10634760749E+02 -0.12556969530E+02  0.99274692254E+02  0.16047192945E+03  0.12500000000E+03 0.  0.
         25    1    1    2    0    0  0.86034565551E+02  0.91306608681E+02 -0.19350590024E+01  0.17710897129E+03  0.12500000000E+03 0.  0.
</event>
<event>
 5    0  0.5597833E-005  0.2521932E+03  0.7546771E-02  0.1111927E+00
         21   -1    0    0  502  501  0.00000000000E+00  0.00000000000E+00  0.26503774420E+03  0.26503774420E+03  0.00000000000E+00 0.  1.
         21   -1    0    0  501  502 -0.00000000000E+00 -0.00000000000E+00 -0.23997113276E+03  0.23997113276E+03  0.00000000000E+00 0.  1.
         25    1    1    2    0    0 -0.28298148870E+02  0.17750485733E+02  0.23930930687E+02  0.13158098045E+03  0.12500000000E+03 0.  0.
         25    1    1    2    0    0 -0.33578964232E+02  0.11885181744E+03 -0.20897759462E+02  0.17696049757E+03  0.12500000000E+03 0.  0.
         25    1    1    2    0    0  0.61877113101E+02 -0.13660230317E+03  0.22033440213E+02  0.19646739894E+03  0.12500000000E+03 0.  0.
</event>
<event>
 5    0  0.6319539E-005  0.2970844E+03  0.7546771E-02  0.1086707E+00
         21   -1    0    0  502  501  0.00000000000E+00  0.00000000000E+00  0.36003269520E+03  0.36003269520E+03  0.00000000000E+00 0. -1.
         21   -1    0    0  501  502 -0.00000000000E+00 -0.00000000000E+00 -0.24514203939E+03  0.24514203939E+03  0.00000000000E+00 0. -1.
         25    1    1    2    0    0 -0.49184613300E+02  0.71162749143E+02 -0.14849511677E+03  0.21250661815E+03  0.12500000000E+03 0.  0.
         25    1    1    2    0    0  0.51094264597E+01  0.17220788147E+02  0.15525041065E+03  0.20012583989E+03  0.12500000000E+03 0.  0.
         25    1    1    2    0    0  0.44075186840E+02 -0.88383537290E+02  0.10813536194E+03  0.19254227656E+03  0.12500000000E+03 0.  0.
</event>
<event>
 5    0  0.5597833E-005  0.2725754E+03  0.7546771E-02  0.1099815E+00
         21   -1    0    0  502  501  0.00000000000E+00  0.00000000000E+00  0.50629609508E+03  0.50629609508E+03  0.00000000000E+00 0. -1.
         21   -1    0    0  501  502 -0.00000000000E+00 -0.00000000000E+00 -0.14674681350E+03  0.14674681350E+03  0.00000000000E+00 0. -1.
         25    1    1    2    0    0 -0.10595438264E+03 -0.14205596895E+03  0.65385878788E+02  0.22650947587E+03  0.12500000000E+03 0.  0.
         25    1    1    2    0    0  0.61989343415E+02  0.89160500807E+02  0.14459596911E+03  0.21983008867E+03  0.12500000000E+03 0.  0.
         25    1    1    2    0    0  0.43965039225E+02  0.52895468138E+02  0.14956743368E+03  0.20670334405E+03  0.12500000000E+03 0.  0.
</event>
<event>
 5    0  0.5597833E-005  0.2123339E+03  0.7546771E-02  0.1139731E+00
         21   -1    0    0  502  501  0.00000000000E+00  0.00000000000E+00  0.10355081816E+03  0.10355081816E+03  0.00000000000E+00 0.  1.
         21   -1    0    0  501  502 -0.00000000000E+00 -0.00000000000E+00 -0.43539654714E+03  0.43539654714E+03  0.00000000000E+00 0.  1.
         25    1    1    2    0    0  0.27190421740E+02  0.40910466146E+02 -0.51700951009E+02  0.14391307658E+03  0.12500000000E+03 0.  0.
         25    1    1    2    0    0  0.10468964902E+02 -0.43991677621E+02 -0.77239857014E+02  0.15373959294E+03  0.12500000000E+03 0.  0.
         25    1    1    2    0    0 -0.37659386642E+02  0.30812114744E+01 -0.20290492095E+03  0.24129469578E+03  0.12500000000E+03 0.  0.
</event>
<event>
 5    0  0.6546890E-005  0.3095788E+03  0.7546771E-02  0.1080548E+00
         21   -1    0    0  502  501  0.00000000000E+00  0.00000000000E+00  0.39094061143E+03  0.39094061143E+03  0.00000000000E+00 0.  1.
         21   -1    0    0  501  502 -0.00000000000E+00 -0.00000000000E+00 -0.24514982981E+03  0.24514982981E+03  0.00000000000E+00 0.  1.
         25    1    1    2    0    0 -0.36951876220E+02  0.46364603303E+02  0.17624491657E+03  0.22405889451E+03  0.12500000000E+03 0.  0.
         25    1    1    2    0    0 -0.45032149584E+02  0.12573956506E+03 -0.15228460287E+02  0.18356262887E+03  0.12500000000E+03 0.  0.
         25    1    1    2    0    0  0.81984025804E+02 -0.17210416836E+03 -0.15225674657E+02  0.22846891785E+03  0.12500000000E+03 0.  0.
</event>
<event>
 5    0  0.5597833E-005  0.3405076E+03  0.7546771E-02  0.1066580E+00
         21   -1    0    0  502  501  0.00000000000E+00  0.00000000000E+00  0.43180556347E+03  0.43180556347E+03  0.00000000000E+00 0.  1.
         21   -1    0    0  501  502 -0.00000000000E+00 -0.00000000000E+00 -0.26851311699E+03  0.26851311699E+03  0.00000000000E+00 0.  1.
         25    1    1    2    0    0  0.11117967652E+02  0.10599246886E+03  0.62209603103E+02  0.17565035548E+03  0.12500000000E+03 0.  0.
         25    1    1    2    0    0 -0.68518828262E+02  0.24139791565E+02  0.24660203374E+03  0.28585857064E+03  0.12500000000E+03 0.  0.
         25    1    1    2    0    0  0.57400860610E+02 -0.13013226043E+03 -0.14551919037E+03  0.23880975434E+03  0.12500000000E+03 0.  0.
</event>
<event>
 5    0  0.5597833E-005  0.2199517E+03  0.7546771E-02  0.1133919E+00
         21   -1    0    0  502  501  0.00000000000E+00  0.00000000000E+00  0.43195123749E+03  0.43195123749E+03  0.00000000000E+00 0. -1.
         21   -1    0    0  501  502 -0.00000000000E+00 -0.00000000000E+00 -0.11200047937E+03  0.11200047937E+03  0.00000000000E+00 0. -1.
         25    1    1    2    0    0 -0.57628938322E+02  0.24691949936E+02  0.34389679993E+02  0.14400846160E+03  0.12500000000E+03 0.  0.
         25    1    1    2    0    0  0.41763647643E+02  0.16486695823E+02  0.20671127176E+03  0.24570421909E+03  0.12500000000E+03 0.  0.
         25    1    1    2    0    0  0.15865290679E+02 -0.41178645758E+02  0.78849806363E+02  0.15423903617E+03  0.12500000000E+03 0.  0.
</event>
<event>
 5    0  0.5597833E-005  0.4869463E+03  0.7546771E-02  0.1017243E+00
         21   -1    0    0  502  501  0.00000000000E+00  0.00000000000E+00  0.10181543904E+04  0.10181543904E+04  0.00000000000E+00 0.  1.
         21   -1    0    0  501  502 -0.00000000000E+00 -0.00000000000E+00 -0.23288872675E+03  0.23288872675E+03  0.00000000000E+00 0.  1.
         25    1    1    2    0    0  0.28075868045E+02  0.15776435435E+03  0.34385344002E+03  0.39942212518E+03  0.12500000000E+03 0.  0.
         25    1    1    2    0    0  0.31870417962E+03 -0.79833681685E+02  0.21311803892E+03  0.41108401739E+03  0.12500000000E+03 0.  0.
         25    1    1    2    0    0 -0.34678004767E+03 -0.77930672667E+02  0.22829418473E+03  0.44053697459E+03  0.12500000000E+03 0.  0.
</event>
<event>
 5    0  0.5597833E-005  0.2656792E+03  0.7546771E-02  0.1103778E+00
         21   -1    0    0  502  501  0.00000000000E+00  0.00000000000E+00  0.14878199196E+04  0.14878199196E+04  0.00000000000E+00 0.  1.
         21   -1    0    0  501  502 -0.00000000000E+00 -0.00000000000E+00 -0.47442187241E+02  0.47442187241E+02  0.00000000000E+00 0.  1.
         25    1    1    2    0    0 -0.43318289460E+02 -0.12914013274E+03  0.40926842285E+03  0.44908717420E+03  0.12500000000E+03 0.  0.
         25    1    1    2    0    0  0.54942546189E+02 -0.84846995822E+01  0.27101115512E+03  0.30358313475E+03  0.12500000000E+03 0.  0.
         25    1    1    2    0    0 -0.11624256729E+02  0.13762483232E+03  0.76009815436E+03  0.78259179786E+03  0.12500000000E+03 0.  0.
</event>
<event>
 5    0  0.5597833E-005  0.3250504E+03  0.7546771E-02  0.1073348E+00
         21   -1    0    0  502  501  0.00000000000E+00  0.00000000000E+00  0.55279542478E+03  0.55279542478E+03  0.00000000000E+00 0. -1.
         21   -1    0    0  501  502 -0.00000000000E+00 -0.00000000000E+00 -0.19113353474E+03  0.19113353474E+03  0.00000000000E+00 0. -1.
         25    1    1    2    0    0 -0.42441195723E+02  0.19444190450E+03  0.18405845907E+03  0.29851536925E+03  0.12500000000E+03 0.  0.
         25    1    1    2    0    0  0.12345784127E+03 -0.11979439965E+03  0.15911549866E+02  0.21323863200E+03  0.12500000000E+03 0.  0.
         25    1    1    2    0    0 -0.81016645545E+02 -0.74647504858E+02  0.16169188110E+03  0.23217495827E+03  0.12500000000E+03 0.  0.
</event>
<event>
 5    0  0.5597833E-005  0.2555958E+03  0.7546771E-02  0.1109819E+00
         21   -1    0    0  502  501  0.00000000000E+00  0.00000000000E+00  0.91358597615E+02  0.91358597615E+02  0.00000000000E+00 0.  1.
         21   -1    0    0  501  502 -0.00000000000E+00 -0.00000000000E+00 -0.71508564037E+03  0.71508564037E+03  0.00000000000E+00 0.  1.
         25    1    1    2    0    0  0.69070927012E+02  0.35646559144E+02 -0.94833029733E+02  0.17509932514E+03  0.12500000000E+03 0.  0.
         25    1    1    2    0    0 -0.75155191982E+02 -0.44164552382E+01 -0.46508471708E+03  0.48743881874E+03  0.12500000000E+03 0.  0.
         25    1    1    2    0    0  0.60842649699E+01 -0.31230103906E+02 -0.63809295945E+02  0.14390609410E+03  0.12500000000E+03 0.  0.
</event>
<event>
 5    0  0.5597833E-005  0.3411107E+03  0.7546771E-02  0.1066324E+00
         21   -1    0    0  502  501  0.00000000000E+00  0.00000000000E+00  0.42469610247E+03  0.42469610247E+03  0.00000000000E+00 0. -1.
         21   -1    0    0  501  502 -0.00000000000E+00 -0.00000000000E+00 -0.27397589170E+03  0.27397589170E+03  0.00000000000E+00 0. -1.
         25    1    1    2    0    0 -0.10314591544E+03 -0.29994923605E+02 -0.14869733127E+03  0.22197898919E+03  0.12500000000E+03 0.  0.
         25    1    1    2    0    0 -0.78972192838E+02  0.20578692360E+02  0.13353777065E+03  0.20029334989E+03  0.12500000000E+03 0.  0.
         25    1    1    2    0    0  0.18211810828E+03  0.94162312443E+01  0.16587977140E+03  0.27639965509E+03  0.12500000000E+03 0.  0.
</event>
<event>
 5    0  0.5597833E-005  0.2675015E+03  0.7546771E-02  0.1102718E+00
         21   -1    0    0  502  501  0.00000000000E+00  0.00000000000E+00  0.18336195887E+03  0.18336195887E+03  0.00000000000E+00 0. -1.
         21   -1    0    0  501  502 -0.00000000000E+00 -0.00000000000E+00 -0.39025039373E+03  0.39025039373E+03  0.00000000000E+00 0. -1.
         25    1    1    2    0    0 -0.14939273173E+03  0.53148958171E+02 -0.76556390584E+02  0.21593721539E+03  0.12500000000E+03 0.  0.
         25    1    1    2    0    0  0.59553503296E+02  0.46342660011E+02 -0.84669089373E+02  0.16878423086E+03  0.12500000000E+03 0.  0.
         25    1    1    2    0    0  0.89839228437E+02 -0.99491618182E+02 -0.45662954898E+02  0.18889090636E+03  0.12500000000E+03 0.  0.
</event>
<event>
 5    0  0.5597833E-005  0.3772968E+03  0.7546771E-02  0.1051937E+00
         21   -1    0    0  502  501  0.00000000000E+00  0.00000000000E+00  0.10994945955E+04  0.10994945955E+04  0.00000000000E+00 0.  1.
         21   -1    0    0  501  502 -0.00000000000E+00 -0.00000000000E+00 -0.12947117686E+03  0.12947117686E+03  0.00000000000E+00 0.  1.
         25    1    1    2    0    0  0.20017198385E+01 -0.26075983252E+03  0.20745209587E+03  0.35589474458E+03  0.12500000000E+03 0.  0.
         25    1    1    2    0    0 -0.11212163260E+03  0.12225219510E+03  0.39970935879E+03  0.45045469384E+03  0.12500000000E+03 0.  0.
         25    1    1    2    0    0  0.11011991276E+03  0.13850763742E+03  0.36286196399E+03  0.42261633395E+03  0.12500000000E+03 0.  0.
</event>
<event>
 5    0  0.5597833E-005  0.2797267E+03  0.7546771E-02  0.1095838E+00
         21   -1    0    0  502  501  0.00000000000E+00  0.00000000000E+00  0.18619791717E+03  0.18619791717E+03  0.00000000000E+00 0.  1.
         21   -1    0    0  501  502 -0.00000000000E+00 -0.00000000000E+00 -0.42023588201E+03  0.42023588201E+03  0.00000000000E+00 0.  1.
         25    1    1    2    0    0 -0.12368251939E+03  0.61007342200E+02 -0.85220973399E+02  0.20471168924E+03  0.12500000000E+03 0.  0.
         25    1    1    2    0    0 -0.13974175941E+02 -0.11466017180E+03 -0.25123959658E+02  0.17204198889E+03  0.12500000000E+03 0.  0.
         25    1    1    2    0    0  0.13765669533E+03  0.53652829603E+02 -0.12369303178E+03  0.22968012105E+03  0.12500000000E+03 0.  0.
</event>
<event>
 5    0  0.5597833E-005  0.3726331E+03  0.7546771E-02  0.1053691E+00
         21   -1    0    0  502  501  0.00000000000E+00  0.00000000000E+00  0.11257718882E+04  0.11257718882E+04  0.00000000000E+00 0. -1.
         21   -1    0    0  501  502 -0.00000000000E+00 -0.00000000000E+00 -0.12334239839E+03  0.12334239839E+03  0.00000000000E+00 0. -1.
         25    1    1    2    0    0  0.22565011996E+03 -0.83083575390E+02  0.13798115602E+03  0.30411290100E+03  0.12500000000E+03 0.  0.
         25    1    1    2    0    0 -0.21067686355E+03  0.38046398599E+02  0.54807074356E+03  0.60153038928E+03  0.12500000000E+03 0.  0.
         25    1    1    2    0    0 -0.14973256413E+02  0.45037176792E+02  0.31637759028E+03  0.34347099635E+03  0.12500000000E+03 0.  0.
</event>
<event>
 5    0  0.5597833E-005  0.3477801E+03  0.7546771E-02  0.1063530E+00
         21   -1    0    0  502  501  0.00000000000E+00  0.00000000000E+00  0.64839987421E+03  0.64839987421E+03  0.00000000000E+00 0. -1.
         21   -1    0    0  501  502 -0.00000000000E+00 -0.00000000000E+00 -0.18653764000E+03  0.18653764000E+03  0.00000000000E+00 0. -1.
         25    1    1    2    0    0 -0.25802177015E+03 -0.55883566487E+02  0.25929882193E+03  0.39058812825E+03  0.12500000000E+03 0.  0.
         25    1    1    2    0    0  0.63666949674E+02  0.71515969145E+02  0.12177714487E+03  0.19905448333E+03  0.12500000000E+03 0.  0.
         25    1    1    2    0    0  0.19435482047E+03 -0.15632402657E+02  0.80786267419E+02  0.24529490263E+03  0.12500000000E+03 0.  0.
</event>
<event>
 5    0  0.5597833E-005  0.2621418E+03  0.7546771E-02  0.1105863E+00
         21   -1    0    0  502  501  0.00000000000E+00  0.00000000000E+00  0.40994188608E+03  0.40994188608E+03  0.00000000000E+00 0.  1.
         21   -1    0    0  501  502 -0.00000000000E+00 -0.00000000000E+00 -0.16762942205E+03  0.16762942205E+03  0.00000000000E+00 0.  1.
         25    1    1    2    0    0  0.26874759042E+02 -0.87792086991E+02  0.44391658718E+02  0.16132365783E+03  0.12500000000E+03 0.  0.
         25    1    1    2    0    0  0.30543098458E+01  0.17074299185E+03  0.95704803037E+02  0.23226473559E+03  0.12500000000E+03 0.  0.
         25    1    1    2    0    0 -0.29929068888E+02 -0.82950904860E+02  0.10221600228E+03  0.18398291471E+03  0.12500000000E+03 0.  0.
</event>
<event>
 5    0  0.5597833E-005  0.3110429E+03  0.7546771E-02  0.1079847E+00
         21   -1    0    0  502  501  0.00000000000E+00  0.00000000000E+00  0.82823931209E+03  0.82823931209E+03  0.00000000000E+00 0.  1.
         21   -1    0    0  501  502 -0.00000000000E+00 -0.00000000000E+00 -0.11681130057E+03  0.11681130057E+03  0.00000000000E+00 0.  1.
         25    1    1    2    0    0 -0.12542771212E+03 -0.77807988593E+02  0.20019180468E+03  0.27836657975E+03  0.12500000000E+03 0.  0.
         25    1    1    2    0    0  0.79890930961E+00  0.16370474786E+03  0.14744433803E+03  0.25330755130E+03  0.12500000000E+03 0.  0.
         25    1    1    2    0    0  0.12462880281E+03 -0.85896759271E+02  0.36379186881E+03  0.41337648162E+03  0.12500000000E+03 0.  0.
</event>
<event>
 5    0  0.7664368E-005  0.3125497E+03  0.7546771E-02  0.1079130E+00
         21   -1    0    0  502  501  0.00000000000E+00  0.00000000000E+00  0.64995725926E+03  0.64995725926E+03  0.00000000000E+00 0. -1.
         21   -1    0    0  501  502 -0.00000000000E+00 -0.00000000000E+00 -0.15029804422E+03  0.15029804422E+03  0.00000000000E+00 0. -1.
         25    1    1    2    0    0  0.85236923436E+02  0.15323790963E+02  0.21167430768E+03  0.26063607620E+03  0.12500000000E+03 0.  0.
         25    1    1    2    0    0 -0.18159787425E+03  0.39492389164E+01  0.30860733061E+03  0.37928468058E+03  0.12500000000E+03 0.  0.
         25    1    1    2    0    0  0.96360950814E+02 -0.19273029879E+02 -0.20622423243E+02  0.16033454669E+03  0.12500000000E+03 0.  0.
</event>
<event>
 5    0  0.5597833E-005  0.2784958E+03  0.7546771E-02  0.1096513E+00
         21   -1    0    0  502  501  0.00000000000E+00  0.00000000000E+00  0.14717465206E+03  0.14717465206E+03  0.00000000000E+00 0.  1.
         21   -1    0    0  501  502 -0.00000000000E+00 -0.00000000000E+00 -0.52699215256E+03  0.52699215256E+03  0.00000000000E+00 0.  1.
         25    1    1    2    0    0 -0.16752739246E+03 -0.33518447538E+02 -0.91373558550E+02  0.23057111864E+03  0.12500000000E+03 0.  0.
         25    1    1    2    0    0  0.48679069449E+02  0.66350019234E+02 -0.75565678418E+02  0.16765186730E+03  0.12500000000E+03 0.  0.
         25    1    1    2    0    0  0.11884832301E+03 -0.32831571696E+02 -0.21287826353E+03  0.27594381868E+03  0.12500000000E+03 0.  0.
</event>
<event>
 5    0  0.5597833E-005  0.2398286E+03  0.7546771E-02  0.1119907E+00
         21   -1    0    0  502  501  0.00000000000E+00  0.00000000000E+00  0.40305610244E+03  0.40305610244E+03  0.00000000000E+00 0.  1.
         21   -1    0    0  501  502 -0.00000000000E+00 -0.00000000000E+00 -0.14270405581E+03  0.14270405581E+03  0.00000000000E+00 0.  1.
         25    1    1    2    0    0  0.73460884946E+01 -0.10693697159E+03  0.61456520669E+02  0.17575945164E+03  0.12500000000E+03 0.  0.
         25    1    1    2    0    0 -0.20220689061E+01  0.90883478904E+02  0.27176296895E+02  0.15693134363E+03  0.12500000000E+03 0.  0.
         25    1    1    2    0    0 -0.53240195885E+01  0.16053492686E+02  0.17171922906E+03  0.21306936298E+03  0.12500000000E+03 0.  0.
</event>
<event>
 5    0  0.5597833E-005  0.2352841E+03  0.7546771E-02  0.1122975E+00
         21   -1    0    0  502  501  0.00000000000E+00  0.00000000000E+00  0.11553837865E+03  0.11553837865E+03  0.00000000000E+00 0. -1.
         21   -1    0    0  501  502 -0.00000000000E+00 -0.00000000000E+00 -0.47913628017E+03  0.47913628017E+03  0.00000000000E+00 0. -1.
         25    1    1    2    0    0  0.70081011101E+02 -0.27663339024E+02 -0.69806193227E+02  0.16178539197E+03  0.12500000000E+03 0.  0.
         25    1    1    2    0    0 -0.74703172930E+01 -0.73609420525E+02 -0.13065438716E+03  0.19537072789E+03  0.12500000000E+03 0.  0.
         25    1    1    2    0    0 -0.62610693808E+02  0.10127275955E+03 -0.16313732112E+03  0.23751853896E+03  0.12500000000E+03 0.  0.
</event>
<event>
 5    0  0.5597833E-005  0.2823074E+03  0.7546771E-02  0.1094435E+00
         21   -1    0    0  502  501  0.00000000000E+00  0.00000000000E+00  0.90767220360E+02  0.90767220360E+02  0.00000000000E+00 0.  1.
         21   -1    0    0  501  502 -0.00000000000E+00 -0.00000000000E+00 -0.87804211180E+03  0.87804211180E+03  0.00000000000E+00 0.  1.
         25    1    1    2    0    0  0.61199526521E+02 -0.30412103134E+02 -0.54863276008E+02  0.15266059452E+03  0.12500000000E+03 0.  0.
         25    1    1    2    0    0 -0.12070112035E+03  0.36829184614E+02 -0.59515265788E+03  0.62109325828E+03  0.12500000000E+03 0.  0.
         25    1    1    2    0    0  0.59501593831E+02 -0.64170814805E+01 -0.13725895755E+03  0.19505547936E+03  0.12500000000E+03 0.  0.
</event>
<event>
 5    0  0.5597833E-005  0.4003749E+03  0.7546771E-02  0.1043650E+00
         21   -1    0    0  502  501  0.00000000000E+00  0.00000000000E+00  0.26443148898E+03  0.26443148898E+03  0.00000000000E+00 0.  1.
         21   -1    0    0  501  502 -0.00000000000E+00 -0.00000000000E+00 -0.60620637692E+03  0.60620637692E+03  0.00000000000E+00 0.  1.
         25    1    1    2    0    0 -0.10162516333E+03  0.79447349928E+02  0.10178057537E+03  0.20645542075E+03  0.12500000000E+03 0.  0.
         25    1    1    2    0    0 -0.61864100758E+02 -0.21087651520E+02 -0.42692266611E+03  0.44962186207E+03  0.12500000000E+03 0.  0.
         25    1    1    2    0    0  0.16348926409E+03 -0.58359698408E+02 -0.16632797206E+02  0.21456058308E+03  0.12500000000E+03 0.  0.
</event>
<event>
 5    0  0.5597833E-005  0.2668897E+03  0.7546771E-02  0.1103073E+00
         21   -1    0    0  502  501  0.00000000000E+00  0.00000000000E+00  0.30770432983E+03  0.30770432983E+03  0.00000000000E+00 0. -1.
         21   -1    0    0  501  502 -0.00000000000E+00 -0.00000000000E+00 -0.23148888562E+03  0.23148888562E+03  0.00000000000E+00 0.  1.
         25    1    1    2    0    0  0.16757487580E+02 -0.13928118523E+03  0.30666175455E+02  0.19038244737E+03  0.12500000000E+03 0.  0.
         25    1    1    2    0    0  0.95602960366E+00 -0.28478043420E+02  0.52980839067E+02  0.13872232069E+03  0.12500000000E+03 0.  0.
         25    1    1    2    0    0 -0.17713517183E+02  0.16775922865E+03 -0.74315703192E+01  0.21008844739E+03  0.12500000000E+03 0.  0.
</event>
<event>
 5    0  0.5597833E-005  0.2862574E+03  0.7546771E-02  0.1092320E+00
         21   -1    0    0  502  501  0.00000000000E+00  0.00000000000E+00  0.57824131674E+03  0.57824131674E+03  0.00000000000E+00 0.  1.
         21   -1    0    0  501  502 -0.00000000000E+00 -0.00000000000E+00 -0.14171126876E+03  0.14171126876E+03  0.00000000000E+00 0.  1.
         25    1    1    2    0    0  0.10291801886E+02 -0.99833143365E+02  0.21736634130E+03  0.27008462384E+03  0.12500000000E+03 0.  0.
         25    1    1    2    0    0  0.62465048055E+02  0.17917844567E+03  0.11387180846E+03  0.25416251962E+03  0.12500000000E+03 0.  0.
         25    1    1    2    0    0 -0.72756849941E+02 -0.79345302303E+02  0.10529189822E+03  0.19570544203E+03  0.12500000000E+03 0.  0.
</event>
<event>
 5    0  0.5597833E-005  0.2480581E+03  0.7546771E-02  0.1114538E+00
         21   -1    0    0  502  501  0.00000000000E+00  0.00000000000E+00  0.93129344054E+02  0.93129344054E+02  0.00000000000E+00 0. -1.
         21   -1    0    0  501  502 -0.00000000000E+00 -0.00000000000E+00 -0.66072430392E+03  0.66072430392E+03  0.00000000000E+00 0. -1.
         25    1    1    2    0    0 -0.92236249233E+02 -0.30557921336E+02 -0.17536004229E+03  0.23625718330E+03  0.12500000000E+03 0.  0.
         25    1    1    2    0    0  0.10875835729E+03 -0.36238973361E+02 -0.11236478351E+03  0.20345143903E+03  0.12500000000E+03 0.  0.
         25    1    1    2    0    0 -0.16522108054E+02  0.66796894697E+02 -0.27987013406E+03  0.31414502564E+03  0.12500000000E+03 0.  0.
</event>
<event>
 5    0  0.5597833E-005  0.2675979E+03  0.7546771E-02  0.1102662E+00
         21   -1    0    0  502  501  0.00000000000E+00  0.00000000000E+00  0.28468668612E+02  0.28468668612E+02  0.00000000000E+00 0.  1.
         21   -1    0    0  501  502 -0.00000000000E+00 -0.00000000000E+00 -0.25153481521E+04  0.25153481521E+04  0.00000000000E+00 0.  1.
         25    1    1    2    0    0  0.12104659570E+02  0.99512606164E+02 -0.44921212148E+03  0.47693376023E+03  0.12500000000E+03 0.  0.
         25    1    1    2    0    0 -0.27808197201E+02  0.31203044047E+02 -0.45103869307E+03  0.46990193491E+03  0.12500000000E+03 0.  0.
         25    1    1    2    0    0  0.15703537631E+02 -0.13071565021E+03 -0.15866286689E+04  0.15969811256E+04  0.12500000000E+03 0.  0.
</event>
<event>
 5    0  0.5597833E-005  0.4514890E+03  0.7546771E-02  0.1027279E+00
         21   -1    0    0  502  501  0.00000000000E+00  0.00000000000E+00  0.35454547207E+03  0.35454547207E+03  0.00000000000E+00 0.  1.
         21   -1    0    0  501  502 -0.00000000000E+00 -0.00000000000E+00 -0.57493989509E+03  0.57493989509E+03  0.00000000000E+00 0.  1.
         25    1    1    2    0    0  0.20643299662E+03  0.27397670852E+03 -0.31950791766E+02  0.36650193997E+03  0.12500000000E+03 0.  0.
         25    1    1    2    0    0 -0.12083531825E+03 -0.31127942485E+03 -0.61422576895E+02  0.36179246458E+03  0.12500000000E+03 0.  0.
         25    1    1    2    0    0 -0.85597678369E+02  0.37302716326E+02 -0.12702105436E+03  0.20119096262E+03  0.12500000000E+03 0.  0.
</event>
<event>
 5    0  0.5597833E-005  0.2807542E+03  0.7546771E-02  0.1095278E+00
         21   -1    0    0  502  501  0.00000000000E+00  0.00000000000E+00  0.11638112225E+03  0.11638112225E+03  0.00000000000E+00 0. -1.
         21   -1    0    0  501  502 -0.00000000000E+00 -0.00000000000E+00 -0.67728254479E+03  0.67728254479E+03  0.00000000000E+00 0. -1.
         25    1    1    2    0    0  0.25991711948E+02  0.23992121209E+02 -0.26189855435E+03  0.29234747090E+03  0.12500000000E+03 0.  0.
         25    1    1    2    0    0  0.74487825087E+02 -0.67185526729E+02 -0.11419962322E+01  0.16027674580E+03  0.12500000000E+03 0.  0.
         25    1    1    2    0    0 -0.10047953704E+03  0.43193405520E+02 -0.29786087196E+03  0.34103945034E+03  0.12500000000E+03 0.  0.
</event>
<event>
 5    0  0.5597833E-005  0.3079790E+03  0.7546771E-02  0.1081319E+00
         21   -1    0    0  502  501  0.00000000000E+00  0.00000000000E+00  0.99334043132E+02  0.99334043132E+02  0.00000000000E+00 0. -1.
         21   -1    0    0  501  502 -0.00000000000E+00 -0.00000000000E+00 -0.95486950972E+03  0.95486950972E+03  0.00000000000E+00 0. -1.
         25    1    1    2    0    0 -0.12550236807E+03 -0.11564579425E+03 -0.21165141495E+03  0.29924256978E+03  0.12500000000E+03 0.  0.
         25    1    1    2    0    0  0.69125485812E+02  0.11349269786E+03 -0.57144882117E+03  0.59986471848E+03  0.12500000000E+03 0.  0.
         25    1    1    2    0    0  0.56376882260E+02  0.21530963933E+01 -0.72435230469E+02  0.15509626459E+03  0.12500000000E+03 0.  0.
</event>
<event>
 5    0  0.5597833E-005  0.3705614E+03  0.7546771E-02  0.1054479E+00
         21   -1    0    0  502  501  0.00000000000E+00  0.00000000000E+00  0.84130402862E+03  0.84130402862E+03  0.00000000000E+00 0.  1.
         21   -1    0    0  501  502 -0.00000000000E+00 -0.00000000000E+00 -0.16321774112E+03  0.16321774112E+03  0.00000000000E+00 0.  1.
         25    1    1    2    0    0 -0.50493941795E+02  0.76894599864E+02  0.32909971788E+03  0.36385992079E+03  0.12500000000E+03 0.  0.
         25    1    1    2    0    0  0.74160287514E+02 -0.62908380224E+02  0.45035737568E+03  0.47739289728E+03  0.12500000000E+03 0.  0.
         25    1    1    2    0    0 -0.23666345719E+02 -0.13986219640E+02 -0.10137080605E+03  0.16326895167E+03  0.12500000000E+03 0.  0.
</event>
<event>
 5    0  0.5597833E-005  0.3790528E+03  0.7546771E-02  0.1051284E+00
         21   -1    0    0  502  501  0.00000000000E+00  0.00000000000E+00  0.25618086515E+03  0.25618086515E+03  0.00000000000E+00 0. -1.
         21   -1    0    0  501  502 -0.00000000000E+00 -0.00000000000E+00 -0.56085765321E+03  0.56085765321E+03  0.00000000000E+00 0. -1.
         25    1    1    2    0    0 -0.14184540557E+03  0.92513817883E+02 -0.13846878515E+03  0.25194747476E+03  0.12500000000E+03 0.  0.
         25    1    1    2    0    0  0.89147571942E+02 -0.85531165361E+02  0.14350813389E+03  0.22689745332E+03  0.12500000000E+03 0.  0.
         25    1    1    2    0    0  0.52697833624E+02 -0.69826525215E+01 -0.30971613681E+03  0.33819359028E+03  0.12500000000E+03 0.  0.
</event>
<event>
 5    0  0.5597833E-005  0.2907778E+03  0.7546771E-02  0.1089944E+00
         21   -1    0    0  502  501  0.00000000000E+00  0.00000000000E+00  0.33547825877E+03  0.33547825877E+03  0.00000000000E+00 0.  1.
         21   -1    0    0  501  502 -0.00000000000E+00 -0.00000000000E+00 -0.25203337401E+03  0.25203337401E+03  0.00000000000E+00 0.  1.
         25    1    1    2    0    0  0.16326769222E+03 -0.68242416701E+02  0.95441461096E+02  0.23674340383E+03  0.12500000000E+03 0.  0.
         25    1    1    2    0    0 -0.14860763781E+03  0.19621868055E+02  0.51197161885E+02  0.20178056672E+03  0.12500000000E+03 0.  0.
         25    1    1    2    0    0 -0.14660054402E+02  0.48620548646E+02 -0.63193738219E+02  0.14898766223E+03  0.12500000000E+03 0.  0.
</event>
<event>
 5    0  0.5597833E-005  0.2834373E+03  0.7546771E-02  0.1093826E+00
         21   -1    0    0  502  501  0.00000000000E+00  0.00000000000E+00  0.12046647331E+04  0.12046647331E+04  0.00000000000E+00 0. -1.
         21   -1    0    0  501  502 -0.00000000000E+00 -0.00000000000E+00 -0.66687994543E+02  0.66687994543E+02  0.00000000000E+00 0. -1.
         25    1    1    2    0    0  0.14408925813E+03 -0.12020883145E+03  0.36006976781E+03  0.42483775157E+03  0.12500000000E+03 0.  0.
         25    1    1    2    0    0 -0.95273166717E+01  0.28834580736E+02  0.30802741020E+03  0.33380846042E+03  0.12500000000E+03 0.  0.
         25    1    1    2    0    0 -0.13456194146E+03  0.91374250713E+02  0.46987956055E+03  0.51270651566E+03  0.12500000000E+03 0.  0.
</event>
<event>
 5    0  0.5597833E-005  0.2713513E+03  0.7546771E-02  0.1100509E+00
         21   -1    0    0  502  501  0.00000000000E+00  0.00000000000E+00  0.45162164832E+02  0.45162164832E+02  0.00000000000E+00 0.  1.
         21   -1    0    0  501  502 -0.00000000000E+00 -0.00000000000E+00 -0.16303810037E+04  0.16303810037E+04  0.00000000000E+00 0.  1.
         25    1    1    2    0    0  0.35262397518E-02 -0.10947137082E+03 -0.80127094516E+03  0.81831785303E+03  0.12500000000E+03 0.  0.
         25    1    1    2    0    0 -0.32367377486E+02  0.23564531963E+00 -0.13585782742E+03  0.18743012545E+03  0.12500000000E+03 0.  0.
         25    1    1    2    0    0  0.32363851246E+02  0.10923572550E+03 -0.64809006629E+03  0.66979519005E+03  0.12500000000E+03 0.  0.
</event>
<event>
 5    0  0.5597833E-005  0.6392385E+03  0.7546771E-02  0.9827185E-01
         21   -1    0    0  502  501  0.00000000000E+00  0.00000000000E+00  0.19406008540E+04  0.19406008540E+04  0.00000000000E+00 0. -1.
         21   -1    0    0  501  502 -0.00000000000E+00 -0.00000000000E+00 -0.21056668813E+03  0.21056668813E+03  0.00000000000E+00 0. -1.
         25    1    1    2    0    0 -0.14120378721E+02 -0.29740543977E+03  0.92118314528E+03  0.97614177651E+03  0.12500000000E+03 0.  0.
         25    1    1    2    0    0 -0.31846555823E+03 -0.28622085657E+02  0.48477086097E+03  0.59402636576E+03  0.12500000000E+03 0.  0.
         25    1    1    2    0    0  0.33258593696E+03  0.32602752543E+03  0.32408015965E+03  0.58099939990E+03  0.12500000000E+03 0.  0.
</event>
<event>
 5    0  0.5597833E-005  0.4060393E+03  0.7546771E-02  0.1041708E+00
         21   -1    0    0  502  501  0.00000000000E+00  0.00000000000E+00  0.55453783385E+03  0.55453783385E+03  0.00000000000E+00 0. -1.
         21   -1    0    0  501  502 -0.00000000000E+00 -0.00000000000E+00 -0.29730693167E+03  0.29730693167E+03  0.00000000000E+00 0. -1.
         25    1    1    2    0    0  0.77172532401E+02 -0.25752554420E+03  0.63204276808E+02  0.30314152846E+03  0.12500000000E+03 0.  0.
         25    1    1    2    0    0 -0.82582575554E+02  0.24527003576E+03 -0.32897416044E+02  0.28928275478E+03  0.12500000000E+03 0.  0.
         25    1    1    2    0    0  0.54100431526E+01  0.12255508434E+02  0.22692404142E+03  0.25942048228E+03  0.12500000000E+03 0.  0.
</event>
<event>
 5    0  0.5597833E-005  0.2498910E+03  0.7546771E-02  0.1113374E+00
         21   -1    0    0  502  501  0.00000000000E+00  0.00000000000E+00  0.43239883257E+03  0.43239883257E+03  0.00000000000E+00 0.  1.
         21   -1    0    0  501  502 -0.00000000000E+00 -0.00000000000E+00 -0.14441641898E+03  0.14441641898E+03  0.00000000000E+00 0.  1.
         25    1    1    2    0    0 -0.10269398186E+03 -0.85454485495E+02  0.67562431294E+02  0.19503385635E+03  0.12500000000E+03 0.  0.
         25    1    1    2    0    0  0.37770220081E+02  0.58049315580E+02  0.34649905015E+02  0.14704396785E+03  0.12500000000E+03 0.  0.
         25    1    1    2    0    0  0.64923761783E+02  0.27405169915E+02  0.18577007728E+03  0.23473742734E+03  0.12500000000E+03 0.  0.
</event>
<event>
 5    0  0.5597833E-005  0.3191793E+03  0.7546771E-02  0.1076028E+00
         21   -1    0    0  502  501  0.00000000000E+00  0.00000000000E+00  0.51499079215E+02  0.51499079215E+02  0.00000000000E+00 0. -1.
         21   -1    0    0  501  502 -0.00000000000E+00 -0.00000000000E+00 -0.19781986355E+04  0.19781986355E+04  0.00000000000E+00 0. -1.
         25    1    1    2    0    0 -0.10455829886E+03  0.69990572256E+02 -0.22869170928E+03  0.28940631637E+03  0.12500000000E+03 0.  0.
         25    1    1    2    0    0  0.10736797554E+03 -0.76103899836E+01 -0.14158889244E+04  0.14254656244E+04  0.12500000000E+03 0.  0.
         25    1    1    2    0    0 -0.28096766756E+01 -0.62380182272E+02 -0.28211892264E+03  0.31482577394E+03  0.12500000000E+03 0.  0.
</event>
<event>
 5    0  0.5597833E-005  0.2734442E+03  0.7546771E-02  0.1099324E+00
         21   -1    0    0  502  501  0.00000000000E+00  0.00000000000E+00  0.12243621576E+04  0.12243621576E+04  0.00000000000E+00 0.  1.
         21   -1    0    0  501  502 -0.00000000000E+00 -0.00000000000E+00 -0.61069936886E+02  0.61069936886E+02  0.00000000000E+00 0.  1.
         25    1    1    2    0    0 -0.29482793436E+02  0.81155025843E+00  0.25201836319E+03  0.28285711783E+03  0.12500000000E+03 0.  0.
         25    1    1    2    0    0  0.99290934936E+01 -0.15818942641E+03  0.58523086066E+03  0.61906594301E+03  0.12500000000E+03 0.  0.
         25    1    1    2    0    0  0.19553699943E+02  0.15737787616E+03  0.32604299688E+03  0.38350903366E+03  0.12500000000E+03 0.  0.
</event>
<event>
 5    0  0.5597833E-005  0.4305714E+03  0.7546771E-02  0.1033680E+00
         21   -1    0    0  502  501  0.00000000000E+00  0.00000000000E+00  0.14152278338E+03  0.14152278338E+03  0.00000000000E+00 0.  1.
         21   -1    0    0  501  502 -0.00000000000E+00 -0.00000000000E+00 -0.13099777631E+04  0.13099777631E+04  0.00000000000E+00 0.  1.
         25    1    1    2    0    0  0.12868435770E+03  0.87664678416E+01 -0.21605785410E+03  0.28096709984E+03  0.12500000000E+03 0.  0.
         25    1    1    2    0    0 -0.23208102176E+03  0.11676256686E+03 -0.91843481532E+03  0.96262277538E+03  0.12500000000E+03 0.  0.
         25    1    1    2    0    0  0.10339666407E+03 -0.12552903470E+03 -0.33962310264E+02  0.20791067123E+03  0.12500000000E+03 0.  0.
</event>
<event>
 5    0  0.5597833E-005  0.2341139E+03  0.7546771E-02  0.1123777E+00
         21   -1    0    0  502  501  0.00000000000E+00  0.00000000000E+00  0.34992366341E+02  0.34992366341E+02  0.00000000000E+00 0.  1.
         21   -1    0    0  501  502 -0.00000000000E+00 -0.00000000000E+00 -0.15663220883E+04  0.15663220883E+04  0.00000000000E+00 0.  1.
         25    1    1    2    0    0 -0.74600507860E+02 -0.42300981561E+02 -0.86093211571E+03  0.87417602157E+03  0.12500000000E+03 0.  0.
         25    1    1    2    0    0  0.78876456190E+02  0.50386737683E+02 -0.38177454635E+03  0.41247681501E+03  0.12500000000E+03 0.  0.
         25    1    1    2    0    0 -0.42759483296E+01 -0.80857561221E+01 -0.28862305994E+03  0.31466161811E+03  0.12500000000E+03 0.  0.
</event>
<event>
 5    0  0.5597833E-005  0.3889989E+03  0.7546771E-02  0.1047657E+00
         21   -1    0    0  502  501  0.00000000000E+00  0.00000000000E+00  0.76113646724E+02  0.76113646724E+02  0.00000000000E+00 0. -1.
         21   -1    0    0  501  502 -0.00000000000E+00 -0.00000000000E+00 -0.19880813383E+04  0.19880813383E+04  0.00000000000E+00 0. -1.
         25    1    1    2    0    0 -0.22358137297E+02 -0.80944031581E+02 -0.30192875548E+03  0.33739857134E+03  0.12500000000E+03 0.  0.
         25    1    1    2    0    0 -0.16514313935E+03  0.24460028757E+03 -0.10991467841E+04  0.11449236700E+04  0.12500000000E+03 0.  0.
         25    1    1    2    0    0  0.18750127664E+03 -0.16365625599E+03 -0.51089215202E+03  0.58187274370E+03  0.12500000000E+03 0.  0.
</event>
<event>
 5    0  0.5597833E-005  0.2216522E+03  0.7546771E-02  0.1132657E+00
         21   -1    0    0  502  501  0.00000000000E+00  0.00000000000E+00  0.49674837184E+03  0.49674837184E+03  0.00000000000E+00 0.  1.
         21   -1    0    0  501  502 -0.00000000000E+00 -0.00000000000E+00 -0.98902559269E+02  0.98902559269E+02  0.00000000000E+00 0.  1.
         25    1    1    2    0    0 -0.31250215953E+01 -0.21224219359E+02  0.65947724168E+02  0.14294871657E+03  0.12500000000E+03 0.  0.
         25    1    1    2    0    0  0.50868515963E+01 -0.72044724916E+02  0.20956134115E+03  0.25447450590E+03  0.12500000000E+03 0.  0.
         25    1    1    2    0    0 -0.19618300010E+01  0.93268944275E+02  0.12233674726E+03  0.19822770864E+03  0.12500000000E+03 0.  0.
</event>
<event>
 5    0  0.5597833E-005  0.3630433E+03  0.7546771E-02  0.1057385E+00
         21   -1    0    0  502  501  0.00000000000E+00  0.00000000000E+00  0.60870840687E+03  0.60870840687E+03  0.00000000000E+00 0.  1.
         21   -1    0    0  501  502 -0.00000000000E+00 -0.00000000000E+00 -0.21652476213E+03  0.21652476213E+03  0.00000000000E+00 0.  1.
         25    1    1    2    0    0 -0.83931904586E+02  0.95504306642E+02  0.78089849168E+02  0.19465010079E+03  0.12500000000E+03 0.  0.
         25    1    1    2    0    0  0.39845370192E+02 -0.14338019266E+03 -0.81419484263E+02  0.21071228154E+03  0.12500000000E+03 0.  0.
         25    1    1    2    0    0  0.44086534393E+02  0.47875886019E+02  0.39551327984E+03  0.41987078668E+03  0.12500000000E+03 0.  0.
</event>
<event>
 5    0  0.5597833E-005  0.2467885E+03  0.7546771E-02  0.1115351E+00
         21   -1    0    0  502  501  0.00000000000E+00  0.00000000000E+00  0.16814761566E+04  0.16814761566E+04  0.00000000000E+00 0. -1.
         21   -1    0    0  501  502 -0.00000000000E+00 -0.00000000000E+00 -0.36220887399E+02  0.36220887399E+02  0.00000000000E+00 0. -1.
         25    1    1    2    0    0  0.11997198257E+03  0.35304849241E+02  0.51983907625E+03  0.54908776546E+03  0.12500000000E+03 0.  0.
         25    1    1    2    0    0 -0.41384884864E+02  0.35716253008E+02  0.34130426891E+03  0.36756218984E+03  0.12500000000E+03 0.  0.
         25    1    1    2    0    0 -0.78587097701E+02 -0.71021102249E+02  0.78411192406E+03  0.80104708872E+03  0.12500000000E+03 0.  0.
</event>
<event>
 5    0  0.5597833E-005  0.4714510E+03  0.7546771E-02  0.1021511E+00
         21   -1    0    0  502  501  0.00000000000E+00  0.00000000000E+00  0.15868505832E+04  0.15868505832E+04  0.00000000000E+00 0. -1.
         21   -1    0    0  501  502 -0.00000000000E+00 -0.00000000000E+00 -0.14006741897E+03  0.14006741897E+03  0.00000000000E+00 0. -1.
         25    1    1    2    0    0  0.13537591174E+02 -0.12675913019E+03  0.73573243353E+03  0.75708543587E+03  0.12500000000E+03 0.  0.
         25    1    1    2    0    0  0.19068305416E+03  0.28133581489E+03  0.48928793524E+03  0.60871795723E+03  0.12500000000E+03 0.  0.
         25    1    1    2    0    0 -0.20422064533E+03 -0.15457668470E+03  0.22176279545E+03  0.36111460907E+03  0.12500000000E+03 0.  0.
</event>
<event>
 5    0  0.5597833E-005  0.4109278E+03  0.7546771E-02  0.1040060E+00
         21   -1    0    0  502  501  0.00000000000E+00  0.00000000000E+00  0.12219427059E+04  0.12219427059E+04  0.00000000000E+00 0. -1.
         21   -1    0    0  501  502 -0.00000000000E+00 -0.00000000000E+00 -0.13819114164E+03  0.13819114164E+03  0.00000000000E+00 0. -1.
         25    1    1    2    0    0  0.14855231623E+03  0.37235299867E+02  0.86899416119E+03  0.89119588778E+03  0.12500000000E+03 0.  0.
         25    1    1    2    0    0  0.47167404056E+02 -0.10948395273E+03  0.10468790681E+03  0.20198033999E+03  0.12500000000E+03 0.  0.
         25    1    1    2    0    0 -0.19571972029E+03  0.72248652862E+02  0.11006949628E+03  0.26695761978E+03  0.12500000000E+03 0.  0.
</event>
<event>
 5    0  0.5597833E-005  0.3971152E+03  0.7546771E-02  0.1044783E+00
         21   -1    0    0  502  501  0.00000000000E+00  0.00000000000E+00  0.64292825307E+03  0.64292825307E+03  0.00000000000E+00 0.  1.
         21   -1    0    0  501  502 -0.00000000000E+00 -0.00000000000E+00 -0.24528469230E+03  0.24528469230E+03  0.00000000000E+00 0.  1.
         25    1    1    2    0    0  0.14417069791E+03 -0.30912351737E+03  0.15222168898E+03  0.39387686112E+03  0.12500000000E+03 0.  0.
         25    1    1    2    0    0 -0.87684477942E+02  0.18793166068E+03  0.10639111207E+03  0.26448241054E+03  0.12500000000E+03 0.  0.
         25    1    1    2    0    0 -0.56486219966E+02  0.12119185670E+03  0.13903075972E+03  0.22985367372E+03  0.12500000000E+03 0.  0.
</event>
<event>
 5    0  0.5597833E-005  0.3107669E+03  0.7546771E-02  0.1079979E+00
         21   -1    0    0  502  501  0.00000000000E+00  0.00000000000E+00  0.18820408116E+03  0.18820408116E+03  0.00000000000E+00 0. -1.
         21   -1    0    0  501  502 -0.00000000000E+00 -0.00000000000E+00 -0.51314558887E+03  0.51314558887E+03  0.00000000000E+00 0. -1.
         25    1    1    2    0    0 -0.75629440938E+02  0.12367697709E+03 -0.17530694612E+03  0.25956373467E+03  0.12500000000E+03 0.  0.
         25    1    1    2    0    0  0.63310662446E+01  0.91996762017E+02 -0.37480630500E+02  0.15979137738E+03  0.12500000000E+03 0.  0.
         25    1    1    2    0    0  0.69298374694E+02 -0.21567373911E+03 -0.11215393108E+03  0.28199455798E+03  0.12500000000E+03 0.  0.
</event>
<event>
 5    0  0.5597833E-005  0.4130346E+03  0.7546771E-02  0.1039357E+00
         21   -1    0    0  502  501  0.00000000000E+00  0.00000000000E+00  0.14191310964E+03  0.14191310964E+03  0.00000000000E+00 0.  1.
         21   -1    0    0  501  502 -0.00000000000E+00 -0.00000000000E+00 -0.12021269403E+04  0.12021269403E+04  0.00000000000E+00 0.  1.
         25    1    1    2    0    0  0.63008067499E+02 -0.36148137579E+02 -0.21337300317E+03  0.25773968050E+03  0.12500000000E+03 0.  0.
         25    1    1    2    0    0  0.71654806674E+02  0.17885847736E+03 -0.23675479764E+02  0.23089022193E+03  0.12500000000E+03 0.  0.
         25    1    1    2    0    0 -0.13466287417E+03 -0.14271033978E+03 -0.82316534772E+03  0.85541014750E+03  0.12500000000E+03 0.  0.
</event>
<event>
 5    0  0.5623381E-005  0.3595197E+03  0.7546771E-02  0.1058774E+00
         21   -1    0    0  502  501  0.00000000000E+00  0.00000000000E+00  0.36775734200E+03  0.36775734200E+03  0.00000000000E+00 0.  1.
         21   -1    0    0  501  502 -0.00000000000E+00 -0.00000000000E+00 -0.35146653113E+03  0.35146653113E+03  0.00000000000E+00 0.  1.
         25    1    1    2    0    0  0.14948185410E+03 -0.13270082991E+03 -0.97875786136E+02  0.25526261864E+03  0.12500000000E+03 0.  0.
         25    1    1    2    0    0 -0.15850384414E+03  0.14775297901E+03 -0.51782184265E+02  0.25546194632E+03  0.12500000000E+03 0.  0.
         25    1    1    2    0    0  0.90219900413E+01 -0.15052149098E+02  0.16594878127E+03  0.20849930816E+03  0.12500000000E+03 0.  0.
</event>
<event>
 5    0  0.5597833E-005  0.5061933E+03  0.7546771E-02  0.1012175E+00
         21   -1    0    0  502  501  0.00000000000E+00  0.00000000000E+00  0.10296028940E+04  0.10296028940E+04  0.00000000000E+00 0. -1.
         21   -1    0    0  501  502 -0.00000000000E+00 -0.00000000000E+00 -0.24886456889E+03  0.24886456889E+03  0.00000000000E+00 0. -1.
         25    1    1    2    0    0  0.32756380705E+03  0.30350024220E+03  0.41434555121E+03  0.62186628829E+03  0.12500000000E+03 0.  0.
         25    1    1    2    0    0 -0.36137367421E+02 -0.11763737231E+03  0.93202366666E+02  0.19863570133E+03  0.12500000000E+03 0.  0.
         25    1    1    2    0    0 -0.29142643963E+03 -0.18586286989E+03  0.27319040726E+03  0.45796547330E+03  0.12500000000E+03 0.  0.
</event>
<event>
 5    0  0.5597833E-005  0.3802109E+03  0.7546771E-02  0.1050856E+00
         21   -1    0    0  502  501  0.00000000000E+00  0.00000000000E+00  0.30307333613E+03  0.30307333613E+03  0.00000000000E+00 0. -1.
         21   -1    0    0  501  502 -0.00000000000E+00 -0.00000000000E+00 -0.47698123904E+03  0.47698123904E+03  0.00000000000E+00 0. -1.
         25    1    1    2    0    0 -0.10809902890E+03  0.38359774512E+02  0.99551760931E+02  0.19670390300E+03  0.12500000000E+03 0.  0.
         25    1    1    2    0    0 -0.67266446605E+02 -0.51084169228E+02  0.78859586480E+02  0.17022984922E+03  0.12500000000E+03 0.  0.
         25    1    1    2    0    0  0.17536547551E+03  0.12724394716E+02 -0.35231925032E+03  0.41312082296E+03  0.12500000000E+03 0.  0.
</event>
<event>
 5    0  0.5597833E-005  0.2905236E+03  0.7546771E-02  0.1090076E+00
         21   -1    0    0  502  501  0.00000000000E+00  0.00000000000E+00  0.70874389171E+03  0.70874389171E+03  0.00000000000E+00 0.  1.
         21   -1    0    0  501  502 -0.00000000000E+00 -0.00000000000E+00 -0.11908953091E+03  0.11908953091E+03  0.00000000000E+00 0.  1.
         25    1    1    2    0    0 -0.71857831607E+01 -0.11533574139E+03  0.91795731223E+02  0.19340482153E+03  0.12500000000E+03 0.  0.
         25    1    1    2    0    0  0.53319061018E+01 -0.72932467117E+02  0.30379044691E+03  0.33654302788E+03  0.12500000000E+03 0.  0.
         25    1    1    2    0    0  0.18538770589E+01  0.18826820851E+03  0.19406818266E+03  0.29788557319E+03  0.12500000000E+03 0.  0.
</event>
<event>
 5    0  0.5597833E-005  0.3782990E+03  0.7546771E-02  0.1051564E+00
         21   -1    0    0  502  501  0.00000000000E+00  0.00000000000E+00  0.23322844108E+03  0.23322844108E+03  0.00000000000E+00 0.  1.
         21   -1    0    0  501  502 -0.00000000000E+00 -0.00000000000E+00 -0.61360490959E+03  0.61360490959E+03  0.00000000000E+00 0.  1.
         25    1    1    2    0    0  0.12113415195E+03 -0.59481407172E+02 -0.22237356123E+03  0.28859404239E+03  0.12500000000E+03 0.  0.
         25    1    1    2    0    0 -0.48314947655E+02 -0.17432298360E+03 -0.17753431361E+03  0.28260620887E+03  0.12500000000E+03 0.  0.
         25    1    1    2    0    0 -0.72819204298E+02  0.23380439078E+03  0.19531406330E+02  0.27563309942E+03  0.12500000000E+03 0.  0.
</event>
<event>
 5    0  0.5597833E-005  0.2554645E+03  0.7546771E-02  0.1109899E+00
         21   -1    0    0  502  501  0.00000000000E+00  0.00000000000E+00  0.62813423688E+03  0.62813423688E+03  0.00000000000E+00 0.  1.
         21   -1    0    0  501  502 -0.00000000000E+00 -0.00000000000E+00 -0.10389835074E+03  0.10389835074E+03  0.00000000000E+00 0.  1.
         25    1    1    2    0    0 -0.11639406030E+03 -0.43338361019E+02  0.28599474968E+03  0.33592229407E+03  0.12500000000E+03 0.  0.
         25    1    1    2    0    0  0.39436949482E+02 -0.56229863023E+01  0.19573930921E+03  0.23563906325E+03  0.12500000000E+03 0.  0.
         25    1    1    2    0    0  0.76957110817E+02  0.48961347322E+02  0.42501827248E+02  0.16047123031E+03  0.12500000000E+03 0.  0.
</event>
<event>
 5    0  0.5597833E-005  0.3358493E+03  0.7546771E-02  0.1068578E+00
         21   -1    0    0  502  501  0.00000000000E+00  0.00000000000E+00  0.40460480994E+03  0.40460480994E+03  0.00000000000E+00 0.  1.
         21   -1    0    0  501  502 -0.00000000000E+00 -0.00000000000E+00 -0.27877766516E+03  0.27877766516E+03  0.00000000000E+00 0.  1.
         25    1    1    2    0    0 -0.15933762052E+03  0.16762007198E+03 -0.53074204266E+02  0.26819179145E+03  0.12500000000E+03 0.  0.
         25    1    1    2    0    0  0.15136624959E+03 -0.13586873226E+03  0.15254517070E+03  0.28331445961E+03  0.12500000000E+03 0.  0.
         25    1    1    2    0    0  0.79713709307E+01 -0.31751339719E+02  0.26356178355E+02  0.13187622404E+03  0.12500000000E+03 0.  0.
</event>
<event>
 5    0  0.5597833E-005  0.2971518E+03  0.7546771E-02  0.1086673E+00
         21   -1    0    0  502  501  0.00000000000E+00  0.00000000000E+00  0.47557627877E+03  0.47557627877E+03  0.00000000000E+00 0.  1.
         21   -1    0    0  501  502 -0.00000000000E+00 -0.00000000000E+00 -0.18566776872E+03  0.18566776872E+03  0.00000000000E+00 0.  1.
         25    1    1    2    0    0  0.11600021396E+03  0.34556536626E+02  0.18683236054E+03  0.25530674650E+03  0.12500000000E+03 0.  0.
         25    1    1    2    0    0 -0.15896825503E+03  0.58764763987E+02 -0.62110995525E+01  0.21068407949E+03  0.12500000000E+03 0.  0.
         25    1    1    2    0    0  0.42968041062E+02 -0.93321300614E+02  0.10928724906E+03  0.19525322150E+03  0.12500000000E+03 0.  0.
</event>
<event>
 5    0  0.5597833E-005  0.2827852E+03  0.7546771E-02  0.1094177E+00
         21   -1    0    0  502  501  0.00000000000E+00  0.00000000000E+00  0.23438610755E+03  0.23438610755E+03  0.00000000000E+00 0. -1.
         21   -1    0    0  501  502 -0.00000000000E+00 -0.00000000000E+00 -0.34117845212E+03  0.34117845212E+03  0.00000000000E+00 0. -1.
         25    1    1    2    0    0 -0.13031388480E+03 -0.81500314659E+02  0.24150244579E+02  0.19958016979E+03  0.12500000000E+03 0.  0.
         25    1    1    2    0    0 -0.14865977611E+02 -0.19021458863E+02 -0.89795934130E+01  0.12762619749E+03  0.12500000000E+03 0.  0.
         25    1    1    2    0    0  0.14517986241E+03  0.10052177352E+03 -0.12196299574E+03  0.24835819240E+03  0.12500000000E+03 0.  0.
</event>
<event>
 5    0  0.5597833E-005  0.4351740E+03  0.7546771E-02  0.1032238E+00
         21   -1    0    0  502  501  0.00000000000E+00  0.00000000000E+00  0.14762090209E+03  0.14762090209E+03  0.00000000000E+00 0. -1.
         21   -1    0    0  501  502 -0.00000000000E+00 -0.00000000000E+00 -0.12828564314E+04  0.12828564314E+04  0.00000000000E+00 0. -1.
         25    1    1    2    0    0 -0.65609206747E+02 -0.16342339304E+03 -0.57301062671E+03  0.61235443309E+03  0.12500000000E+03 0.  0.
         25    1    1    2    0    0 -0.69642886909E+02  0.23405657915E+03 -0.63183093629E+02  0.28151326303E+03  0.12500000000E+03 0.  0.
         25    1    1    2    0    0  0.13525209366E+03 -0.70633186112E+02 -0.49904180899E+03  0.53660963739E+03  0.12500000000E+03 0.  0.
</event>
<event>
 5    0  0.5597833E-005  0.2540572E+03  0.7546771E-02  0.1110767E+00
         21   -1    0    0  502  501  0.00000000000E+00  0.00000000000E+00  0.14478794285E+03  0.14478794285E+03  0.00000000000E+00 0.  1.
         21   -1    0    0  501  502 -0.00000000000E+00 -0.00000000000E+00 -0.44579034515E+03  0.44579034515E+03  0.00000000000E+00 0.  1.
         25    1    1    2    0    0 -0.74359552743E+02 -0.11757986029E+03 -0.13938682359E+03  0.23325533910E+03  0.12500000000E+03 0.  0.
         25    1    1    2    0    0  0.50609022189E+02  0.81003691209E+02 -0.12339321126E+02  0.15779775018E+03  0.12500000000E+03 0.  0.
         25    1    1    2    0    0  0.23750530554E+02  0.36576169082E+02 -0.14927625758E+03  0.19952519872E+03  0.12500000000E+03 0.  0.
</event>
<event>
 5    0  0.5597833E-005  0.3987516E+03  0.7546771E-02  0.1044213E+00
         21   -1    0    0  502  501  0.00000000000E+00  0.00000000000E+00  0.10542960183E+04  0.10542960183E+04  0.00000000000E+00 0.  1.
         21   -1    0    0  501  502 -0.00000000000E+00 -0.00000000000E+00 -0.15081425751E+03  0.15081425751E+03  0.00000000000E+00 0.  1.
         25    1    1    2    0    0 -0.75667034533E+02 -0.96861947140E+02  0.23540323919E+02  0.17688098758E+03  0.12500000000E+03 0.  0.
         25    1    1    2    0    0  0.46108545398E+02  0.43185688104E+01 -0.86802187933E+00  0.13330566926E+03  0.12500000000E+03 0.  0.
         25    1    1    2    0    0  0.29558489135E+02  0.92543378329E+02  0.88080945872E+03  0.89492361894E+03  0.12500000000E+03 0.  0.
</event>
<event>
 5    0  0.5597833E-005  0.2514112E+03  0.7546771E-02  0.1112416E+00
         21   -1    0    0  502  501  0.00000000000E+00  0.00000000000E+00  0.17304713420E+03  0.17304713420E+03  0.00000000000E+00 0. -1.
         21   -1    0    0  501  502 -0.00000000000E+00 -0.00000000000E+00 -0.36526225764E+03  0.36526225764E+03  0.00000000000E+00 0. -1.
         25    1    1    2    0    0 -0.13689497027E+03  0.11768118116E+02 -0.95383117407E+02  0.20881010650E+03  0.12500000000E+03 0.  0.
         25    1    1    2    0    0  0.49452108590E+02 -0.34496420611E+01 -0.11329949576E+03  0.17583852483E+03  0.12500000000E+03 0.  0.
         25    1    1    2    0    0  0.87442861682E+02 -0.83184760545E+01  0.16467489722E+02  0.15366076051E+03  0.12500000000E+03 0.  0.
</event>
<event>
 5    0  0.5597833E-005  0.2574122E+03  0.7546771E-02  0.1108708E+00
         21   -1    0    0  502  501  0.00000000000E+00  0.00000000000E+00  0.11110969620E+03  0.11110969620E+03  0.00000000000E+00 0. -1.
         21   -1    0    0  501  502 -0.00000000000E+00 -0.00000000000E+00 -0.59635717578E+03  0.59635717578E+03  0.00000000000E+00 0. -1.
         25    1    1    2    0    0 -0.37958709467E+02 -0.37274171889E+01 -0.17277161656E+03  0.21663284320E+03  0.12500000000E+03 0.  0.
         25    1    1    2    0    0 -0.10422857302E+03  0.66633343922E+02 -0.11499979982E+03  0.21012746587E+03  0.12500000000E+03 0.  0.
         25    1    1    2    0    0  0.14218728249E+03 -0.62905926733E+02 -0.19747606320E+03  0.28070656290E+03  0.12500000000E+03 0.  0.
</event>
<event>
 5    0  0.5597833E-005  0.2425874E+03  0.7546771E-02  0.1118081E+00
         21   -1    0    0  502  501  0.00000000000E+00  0.00000000000E+00  0.28921084164E+03  0.28921084164E+03  0.00000000000E+00 0. -1.
         21   -1    0    0  501  502 -0.00000000000E+00 -0.00000000000E+00 -0.20348004129E+03  0.20348004129E+03  0.00000000000E+00 0. -1.
         25    1    1    2    0    0  0.10305914380E+03 -0.31234527203E+01  0.10034706107E+03  0.19059243360E+03  0.12500000000E+03 0.  0.
         25    1    1    2    0    0 -0.20190999020E+02 -0.58183494816E+01  0.52944348542E+02  0.13736678519E+03  0.12500000000E+03 0.  0.
         25    1    1    2    0    0 -0.82868144781E+02  0.89418022019E+01 -0.67560609269E+02  0.16473166414E+03  0.12500000000E+03 0.  0.
</event>
<event>
 5    0  0.5597833E-005  0.2969616E+03  0.7546771E-02  0.1086769E+00
         21   -1    0    0  502  501  0.00000000000E+00  0.00000000000E+00  0.21506513810E+03  0.21506513810E+03  0.00000000000E+00 0.  1.
         21   -1    0    0  501  502 -0.00000000000E+00 -0.00000000000E+00 -0.41004407726E+03  0.41004407726E+03  0.00000000000E+00 0.  1.
         25    1    1    2    0    0 -0.15591175234E+03 -0.80174486929E+02 -0.20577001484E+03  0.29783002179E+03  0.12500000000E+03 0.  0.
         25    1    1    2    0    0  0.50444793960E+02  0.88750843304E+02 -0.12432425506E+02  0.16186708939E+03  0.12500000000E+03 0.  0.
         25    1    1    2    0    0  0.10546695838E+03 -0.85763563746E+01  0.23223501198E+02  0.16541210417E+03  0.12500000000E+03 0.  0.
</event>
<event>
 5    0  0.5597833E-005  0.2280173E+03  0.7546771E-02  0.1128043E+00
         21   -1    0    0  502  501  0.00000000000E+00  0.00000000000E+00  0.10363475875E+04  0.10363475875E+04  0.00000000000E+00 0.  1.
         21   -1    0    0  501  502 -0.00000000000E+00 -0.00000000000E+00 -0.50168389294E+02  0.50168389294E+02  0.00000000000E+00 0.  1.
         25    1    1    2    0    0  0.12419898591E+02  0.34242714777E+02  0.30269387391E+03  0.32950781281E+03  0.12500000000E+03 0.  0.
         25    1    1    2    0    0  0.54347266624E+02  0.63695854728E+02  0.36776443755E+03  0.39734930329E+03  0.12500000000E+03 0.  0.
         25    1    1    2    0    0 -0.66767165215E+02 -0.97938569504E+02  0.31572088670E+03  0.35965886065E+03  0.12500000000E+03 0.  0.
</event>
<event>
 5    0  0.5597833E-005  0.3714542E+03  0.7546771E-02  0.1054138E+00
         21   -1    0    0  502  501  0.00000000000E+00  0.00000000000E+00  0.49373749435E+03  0.49373749435E+03  0.00000000000E+00 0.  1.
         21   -1    0    0  501  502 -0.00000000000E+00 -0.00000000000E+00 -0.27945666015E+03  0.27945666015E+03  0.00000000000E+00 0.  1.
         25    1    1    2    0    0  0.18751365222E+03  0.67394039519E+02  0.13737816672E+03  0.27239876472E+03  0.12500000000E+03 0.  0.
         25    1    1    2    0    0 -0.24376452416E+03 -0.45736866237E+02 -0.82227811122E+02  0.28965396095E+03  0.12500000000E+03 0.  0.
         25    1    1    2    0    0  0.56250871945E+02 -0.21657173282E+02  0.15913047860E+03  0.21114142883E+03  0.12500000000E+03 0.  0.
</event>
<event>
 5    0  0.5597833E-005  0.4336168E+03  0.7546771E-02  0.1032723E+00
         21   -1    0    0  502  501  0.00000000000E+00  0.00000000000E+00  0.26222865209E+03  0.26222865209E+03  0.00000000000E+00 0. -1.
         21   -1    0    0  501  502 -0.00000000000E+00 -0.00000000000E+00 -0.71702143412E+03  0.71702143412E+03  0.00000000000E+00 0. -1.
         25    1    1    2    0    0 -0.24162506616E+03  0.11119262822E+03  0.18157265525E+01  0.29389584895E+03  0.12500000000E+03 0.  0.
         25    1    1    2    0    0  0.31524387182E+03 -0.13289036080E+03 -0.33377163507E+03  0.49403142723E+03  0.12500000000E+03 0.  0.
         25    1    1    2    0    0 -0.73618805657E+02  0.21697732583E+02 -0.12283687351E+03  0.19132281004E+03  0.12500000000E+03 0.  0.
</event>
<event>
 5    0  0.5597833E-005  0.3271506E+03  0.7546771E-02  0.1072405E+00
         21   -1    0    0  502  501  0.00000000000E+00  0.00000000000E+00  0.83414068355E+02  0.83414068355E+02  0.00000000000E+00 0.  1.
         21   -1    0    0  501  502 -0.00000000000E+00 -0.00000000000E+00 -0.12830870018E+04  0.12830870018E+04  0.00000000000E+00 0.  1.
         25    1    1    2    0    0  0.15693849366E+03  0.13049361293E+02 -0.36045048397E+03  0.41273420989E+03  0.12500000000E+03 0.  0.
         25    1    1    2    0    0 -0.24451107013E+03  0.64270048492E+02 -0.51459144865E+03  0.58680973200E+03  0.12500000000E+03 0.  0.
         25    1    1    2    0    0  0.87572576471E+02 -0.77319409785E+02 -0.32463100082E+03  0.36695712825E+03  0.12500000000E+03 0.  0.
</event>
<event>
 5    0  0.5597833E-005  0.2415849E+03  0.7546771E-02  0.1118741E+00
         21   -1    0    0  502  501  0.00000000000E+00  0.00000000000E+00  0.16745905400E+04  0.16745905400E+04  0.00000000000E+00 0. -1.
         21   -1    0    0  501  502 -0.00000000000E+00 -0.00000000000E+00 -0.34852267700E+02  0.34852267700E+02  0.00000000000E+00 0. -1.
         25    1    1    2    0    0  0.16053870576E+01  0.58698195787E+02  0.46887191470E+03  0.48878822393E+03  0.12500000000E+03 0.  0.
         25    1    1    2    0    0  0.24193201790E+02  0.25990041384E+02  0.90120883816E+03  0.91052905678E+03  0.12500000000E+03 0.  0.
         25    1    1    2    0    0 -0.25798588847E+02 -0.84688237171E+02  0.26965751944E+03  0.31012552699E+03  0.12500000000E+03 0.  0.
</event>
<event>
 5    0  0.5597833E-005  0.2676191E+03  0.7546771E-02  0.1102650E+00
         21   -1    0    0  502  501  0.00000000000E+00  0.00000000000E+00  0.27772519215E+03  0.27772519215E+03  0.00000000000E+00 0.  1.
         21   -1    0    0  501  502 -0.00000000000E+00 -0.00000000000E+00 -0.25788067388E+03  0.25788067388E+03  0.00000000000E+00 0.  1.
         25    1    1    2    0    0 -0.37306622130E+02 -0.27599226100E+02 -0.67144719195E+02  0.14928802582E+03  0.12500000000E+03 0.  0.
         25    1    1    2    0    0 -0.71302712246E+02 -0.19644688303E+02 -0.62656864181E+02  0.15817987603E+03  0.12500000000E+03 0.  0.
         25    1    1    2    0    0  0.10860933438E+03  0.47243914403E+02  0.14964610165E+03  0.22813796418E+03  0.12500000000E+03 0.  0.
</event>
<event>
 5    0  0.5597833E-005  0.3391911E+03  0.7546771E-02  0.1067141E+00
         21   -1    0    0  502  501  0.00000000000E+00  0.00000000000E+00  0.68503428573E+03  0.68503428573E+03  0.00000000000E+00 0.  1.
         21   -1    0    0  501  502 -0.00000000000E+00 -0.00000000000E+00 -0.16794872358E+03  0.16794872358E+03  0.00000000000E+00 0.  1.
         25    1    1    2    0    0  0.20921250767E+03  0.14796928593E+03  0.31339928246E+03  0.42368489847E+03  0.12500000000E+03 0.  0.
         25    1    1    2    0    0 -0.68963844452E+02 -0.32882934922E+02  0.31923261675E+02  0.14993796680E+03  0.12500000000E+03 0.  0.
         25    1    1    2    0    0 -0.14024866322E+03 -0.11508635100E+03  0.17176301802E+03  0.27936014405E+03  0.12500000000E+03 0.  0.
</event>
<event>
 5    0  0.5597833E-005  0.2527977E+03  0.7546771E-02  0.1111549E+00
         21   -1    0    0  502  501  0.00000000000E+00  0.00000000000E+00  0.34823507222E+02  0.34823507222E+02  0.00000000000E+00 0.  1.
         21   -1    0    0  501  502 -0.00000000000E+00 -0.00000000000E+00 -0.18351585339E+04  0.18351585339E+04  0.00000000000E+00 0.  1.
         25    1    1    2    0    0 -0.93170765801E+02 -0.26560136291E+02 -0.68948976055E+03  0.70739477122E+03  0.12500000000E+03 0.  0.
         25    1    1    2    0    0  0.34155116259E+02  0.22594625643E+02 -0.90559100500E+03  0.91509407025E+03  0.12500000000E+03 0.  0.
         25    1    1    2    0    0  0.59015649542E+02  0.39655106474E+01 -0.20525426115E+03  0.24749319967E+03  0.12500000000E+03 0.  0.
</event>
<event>
 5    0  0.5597833E-005  0.3367277E+03  0.7546771E-02  0.1068198E+00
         21   -1    0    0  502  501  0.00000000000E+00  0.00000000000E+00  0.70849399737E+02  0.70849399737E+02  0.00000000000E+00 0. -1.
         21   -1    0    0  501  502 -0.00000000000E+00 -0.00000000000E+00 -0.16003739162E+04  0.16003739162E+04  0.00000000000E+00 0. -1.
         25    1    1    2    0    0  0.83467762602E+02 -0.74740794302E+02 -0.25391415262E+03  0.30438536533E+03  0.12500000000E+03 0.  0.
         25    1    1    2    0    0 -0.87770571593E+02  0.21734427865E+03 -0.98192285393E+03  0.10172215588E+04  0.12500000000E+03 0.  0.
         25    1    1    2    0    0  0.43028089914E+01 -0.14260348435E+03 -0.29368750994E+03  0.34961639179E+03  0.12500000000E+03 0.  0.
</event>
<event>
 5    0  0.5597833E-005  0.2664626E+03  0.7546771E-02  0.1103321E+00
         21   -1    0    0  502  501  0.00000000000E+00  0.00000000000E+00  0.46352483586E+03  0.46352483586E+03  0.00000000000E+00 0. -1.
         21   -1    0    0  501  502 -0.00000000000E+00 -0.00000000000E+00 -0.15317904583E+03  0.15317904583E+03  0.00000000000E+00 0. -1.
         25    1    1    2    0    0 -0.37147899561E+02  0.11945616642E+03 -0.14219235213E+02  0.17741738581E+03  0.12500000000E+03 0.  0.
         25    1    1    2    0    0 -0.33664044135E+01 -0.38401230758E+02  0.91161292039E+02  0.15944079895E+03  0.12500000000E+03 0.  0.
         25    1    1    2    0    0  0.40514303975E+02 -0.81054935658E+02  0.23340373321E+03  0.27984569694E+03  0.12500000000E+03 0.  0.
</event>
<event>
 5    0  0.5597833E-005  0.2289980E+03  0.7546771E-02  0.1127347E+00
         21   -1    0    0  502  501  0.00000000000E+00  0.00000000000E+00  0.98271196363E+03  0.98271196363E+03  0.00000000000E+00 0.  1.
         21   -1    0    0  501  502 -0.00000000000E+00 -0.00000000000E+00 -0.53362641680E+02  0.53362641680E+02  0.00000000000E+00 0.  1.
         25    1    1    2    0    0  0.19149641001E+01 -0.58672670876E+01  0.18007854879E+03  0.21929745928E+03  0.12500000000E+03 0.  0.
         25    1    1    2    0    0  0.66611164671E+02  0.73736414783E+02  0.46430580728E+03  0.49099795192E+03  0.12500000000E+03 0.  0.
         25    1    1    2    0    0 -0.68526128771E+02 -0.67869147696E+02  0.28496496588E+03  0.32577919411E+03  0.12500000000E+03 0.  0.
</event>
<event>
 5    0  0.5597833E-005  0.2602139E+03  0.7546771E-02  0.1107015E+00
         21   -1    0    0  502  501  0.00000000000E+00  0.00000000000E+00  0.57725295623E+03  0.57725295623E+03  0.00000000000E+00 0.  1.
         21   -1    0    0  501  502 -0.00000000000E+00 -0.00000000000E+00 -0.11729909832E+03  0.11729909832E+03  0.00000000000E+00 0.  1.
         25    1    1    2    0    0 -0.99779231150E+02  0.19714898091E+02  0.20832748176E+03  0.26338168470E+03  0.12500000000E+03 0.  0.
         25    1    1    2    0    0 -0.24326722536E+02  0.49029772329E+02  0.29767941226E+02  0.13966688344E+03  0.12500000000E+03 0.  0.
         25    1    1    2    0    0  0.12410595369E+03 -0.68744670420E+02  0.22185843492E+03  0.29150348642E+03  0.12500000000E+03 0.  0.
</event>
<event>
 5    0  0.5597833E-005  0.2864870E+03  0.7546771E-02  0.1092198E+00
         21   -1    0    0  502  501  0.00000000000E+00  0.00000000000E+00  0.14738484749E+03  0.14738484749E+03  0.00000000000E+00 0.  1.
         21   -1    0    0  501  502 -0.00000000000E+00 -0.00000000000E+00 -0.55687421443E+03  0.55687421443E+03  0.00000000000E+00 0.  1.
         25    1    1    2    0    0  0.45220809591E+01 -0.14233335610E+03 -0.27346912697E+03  0.33270046120E+03  0.12500000000E+03 0.  0.
         25    1    1    2    0    0  0.74646043920E+02  0.12746428501E+03 -0.10307734378E+03  0.21924669810E+03  0.12500000000E+03 0.  0.
         25    1    1    2    0    0 -0.79168124879E+02  0.14869071090E+02 -0.32942896186E+02  0.15231190262E+03  0.12500000000E+03 0.  0.
</event>
<event>
 5    0  0.5597833E-005  0.2246298E+03  0.7546771E-02  0.1130478E+00
         21   -1    0    0  502  501  0.00000000000E+00  0.00000000000E+00  0.42034866131E+03  0.42034866131E+03  0.00000000000E+00 0.  1.
         21   -1    0    0  501  502 -0.00000000000E+00 -0.00000000000E+00 -0.12003971296E+03  0.12003971296E+03  0.00000000000E+00 0.  1.
         25    1    1    2    0    0 -0.50512999399E+01  0.40657935575E+02  0.54255656156E+02  0.14229286553E+03  0.12500000000E+03 0.  0.
         25    1    1    2    0    0  0.30282603819E+02 -0.10428675543E+02  0.11674992461E+02  0.12956503701E+03  0.12500000000E+03 0.  0.
         25    1    1    2    0    0 -0.25231303879E+02 -0.30229260031E+02  0.23437829974E+03  0.26853047172E+03  0.12500000000E+03 0.  0.
</event>
<event>
 5    0  0.6847353E-005  0.2877978E+03  0.7546771E-02  0.1091505E+00
         21   -1    0    0  502  501  0.00000000000E+00  0.00000000000E+00  0.39591639520E+03  0.39591639520E+03  0.00000000000E+00 0. -1.
         21   -1    0    0  501  502 -0.00000000000E+00 -0.00000000000E+00 -0.20920470795E+03  0.20920470795E+03  0.00000000000E+00 0. -1.
         25    1    1    2    0    0 -0.76948670730E+02  0.10825878450E+02  0.20281791723E+03  0.25059609957E+03  0.12500000000E+03 0.  0.
         25    1    1    2    0    0 -0.71928077800E+02 -0.84926780937E+01 -0.57962993035E+02  0.15566143555E+03  0.12500000000E+03 0.  0.
         25    1    1    2    0    0  0.14887674853E+03 -0.23332003559E+01  0.41856763059E+02  0.19886356803E+03  0.12500000000E+03 0.  0.
</event>
<event>
 5    0  0.5597833E-005  0.3039925E+03  0.7546771E-02  0.1083262E+00
         21   -1    0    0  502  501  0.00000000000E+00  0.00000000000E+00  0.49276363238E+02  0.49276363238E+02  0.00000000000E+00 0. -1.
         21   -1    0    0  501  502 -0.00000000000E+00 -0.00000000000E+00 -0.18753706897E+04  0.18753706897E+04  0.00000000000E+00 0. -1.
         25    1    1    2    0    0  0.28882914249E+02 -0.46973626278E+02 -0.13128286924E+03  0.18947542336E+03  0.12500000000E+03 0.  0.
         25    1    1    2    0    0 -0.61067039913E+02 -0.10305478641E+03 -0.72693064553E+03  0.74726343132E+03  0.12500000000E+03 0.  0.
         25    1    1    2    0    0  0.32184125664E+02  0.15002841269E+03 -0.96788081165E+03  0.98790819823E+03  0.12500000000E+03 0.  0.
</event>
<event>
 5    0  0.5597833E-005  0.7834363E+03  0.7546771E-02  0.9584307E-01
         21   -1    0    0  502  501  0.00000000000E+00  0.00000000000E+00  0.32238096642E+03  0.32238096642E+03  0.00000000000E+00 0. -1.
         21   -1    0    0  501  502 -0.00000000000E+00 -0.00000000000E+00 -0.19038730896E+04  0.19038730896E+04  0.00000000000E+00 0.  1.
         25    1    1    2    0    0  0.51540934109E+03 -0.37710722096E+03 -0.51636884193E+03  0.83073366725E+03  0.12500000000E+03 0.  0.
         25    1    1    2    0    0 -0.35050645698E+03  0.52676299160E+03 -0.79659813000E+03  0.10249524898E+04  0.12500000000E+03 0.  0.
         25    1    1    2    0    0 -0.16490288411E+03 -0.14965577064E+03 -0.26852515127E+03  0.37056789896E+03  0.12500000000E+03 0.  0.
</event>
<event>
 5    0  0.5597833E-005  0.3704712E+03  0.7546771E-02  0.1054513E+00
         21   -1    0    0  502  501  0.00000000000E+00  0.00000000000E+00  0.73307679209E+02  0.73307679209E+02  0.00000000000E+00 0.  1.
         21   -1    0    0  501  502 -0.00000000000E+00 -0.00000000000E+00 -0.18722306919E+04  0.18722306919E+04  0.00000000000E+00 0.  1.
         25    1    1    2    0    0  0.12501097057E+03 -0.31041970583E+02 -0.88546003159E+03  0.90346876772E+03  0.12500000000E+03 0.  0.
         25    1    1    2    0    0  0.89101698197E+01 -0.18066793632E+03 -0.36025016801E+03  0.42204914156E+03  0.12500000000E+03 0.  0.
         25    1    1    2    0    0 -0.13392114039E+03  0.21170990690E+03 -0.55321281308E+03  0.62002046182E+03  0.12500000000E+03 0.  0.
</event>
<event>
 5    0  0.5597833E-005  0.2033341E+03  0.7546771E-02  0.1146956E+00
         21   -1    0    0  502  501  0.00000000000E+00  0.00000000000E+00  0.23059577793E+03  0.23059577793E+03  0.00000000000E+00 0.  1.
         21   -1    0    0  501  502 -0.00000000000E+00 -0.00000000000E+00 -0.17929531302E+03  0.17929531302E+03  0.00000000000E+00 0.  1.
         25    1    1    2    0    0 -0.15510933656E+02 -0.21609852854E+02 -0.90532751998E+01  0.12811922805E+03  0.12500000000E+03 0.  0.
         25    1    1    2    0    0 -0.70687512130E+00 -0.35817065352E+02 -0.15828926977E+01  0.13004179094E+03  0.12500000000E+03 0.  0.
         25    1    1    2    0    0  0.16217808777E+02  0.57426918206E+02  0.61936632808E+02  0.15173007197E+03  0.12500000000E+03 0.  0.
</event>
<event>
 5    0  0.5719340E-005  0.2863523E+03  0.7546771E-02  0.1092269E+00
         21   -1    0    0  502  501  0.00000000000E+00  0.00000000000E+00  0.23245016008E+03  0.23245016008E+03  0.00000000000E+00 0.  1.
         21   -1    0    0  501  502 -0.00000000000E+00 -0.00000000000E+00 -0.35275366444E+03  0.35275366444E+03  0.00000000000E+00 0.  1.
         25    1    1    2    0    0 -0.34046954090E+02 -0.90504883281E+02  0.85334123195E+02  0.17960301100E+03  0.12500000000E+03 0.  0.
         25    1    1    2    0    0  0.49095456799E+02  0.23089464663E+01  0.16644396621E+02  0.13534301257E+03  0.12500000000E+03 0.  0.
         25    1    1    2    0    0 -0.15048502709E+02  0.88195936814E+02 -0.22228202417E+03  0.27025780095E+03  0.12500000000E+03 0.  0.
</event>
<event>
 5    0  0.5597833E-005  0.3270845E+03  0.7546771E-02  0.1072434E+00
         21   -1    0    0  502  501  0.00000000000E+00  0.00000000000E+00  0.24169661088E+03  0.24169661088E+03  0.00000000000E+00 0.  1.
         21   -1    0    0  501  502 -0.00000000000E+00 -0.00000000000E+00 -0.44263869882E+03  0.44263869882E+03  0.00000000000E+00 0.  1.
         25    1    1    2    0    0  0.68159858477E+02  0.74390042397E+02 -0.70179068592E+02  0.17529901992E+03  0.12500000000E+03 0.  0.
         25    1    1    2    0    0 -0.12649203108E+03 -0.15523791679E+03 -0.22276030181E+03  0.32457078858E+03  0.12500000000E+03 0.  0.
         25    1    1    2    0    0  0.58332172607E+02  0.80847874393E+02  0.91997282460E+02  0.18446550121E+03  0.12500000000E+03 0.  0.
</event>
<event>
 5    0  0.5597833E-005  0.2638886E+03  0.7546771E-02  0.1104829E+00
         21   -1    0    0  502  501  0.00000000000E+00  0.00000000000E+00  0.79627677247E+03  0.79627677247E+03  0.00000000000E+00 0. -1.
         21   -1    0    0  501  502 -0.00000000000E+00 -0.00000000000E+00 -0.87453487144E+02  0.87453487144E+02  0.00000000000E+00 0. -1.
         25    1    1    2    0    0  0.35285311854E+02 -0.87629999610E+00  0.32751456303E+02  0.13395327179E+03  0.12500000000E+03 0.  0.
         25    1    1    2    0    0  0.33695510774E+02 -0.74231703364E+02  0.21849570614E+03  0.26459612022E+03  0.12500000000E+03 0.  0.
         25    1    1    2    0    0 -0.68980822628E+02  0.75108003360E+02  0.45757612288E+03  0.48518086760E+03  0.12500000000E+03 0.  0.
</event>
<event>
 5    0  0.5597833E-005  0.2366947E+03  0.7546771E-02  0.1122015E+00
         21   -1    0    0  502  501  0.00000000000E+00  0.00000000000E+00  0.14557973578E+03  0.14557973578E+03  0.00000000000E+00 0.  1.
         21   -1    0    0  501  502 -0.00000000000E+00 -0.00000000000E+00 -0.38483635670E+03  0.38483635670E+03  0.00000000000E+00 0.  1.
         25    1    1    2    0    0 -0.65182460069E+02  0.80066613614E+01 -0.61703795199E+01  0.14133624203E+03  0.12500000000E+03 0.  0.
         25    1    1    2    0    0  0.48925892431E+02  0.12215071787E+02 -0.22357366906E+03  0.26106155678E+03  0.12500000000E+03 0.  0.
         25    1    1    2    0    0  0.16256567638E+02 -0.20221733149E+02 -0.95125723438E+01  0.12801829368E+03  0.12500000000E+03 0.  0.
</event>
<event>
 5    0  0.5597833E-005  0.2377889E+03  0.7546771E-02  0.1121275E+00
         21   -1    0    0  502  501  0.00000000000E+00  0.00000000000E+00  0.75995156389E+02  0.75995156389E+02  0.00000000000E+00 0. -1.
         21   -1    0    0  501  502 -0.00000000000E+00 -0.00000000000E+00 -0.74404174004E+03  0.74404174004E+03  0.00000000000E+00 0. -1.
         25    1    1    2    0    0  0.97601254444E+02 -0.77928736675E+02 -0.32923807714E+03  0.37365974403E+03  0.12500000000E+03 0.  0.
         25    1    1    2    0    0 -0.12426732789E+02  0.30210531573E+02 -0.12159284904E+03  0.17741736342E+03  0.12500000000E+03 0.  0.
         25    1    1    2    0    0 -0.85174521655E+02  0.47718205102E+02 -0.21721565746E+03  0.26895978897E+03  0.12500000000E+03 0.  0.
</event>
<event>
 5    0  0.5597833E-005  0.2526699E+03  0.7546771E-02  0.1111629E+00
         21   -1    0    0  502  501  0.00000000000E+00  0.00000000000E+00  0.60005989719E+02  0.60005989719E+02  0.00000000000E+00 0.  1.
         21   -1    0    0  501  502 -0.00000000000E+00 -0.00000000000E+00 -0.10639285151E+04  0.10639285151E+04  0.00000000000E+00 0.  1.
         25    1    1    2    0    0  0.69127632548E+02  0.20745998039E+02 -0.43076122216E+03  0.45430084364E+03  0.12500000000E+03 0.  0.
         25    1    1    2    0    0  0.16158714790E+02 -0.11189020591E+03 -0.25362407416E+03  0.30451714769E+03  0.12500000000E+03 0.  0.
         25    1    1    2    0    0 -0.85286347338E+02  0.91144207874E+02 -0.31953722910E+03  0.36511651353E+03  0.12500000000E+03 0.  0.
</event>
<event>
 5    0  0.5597833E-005  0.2750795E+03  0.7546771E-02  0.1098407E+00
         21   -1    0    0  502  501  0.00000000000E+00  0.00000000000E+00  0.69755697223E+02  0.69755697223E+02  0.00000000000E+00 0.  1.
         21   -1    0    0  501  502 -0.00000000000E+00 -0.00000000000E+00 -0.10847679789E+04  0.10847679789E+04  0.00000000000E+00 0.  1.
         25    1    1    2    0    0 -0.26172358426E+02 -0.56885833558E+02 -0.71244413687E+02  0.15691321451E+03  0.12500000000E+03 0.  0.
         25    1    1    2    0    0  0.22828776632E+02 -0.58793806872E+02 -0.56853523007E+03  0.58552128279E+03  0.12500000000E+03 0.  0.
         25    1    1    2    0    0  0.33435817945E+01  0.11567964043E+03 -0.37523263795E+03  0.41208917886E+03  0.12500000000E+03 0.  0.
</event>
<event>
 5    0  0.5597833E-005  0.9947454E+03  0.7546771E-02  0.9314327E-01
         21   -1    0    0  502  501  0.00000000000E+00  0.00000000000E+00  0.14067785296E+04  0.14067785296E+04  0.00000000000E+00 0.  1.
         21   -1    0    0  501  502 -0.00000000000E+00 -0.00000000000E+00 -0.70339310594E+03  0.70339310594E+03  0.00000000000E+00 0.  1.
         25    1    1    2    0    0  0.15960526041E+03 -0.19457012351E+03 -0.23467201426E+03  0.36609742746E+03  0.12500000000E+03 0.  0.
         25    1    1    2    0    0 -0.28208716717E+03  0.64548693486E+03  0.10276454291E+04  0.12521608047E+04  0.12500000000E+03 0.  0.
         25    1    1    2    0    0  0.12248190676E+03 -0.45091681134E+03 -0.89587991186E+02  0.49191340335E+03  0.12500000000E+03 0.  0.
</event>
<event>
 5    0  0.5597833E-005  0.3897239E+03  0.7546771E-02  0.1047397E+00
         21   -1    0    0  502  501  0.00000000000E+00  0.00000000000E+00  0.22787281180E+03  0.22787281180E+03  0.00000000000E+00 0.  1.
         21   -1    0    0  501  502 -0.00000000000E+00 -0.00000000000E+00 -0.66653279085E+03  0.66653279085E+03  0.00000000000E+00 0.  1.
         25    1    1    2    0    0 -0.53435293421E+00 -0.16395162909E+03 -0.42002585161E+02  0.21040351559E+03  0.12500000000E+03 0.  0.
         25    1    1    2    0    0 -0.34300942187E+02 -0.12593202379E+03 -0.63932906369E+01  0.18083501712E+03  0.12500000000E+03 0.  0.
         25    1    1    2    0    0  0.34835295121E+02  0.28988365288E+03 -0.39026410325E+03  0.50316706995E+03  0.12500000000E+03 0.  0.
</event>
<event>
 5    0  0.5597833E-005  0.2318858E+03  0.7546771E-02  0.1125319E+00
         21   -1    0    0  502  501  0.00000000000E+00  0.00000000000E+00  0.66810929762E+03  0.66810929762E+03  0.00000000000E+00 0.  1.
         21   -1    0    0  501  502 -0.00000000000E+00 -0.00000000000E+00 -0.80482359235E+02  0.80482359235E+02  0.00000000000E+00 0.  1.
         25    1    1    2    0    0  0.48430396347E+02  0.73143183497E+01  0.98631453955E+02  0.16658981437E+03  0.12500000000E+03 0.  0.
         25    1    1    2    0    0 -0.34478609039E+02 -0.78829271683E+02  0.14977748373E+03  0.21321614195E+03  0.12500000000E+03 0.  0.
         25    1    1    2    0    0 -0.13951787309E+02  0.71514953333E+02  0.33921800070E+03  0.36878570054E+03  0.12500000000E+03 0.  0.
</event>
<event>
 5    0  0.5597833E-005  0.3039867E+03  0.7546771E-02  0.1083264E+00
         21   -1    0    0  502  501  0.00000000000E+00  0.00000000000E+00  0.45982758987E+03  0.45982758987E+03  0.00000000000E+00 0.  1.
         21   -1    0    0  501  502 -0.00000000000E+00 -0.00000000000E+00 -0.20096212181E+03  0.20096212181E+03  0.00000000000E+00 0.  1.
         25    1    1    2    0    0  0.26586828271E+02 -0.12669070268E+03 -0.43339826069E+02  0.18509655347E+03  0.12500000000E+03 0.  0.
         25    1    1    2    0    0 -0.82184038025E+02 -0.27997164569E+02  0.18007755141E+03  0.23577739894E+03  0.12500000000E+03 0.  0.
         25    1    1    2    0    0  0.55597209754E+02  0.15468786725E+03  0.12212774272E+03  0.23991575927E+03  0.12500000000E+03 0.  0.
</event>
<event>
 5    0  0.5597833E-005  0.2583240E+03  0.7546771E-02  0.1108154E+00
         21   -1    0    0  502  501  0.00000000000E+00  0.00000000000E+00  0.31579946486E+02  0.31579946486E+02  0.00000000000E+00 0. -1.
         21   -1    0    0  501  502 -0.00000000000E+00 -0.00000000000E+00 -0.21130902879E+04  0.21130902879E+04  0.00000000000E+00 0. -1.
         25    1    1    2    0    0  0.10859043322E+03  0.42958349247E+02 -0.86722973654E+03  0.88393988364E+03  0.12500000000E+03 0.  0.
         25    1    1    2    0    0 -0.47059544670E+02  0.66789588267E+02 -0.39063839011E+03  0.41820904064E+03  0.12500000000E+03 0.  0.
         25    1    1    2    0    0 -0.61530888548E+02 -0.10974793751E+03 -0.82364221473E+03  0.84252131007E+03  0.12500000000E+03 0.  0.
</event>
<event>
 5    0  0.5597833E-005  0.5246786E+03  0.7546771E-02  0.1007531E+00
         21   -1    0    0  502  501  0.00000000000E+00  0.00000000000E+00  0.13261985393E+04  0.13261985393E+04  0.00000000000E+00 0.  1.
         21   -1    0    0  501  502 -0.00000000000E+00 -0.00000000000E+00 -0.20757650391E+03  0.20757650391E+03  0.00000000000E+00 0.  1.
         25    1    1    2    0    0 -0.14218632623E+03 -0.28129646573E+02  0.44856589569E+03  0.48769313216E+03  0.12500000000E+03 0.  0.
         25    1    1    2    0    0  0.26286999055E+02  0.37754989782E+03  0.23530158218E+03  0.46284637434E+03  0.12500000000E+03 0.  0.
         25    1    1    2    0    0  0.11589932717E+03 -0.34942025124E+03  0.43475455756E+03  0.58323553675E+03  0.12500000000E+03 0.  0.
</event>
<event>
 5    0  0.5597833E-005  0.2989545E+03  0.7546771E-02  0.1085764E+00
         21   -1    0    0  502  501  0.00000000000E+00  0.00000000000E+00  0.42378809617E+03  0.42378809617E+03  0.00000000000E+00 0. -1.
         21   -1    0    0  501  502 -0.00000000000E+00 -0.00000000000E+00 -0.21089265736E+03  0.21089265736E+03  0.00000000000E+00 0. -1.
         25    1    1    2    0    0  0.90615835405E+02  0.28878108062E+02 -0.59805552935E+01  0.15718123868E+03  0.12500000000E+03 0.  0.
         25    1    1    2    0    0 -0.13892272835E+03 -0.13360863045E+03  0.20319519945E+03  0.30669867894E+03  0.12500000000E+03 0.  0.
         25    1    1    2    0    0  0.48306892945E+02  0.10473052238E+03  0.15680794654E+02  0.17080083590E+03  0.12500000000E+03 0.  0.
</event>
<event>
 5    0  0.5597833E-005  0.2656491E+03  0.7546771E-02  0.1103796E+00
         21   -1    0    0  502  501  0.00000000000E+00  0.00000000000E+00  0.10875755720E+04  0.10875755720E+04  0.00000000000E+00 0. -1.
         21   -1    0    0  501  502 -0.00000000000E+00 -0.00000000000E+00 -0.64886949333E+02  0.64886949333E+02  0.00000000000E+00 0. -1.
         25    1    1    2    0    0  0.12564551969E+03  0.72426569798E+02  0.31931446667E+03  0.37231590519E+03  0.12500000000E+03 0.  0.
         25    1    1    2    0    0 -0.65212722407E+02  0.11474551526E+02  0.16237400607E+03  0.21534781714E+03  0.12500000000E+03 0.  0.
         25    1    1    2    0    0 -0.60432797287E+02 -0.83901121324E+02  0.54100014996E+03  0.56479879905E+03  0.12500000000E+03 0.  0.
</event>
<event>
 5    0  0.5597833E-005  0.2522166E+03  0.7546771E-02  0.1111912E+00
         21   -1    0    0  502  501  0.00000000000E+00  0.00000000000E+00  0.31752231827E+03  0.31752231827E+03  0.00000000000E+00 0.  1.
         21   -1    0    0  501  502 -0.00000000000E+00 -0.00000000000E+00 -0.20034246438E+03  0.20034246438E+03  0.00000000000E+00 0.  1.
         25    1    1    2    0    0  0.34453849842E+02  0.90822478985E+02  0.22650804378E+02  0.15991825849E+03  0.12500000000E+03 0.  0.
         25    1    1    2    0    0 -0.44448212681E+02  0.11559198087E+02  0.13650905358E+03  0.19070652946E+03  0.12500000000E+03 0.  0.
         25    1    1    2    0    0  0.99943628390E+01 -0.10238167707E+03 -0.41980004060E+02  0.16723999471E+03  0.12500000000E+03 0.  0.
</event>
<event>
 5    0  0.5597833E-005  0.2604653E+03  0.7546771E-02  0.1106864E+00
         21   -1    0    0  502  501  0.00000000000E+00  0.00000000000E+00  0.37870226217E+03  0.37870226217E+03  0.00000000000E+00 0. -1.
         21   -1    0    0  501  502 -0.00000000000E+00 -0.00000000000E+00 -0.17914389349E+03  0.17914389349E+03  0.00000000000E+00 0. -1.
         25    1    1    2    0    0 -0.13360599031E+02  0.39478210035E+02  0.21022354864E+02  0.13343153330E+03  0.12500000000E+03 0.  0.
         25    1    1    2    0    0  0.14299315325E+03 -0.61884831267E+02  0.12321358154E+03  0.23469844672E+03  0.12500000000E+03 0.  0.
         25    1    1    2    0    0 -0.12963255422E+03  0.22406621232E+02  0.55322432283E+02  0.18971617564E+03  0.12500000000E+03 0.  0.
</event>
<event>
 5    0  0.6154862E-005  0.3934730E+03  0.7546771E-02  0.1046063E+00
         21   -1    0    0  502  501  0.00000000000E+00  0.00000000000E+00  0.35579306045E+03  0.35579306045E+03  0.00000000000E+00 0.  1.
         21   -1    0    0  501  502 -0.00000000000E+00 -0.00000000000E+00 -0.43514342346E+03  0.43514342346E+03  0.00000000000E+00 0.  1.
         25    1    1    2    0    0  0.13458485729E+02  0.24341323864E+03 -0.49626358203E+02  0.27842218125E+03  0.12500000000E+03 0.  0.
         25    1    1    2    0    0  0.37759244485E+02 -0.17308258284E+03 -0.19225696494E+03  0.28977764164E+03  0.12500000000E+03 0.  0.
         25    1    1    2    0    0 -0.51217730214E+02 -0.70330655802E+02  0.16253296012E+03  0.22273666102E+03  0.12500000000E+03 0.  0.
</event>
<event>
 5    0  0.5597833E-005  0.2826453E+03  0.7546771E-02  0.1094253E+00
         21   -1    0    0  502  501  0.00000000000E+00  0.00000000000E+00  0.83010438067E+03  0.83010438067E+03  0.00000000000E+00 0. -1.
         21   -1    0    0  501  502 -0.00000000000E+00 -0.00000000000E+00 -0.96238923806E+02  0.96238923806E+02  0.00000000000E+00 0. -1.
         25    1    1    2    0    0 -0.21923755625E+02  0.15518307164E+03  0.32903752727E+03  0.38529616029E+03  0.12500000000E+03 0.  0.
         25    1    1    2    0    0 -0.41052367310E+02 -0.15897834426E+03  0.30826118050E+03  0.37095736441E+03  0.12500000000E+03 0.  0.
         25    1    1    2    0    0  0.62976122934E+02  0.37952726279E+01  0.96566749100E+02  0.17008977978E+03  0.12500000000E+03 0.  0.
</event>
<event>
 5    0  0.5597833E-005  0.2936102E+03  0.7546771E-02  0.1088479E+00
         21   -1    0    0  502  501  0.00000000000E+00  0.00000000000E+00  0.16758069758E+04  0.16758069758E+04  0.00000000000E+00 0. -1.
         21   -1    0    0  501  502 -0.00000000000E+00 -0.00000000000E+00 -0.51442039357E+02  0.51442039357E+02  0.00000000000E+00 0. -1.
         25    1    1    2    0    0 -0.87226239072E+01 -0.49352666706E+01  0.16697275700E+03  0.20881892301E+03  0.12500000000E+03 0.  0.
         25    1    1    2    0    0  0.24030635680E+02  0.86086561658E+02  0.20036400466E+03  0.25250564729E+03  0.12500000000E+03 0.  0.
         25    1    1    2    0    0 -0.15308011773E+02 -0.81151294987E+02  0.12570281748E+04  0.12659244449E+04  0.12500000000E+03 0.  0.
</event>
<event>
 5    0  0.5597833E-005  0.4270528E+03  0.7546771E-02  0.1034795E+00
         21   -1    0    0  502  501  0.00000000000E+00  0.00000000000E+00  0.13689215895E+03  0.13689215895E+03  0.00000000000E+00 0. -1.
         21   -1    0    0  501  502 -0.00000000000E+00 -0.00000000000E+00 -0.13322463643E+04  0.13322463643E+04  0.00000000000E+00 0. -1.
         25    1    1    2    0    0 -0.17623149595E+02  0.30188571051E+03 -0.70004470459E+03  0.77274390715E+03  0.12500000000E+03 0.  0.
         25    1    1    2    0    0 -0.13391078614E+03 -0.16808467336E+03 -0.21321529040E+03  0.32752147429E+03  0.12500000000E+03 0.  0.
         25    1    1    2    0    0  0.15153393574E+03 -0.13380103715E+03 -0.28209421036E+03  0.36887314180E+03  0.12500000000E+03 0.  0.
</event>
<event>
 5    0  0.5597833E-005  0.3088933E+03  0.7546771E-02  0.1080878E+00
         21   -1    0    0  502  501  0.00000000000E+00  0.00000000000E+00  0.14631862916E+04  0.14631862916E+04  0.00000000000E+00 0.  1.
         21   -1    0    0  501  502 -0.00000000000E+00 -0.00000000000E+00 -0.65210493578E+02  0.65210493578E+02  0.00000000000E+00 0.  1.
         25    1    1    2    0    0 -0.17826553132E+02  0.71198906211E+02  0.14385210575E+03  0.20421924143E+03  0.12500000000E+03 0.  0.
         25    1    1    2    0    0 -0.61198911805E+02  0.47148049485E+02  0.17479906303E+03  0.22835927354E+03  0.12500000000E+03 0.  0.
         25    1    1    2    0    0  0.79025464937E+02 -0.11834695570E+03  0.10793246292E+04  0.10958182702E+04  0.12500000000E+03 0.  0.
</event>
<event>
 5    0  0.5597833E-005  0.3115089E+03  0.7546771E-02  0.1079625E+00
         21   -1    0    0  502  501  0.00000000000E+00  0.00000000000E+00  0.34870418151E+03  0.34870418151E+03  0.00000000000E+00 0. -1.
         21   -1    0    0  501  502 -0.00000000000E+00 -0.00000000000E+00 -0.27828117957E+03  0.27828117957E+03  0.00000000000E+00 0. -1.
         25    1    1    2    0    0  0.98702027793E+02  0.79694672846E+01  0.17663807633E+01  0.15947953725E+03  0.12500000000E+03 0.  0.
         25    1    1    2    0    0 -0.14834260598E+03  0.12497086559E+03  0.13470300222E+03  0.26719495654E+03  0.12500000000E+03 0.  0.
         25    1    1    2    0    0  0.49640578183E+02 -0.13294033288E+03 -0.66046381042E+02  0.20031086730E+03  0.12500000000E+03 0.  0.
</event>
<event>
 5    0  0.5597833E-005  0.3133767E+03  0.7546771E-02  0.1078739E+00
         21   -1    0    0  502  501  0.00000000000E+00  0.00000000000E+00  0.38375714636E+03  0.38375714636E+03  0.00000000000E+00 0. -1.
         21   -1    0    0  501  502 -0.00000000000E+00 -0.00000000000E+00 -0.25590385349E+03  0.25590385349E+03  0.00000000000E+00 0. -1.
         25    1    1    2    0    0  0.88934902440E+02 -0.60314109965E+02  0.30555239053E+02  0.16764793875E+03  0.12500000000E+03 0.  0.
         25    1    1    2    0    0  0.11360025444E+03  0.12782402557E+03  0.70143235622E+02  0.22313465178E+03  0.12500000000E+03 0.  0.
         25    1    1    2    0    0 -0.20253515688E+03 -0.67509915601E+02  0.27154818191E+02  0.24887840933E+03  0.12500000000E+03 0.  0.
</event>
<event>
 5    0  0.5597833E-005  0.2674211E+03  0.7546771E-02  0.1102765E+00
         21   -1    0    0  502  501  0.00000000000E+00  0.00000000000E+00  0.48791263438E+03  0.48791263438E+03  0.00000000000E+00 0.  1.
         21   -1    0    0  501  502 -0.00000000000E+00 -0.00000000000E+00 -0.14657141428E+03  0.14657141428E+03  0.00000000000E+00 0.  1.
         25    1    1    2    0    0 -0.63144257403E+02 -0.14332633772E+03  0.10514433289E+03  0.22629619322E+03  0.12500000000E+03 0.  0.
         25    1    1    2    0    0  0.72269209448E+01  0.21275558543E+02  0.26785409842E+02  0.12979728795E+03  0.12500000000E+03 0.  0.
         25    1    1    2    0    0  0.55917336458E+02  0.12205077918E+03  0.20941147737E+03  0.27839056749E+03  0.12500000000E+03 0.  0.
</event>
<event>
 5    0  0.5597833E-005  0.2688839E+03  0.7546771E-02  0.1101920E+00
         21   -1    0    0  502  501  0.00000000000E+00  0.00000000000E+00  0.73917521261E+03  0.73917521261E+03  0.00000000000E+00 0. -1.
         21   -1    0    0  501  502 -0.00000000000E+00 -0.00000000000E+00 -0.97809730184E+02  0.97809730184E+02  0.00000000000E+00 0. -1.
         25    1    1    2    0    0 -0.75095455479E+02 -0.43342380396E+01  0.25942194663E+03  0.29762872752E+03  0.12500000000E+03 0.  0.
         25    1    1    2    0    0  0.66962038631E+02  0.38862867816E+02  0.38210672004E+03  0.40942005644E+03  0.12500000000E+03 0.  0.
         25    1    1    2    0    0  0.81334168475E+01 -0.34528629776E+02 -0.16318424461E+00  0.12993615884E+03  0.12500000000E+03 0.  0.
</event>
<event>
 5    0  0.5597833E-005  0.2368825E+03  0.7546771E-02  0.1121887E+00
         21   -1    0    0  502  501  0.00000000000E+00  0.00000000000E+00  0.85856053302E+02  0.85856053302E+02  0.00000000000E+00 0.  1.
         21   -1    0    0  501  502 -0.00000000000E+00 -0.00000000000E+00 -0.65357460194E+03  0.65357460194E+03  0.00000000000E+00 0.  1.
         25    1    1    2    0    0  0.28590751107E+02  0.72153623047E+02 -0.18839973285E+03  0.23904609536E+03  0.12500000000E+03 0.  0.
         25    1    1    2    0    0  0.85635060720E+01 -0.12357512071E+03 -0.27147176176E+03  0.32352134632E+03  0.12500000000E+03 0.  0.
         25    1    1    2    0    0 -0.37154257179E+02  0.51421497659E+02 -0.10784705402E+03  0.17686321355E+03  0.12500000000E+03 0.  0.
</event>
<event>
 5    0  0.5597833E-005  0.2133632E+03  0.7546771E-02  0.1138930E+00
         21   -1    0    0  502  501  0.00000000000E+00  0.00000000000E+00  0.14519285279E+03  0.14519285279E+03  0.00000000000E+00 0.  1.
         21   -1    0    0  501  502 -0.00000000000E+00 -0.00000000000E+00 -0.31354047415E+03  0.31354047415E+03  0.00000000000E+00 0.  1.
         25    1    1    2    0    0 -0.74800769073E+02 -0.53743105522E+02 -0.75284638219E+02  0.17255797054E+03  0.12500000000E+03 0.  0.
         25    1    1    2    0    0  0.49273515569E+02  0.69045330714E+01 -0.51460669094E+02  0.14404427228E+03  0.12500000000E+03 0.  0.
         25    1    1    2    0    0  0.25527253504E+02  0.46838572450E+02 -0.41602314044E+02  0.14213108412E+03  0.12500000000E+03 0.  0.
</event>
<event>
 5    0  0.6009929E-005  0.3392862E+03  0.7546771E-02  0.1067100E+00
         21   -1    0    0  502  501  0.00000000000E+00  0.00000000000E+00  0.20524387862E+03  0.20524387862E+03  0.00000000000E+00 0. -1.
         21   -1    0    0  501  502 -0.00000000000E+00 -0.00000000000E+00 -0.56087007386E+03  0.56087007386E+03  0.00000000000E+00 0. -1.
         25    1    1    2    0    0 -0.12045057130E+03  0.84209145543E+02 -0.12822807273E+03  0.23166130224E+03  0.12500000000E+03 0.  0.
         25    1    1    2    0    0  0.21588454169E+03 -0.38703169881E+02  0.22075664328E+01  0.25245582593E+03  0.12500000000E+03 0.  0.
         25    1    1    2    0    0 -0.95433970383E+02 -0.45505975661E+02 -0.22960568894E+03  0.28199682430E+03  0.12500000000E+03 0.  0.
</event>
<event>
 5    0  0.5597833E-005  0.2171835E+03  0.7546771E-02  0.1136000E+00
         21   -1    0    0  502  501  0.00000000000E+00  0.00000000000E+00  0.81341778482E+03  0.81341778482E+03  0.00000000000E+00 0. -1.
         21   -1    0    0  501  502 -0.00000000000E+00 -0.00000000000E+00 -0.57988238908E+02  0.57988238908E+02  0.00000000000E+00 0. -1.
         25    1    1    2    0    0  0.50707839374E+02 -0.48709612039E+02  0.39647281563E+03  0.42161547032E+03  0.12500000000E+03 0.  0.
         25    1    1    2    0    0 -0.13268430817E+02  0.28010191505E+01  0.12070661562E+03  0.17429567987E+03  0.12500000000E+03 0.  0.
         25    1    1    2    0    0 -0.37439408557E+02  0.45908592888E+02  0.23825011466E+03  0.27549487354E+03  0.12500000000E+03 0.  0.
</event>
<event>
 5    0  0.5597833E-005  0.2777450E+03  0.7546771E-02  0.1096927E+00
         21   -1    0    0  502  501  0.00000000000E+00  0.00000000000E+00  0.72812264528E+03  0.72812264528E+03  0.00000000000E+00 0.  1.
         21   -1    0    0  501  502 -0.00000000000E+00 -0.00000000000E+00 -0.10594685632E+03  0.10594685632E+03  0.00000000000E+00 0.  1.
         25    1    1    2    0    0  0.21488408428E+02  0.91473538861E+02  0.19840261949E+03  0.25262177149E+03  0.12500000000E+03 0.  0.
         25    1    1    2    0    0  0.80097548860E+02 -0.15438757545E+03  0.16571927634E+03  0.27081177843E+03  0.12500000000E+03 0.  0.
         25    1    1    2    0    0 -0.10158595729E+03  0.62914036591E+02  0.25805389313E+03  0.31063595168E+03  0.12500000000E+03 0.  0.
</event>
<event>
 5    0  0.5597833E-005  0.4364047E+03  0.7546771E-02  0.1031856E+00
         21   -1    0    0  502  501  0.00000000000E+00  0.00000000000E+00  0.40233689045E+03  0.40233689045E+03  0.00000000000E+00 0. -1.
         21   -1    0    0  501  502 -0.00000000000E+00 -0.00000000000E+00 -0.47335713348E+03  0.47335713348E+03  0.00000000000E+00 0. -1.
         25    1    1    2    0    0 -0.57440105243E+02 -0.22320323709E+03  0.24946306307E+01  0.26220273438E+03  0.12500000000E+03 0.  0.
         25    1    1    2    0    0  0.26377695691E+03  0.84419646518E+02 -0.12829678363E+03  0.32983332822E+03  0.12500000000E+03 0.  0.
         25    1    1    2    0    0 -0.20633685167E+03  0.13878359057E+03  0.54781909965E+02  0.28365796133E+03  0.12500000000E+03 0.  0.
</event>
<event>
 5    0  0.6033434E-005  0.2681885E+03  0.7546771E-02  0.1102321E+00
         21   -1    0    0  502  501  0.00000000000E+00  0.00000000000E+00  0.15206609016E+03  0.15206609016E+03  0.00000000000E+00 0. -1.
         21   -1    0    0  501  502 -0.00000000000E+00 -0.00000000000E+00 -0.47298572953E+03  0.47298572953E+03  0.00000000000E+00 0. -1.
         25    1    1    2    0    0 -0.13996494597E+02  0.10328281610E+03 -0.43183288025E+02  0.16838360469E+03  0.12500000000E+03 0.  0.
         25    1    1    2    0    0  0.61070982862E+02 -0.61418823742E+02 -0.27778821154E+03  0.31669105975E+03  0.12500000000E+03 0.  0.
         25    1    1    2    0    0 -0.47074488265E+02 -0.41863992358E+02  0.51860198177E-01  0.13997715525E+03  0.12500000000E+03 0.  0.
</event>
<event>
 5    0  0.5597833E-005  0.2343147E+03  0.7546771E-02  0.1123639E+00
         21   -1    0    0  502  501  0.00000000000E+00  0.00000000000E+00  0.55268611235E+03  0.55268611235E+03  0.00000000000E+00 0. -1.
         21   -1    0    0  501  502 -0.00000000000E+00 -0.00000000000E+00 -0.99339179737E+02  0.99339179737E+02  0.00000000000E+00 0. -1.
         25    1    1    2    0    0  0.60645513372E+02  0.45655442426E+02  0.12997544792E+03  0.19565509136E+03  0.12500000000E+03 0.  0.
         25    1    1    2    0    0  0.84148376079E+01 -0.67009304691E+02  0.56423595545E+02  0.15287144449E+03  0.12500000000E+03 0.  0.
         25    1    1    2    0    0 -0.69060350980E+02  0.21353862265E+02  0.26694788915E+03  0.30349875623E+03  0.12500000000E+03 0.  0.
</event>
<event>
 5    0  0.5597833E-005  0.2889005E+03  0.7546771E-02  0.1090925E+00
         21   -1    0    0  502  501  0.00000000000E+00  0.00000000000E+00  0.11098178126E+03  0.11098178126E+03  0.00000000000E+00 0.  1.
         21   -1    0    0  501  502 -0.00000000000E+00 -0.00000000000E+00 -0.75204700877E+03  0.75204700877E+03  0.00000000000E+00 0.  1.
         25    1    1    2    0    0 -0.17587851091E+02 -0.80770769473E+02 -0.54652165024E+02  0.15951523077E+03  0.12500000000E+03 0.  0.
         25    1    1    2    0    0 -0.69427319757E+02  0.76622427541E+02 -0.92732805699E+02  0.18685695701E+03  0.12500000000E+03 0.  0.
         25    1    1    2    0    0  0.87015170848E+02  0.41483419315E+01 -0.49368025679E+03  0.51665660224E+03  0.12500000000E+03 0.  0.
</event>
<event>
 5    0  0.5597833E-005  0.2930669E+03  0.7546771E-02  0.1088759E+00
         21   -1    0    0  502  501  0.00000000000E+00  0.00000000000E+00  0.34268179536E+02  0.34268179536E+02  0.00000000000E+00 0.  1.
         21   -1    0    0  501  502 -0.00000000000E+00 -0.00000000000E+00 -0.25063541019E+04  0.25063541019E+04  0.00000000000E+00 0.  1.
         25    1    1    2    0    0 -0.58757459681E+02 -0.44840031248E+02 -0.50551758584E+03  0.52596206808E+03  0.12500000000E+03 0.  0.
         25    1    1    2    0    0 -0.13892982544E+03 -0.31763199279E+02 -0.94934832725E+03  0.96808968783E+03  0.12500000000E+03 0.  0.
         25    1    1    2    0    0  0.19768728512E+03  0.76603230527E+02 -0.10172200093E+04  0.10465705255E+04  0.12500000000E+03 0.  0.
</event>
<event>
 5    0  0.5597833E-005  0.3773432E+03  0.7546771E-02  0.1051920E+00
         21   -1    0    0  502  501  0.00000000000E+00  0.00000000000E+00  0.39077304664E+03  0.39077304664E+03  0.00000000000E+00 0.  1.
         21   -1    0    0  501  502 -0.00000000000E+00 -0.00000000000E+00 -0.36437489855E+03  0.36437489855E+03  0.00000000000E+00 0.  1.
         25    1    1    2    0    0  0.21476096382E+03  0.10070926715E+02 -0.20220506847E+03  0.32052392245E+03  0.12500000000E+03 0.  0.
         25    1    1    2    0    0 -0.14092183389E+03  0.61235885533E+02  0.75707595624E+02  0.21205055289E+03  0.12500000000E+03 0.  0.
         25    1    1    2    0    0 -0.73839129934E+02 -0.71306812248E+02  0.15289562094E+03  0.22257346986E+03  0.12500000000E+03 0.  0.
</event>
<event>
 5    0  0.5597833E-005  0.3756482E+03  0.7546771E-02  0.1052554E+00
         21   -1    0    0  502  501  0.00000000000E+00  0.00000000000E+00  0.24835186250E+03  0.24835186250E+03  0.00000000000E+00 0.  1.
         21   -1    0    0  501  502 -0.00000000000E+00 -0.00000000000E+00 -0.56819208513E+03  0.56819208513E+03  0.00000000000E+00 0.  1.
         25    1    1    2    0    0 -0.83762493911E+02 -0.72524634351E+02 -0.10427104032E+03  0.19690969459E+03  0.12500000000E+03 0.  0.
         25    1    1    2    0    0  0.27114794633E+03  0.32530122306E+02  0.70467513145E+01  0.30042315882E+03  0.12500000000E+03 0.  0.
         25    1    1    2    0    0 -0.18738545241E+03  0.39994512044E+02 -0.22261593362E+03  0.31921109422E+03  0.12500000000E+03 0.  0.
</event>
<event>
 5    0  0.5597833E-005  0.2235761E+03  0.7546771E-02  0.1131245E+00
         21   -1    0    0  502  501  0.00000000000E+00  0.00000000000E+00  0.50828234355E+03  0.50828234355E+03  0.00000000000E+00 0.  1.
         21   -1    0    0  501  502 -0.00000000000E+00 -0.00000000000E+00 -0.98343553099E+02  0.98343553099E+02  0.00000000000E+00 0.  1.
         25    1    1    2    0    0 -0.38522513217E+02 -0.39300172688E+02  0.41537078988E+02  0.14275439233E+03  0.12500000000E+03 0.  0.
         25    1    1    2    0    0 -0.38292106791E+02  0.59919536713E+01  0.15684047734E+03  0.20426973414E+03  0.12500000000E+03 0.  0.
         25    1    1    2    0    0  0.76814620008E+02  0.33308219017E+02  0.21156123412E+03  0.25960177019E+03  0.12500000000E+03 0.  0.
</event>
<event>
 5    0  0.5597833E-005  0.3960316E+03  0.7546771E-02  0.1045163E+00
         21   -1    0    0  502  501  0.00000000000E+00  0.00000000000E+00  0.35211855497E+03  0.35211855497E+03  0.00000000000E+00 0. -1.
         21   -1    0    0  501  502 -0.00000000000E+00 -0.00000000000E+00 -0.44542116745E+03  0.44542116745E+03  0.00000000000E+00 0. -1.
         25    1    1    2    0    0  0.18109872395E+02  0.85634777461E+02 -0.20121841711E+03  0.25253739124E+03  0.12500000000E+03 0.  0.
         25    1    1    2    0    0 -0.15786948529E+03  0.92764549506E+02 -0.68192967032E+02  0.23195541982E+03  0.12500000000E+03 0.  0.
         25    1    1    2    0    0  0.13975961290E+03 -0.17839932697E+03  0.17610877166E+03  0.31304691136E+03  0.12500000000E+03 0.  0.
</event>
<event>
 5    0  0.7168014E-005  0.2909647E+03  0.7546771E-02  0.1089847E+00
         21   -1    0    0  502  501  0.00000000000E+00  0.00000000000E+00  0.18784421656E+03  0.18784421656E+03  0.00000000000E+00 0. -1.
         21   -1    0    0  501  502 -0.00000000000E+00 -0.00000000000E+00 -0.45069501315E+03  0.45069501315E+03  0.00000000000E+00 0. -1.
         25    1    1    2    0    0  0.40272717837E+02 -0.65389304002E+02 -0.19752427342E+03  0.24604571012E+03  0.12500000000E+03 0.  0.
         25    1    1    2    0    0  0.46263869450E+02  0.12145791121E+03  0.57379783264E+02  0.18923479949E+03  0.12500000000E+03 0.  0.
         25    1    1    2    0    0 -0.86536587287E+02 -0.56068607204E+02 -0.12270630644E+03  0.20325872009E+03  0.12500000000E+03 0.  0.
</event>
<event>
 5    0  0.5597833E-005  0.3550166E+03  0.7546771E-02  0.1060575E+00
         21   -1    0    0  502  501  0.00000000000E+00  0.00000000000E+00  0.34778570899E+03  0.34778570899E+03  0.00000000000E+00 0.  1.
         21   -1    0    0  501  502 -0.00000000000E+00 -0.00000000000E+00 -0.36239792455E+03  0.36239792455E+03  0.00000000000E+00 0.  1.
         25    1    1    2    0    0 -0.17769097032E+03  0.41867928731E+02 -0.52364892485E+02  0.22736333556E+03  0.12500000000E+03 0.  0.
         25    1    1    2    0    0 -0.78473817677E+02  0.83486191382E+02  0.40082659527E+01  0.16961471165E+03  0.12500000000E+03 0.  0.
         25    1    1    2    0    0  0.25616478800E+03 -0.12535412011E+03  0.33744410971E+02  0.31320558634E+03  0.12500000000E+03 0.  0.
</event>
<event>
 5    0  0.5597833E-005  0.2277619E+03  0.7546771E-02  0.1128225E+00
         21   -1    0    0  502  501  0.00000000000E+00  0.00000000000E+00  0.14642123670E+03  0.14642123670E+03  0.00000000000E+00 0.  1.
         21   -1    0    0  501  502 -0.00000000000E+00 -0.00000000000E+00 -0.35428926179E+03  0.35428926179E+03  0.00000000000E+00 0.  1.
         25    1    1    2    0    0  0.21536356532E+02  0.15290905539E+02 -0.13365255390E+03  0.18489356833E+03  0.12500000000E+03 0.  0.
         25    1    1    2    0    0 -0.88331377811E+02 -0.15443460941E+02 -0.81133130899E+02  0.17392101001E+03  0.12500000000E+03 0.  0.
         25    1    1    2    0    0  0.66795021278E+02  0.15255540185E+00  0.69176597035E+01  0.14189592015E+03  0.12500000000E+03 0.  0.
</event>
<event>
 5    0  0.5597833E-005  0.4353959E+03  0.7546771E-02  0.1032169E+00
         21   -1    0    0  502  501  0.00000000000E+00  0.00000000000E+00  0.10717049562E+04  0.10717049562E+04  0.00000000000E+00 0. -1.
         21   -1    0    0  501  502 -0.00000000000E+00 -0.00000000000E+00 -0.17688594822E+03  0.17688594822E+03  0.00000000000E+00 0. -1.
         25    1    1    2    0    0 -0.93296964881E+02  0.75247507059E+02  0.60908417045E+03  0.63322589782E+03  0.12500000000E+03 0.  0.
         25    1    1    2    0    0 -0.14335496900E+03  0.91775298405E+02  0.19414050670E+03  0.28686039963E+03  0.12500000000E+03 0.  0.
         25    1    1    2    0    0  0.23665193388E+03 -0.16702280546E+03  0.91594330830E+02  0.32850460696E+03  0.12500000000E+03 0.  0.
</event>
<event>
 5    0  0.5597833E-005  0.3345273E+03  0.7546771E-02  0.1069151E+00
         21   -1    0    0  502  501  0.00000000000E+00  0.00000000000E+00  0.25270281157E+04  0.25270281157E+04  0.00000000000E+00 0. -1.
         21   -1    0    0  501  502 -0.00000000000E+00 -0.00000000000E+00 -0.44284646494E+02  0.44284646494E+02  0.00000000000E+00 0. -1.
         25    1    1    2    0    0 -0.13003530179E+03 -0.72748663477E+02  0.33984569702E+03  0.39156307989E+03  0.12500000000E+03 0.  0.
         25    1    1    2    0    0  0.16122131482E+03  0.59150230194E+02  0.18118357712E+04  0.18242436580E+04  0.12500000000E+03 0.  0.
         25    1    1    2    0    0 -0.31186013034E+02  0.13598433283E+02  0.33106200100E+03  0.35550602429E+03  0.12500000000E+03 0.  0.
</event>
<event>
 5    0  0.5597833E-005  0.3272464E+03  0.7546771E-02  0.1072362E+00
         21   -1    0    0  502  501  0.00000000000E+00  0.00000000000E+00  0.34556031649E+03  0.34556031649E+03  0.00000000000E+00 0. -1.
         21   -1    0    0  501  502 -0.00000000000E+00 -0.00000000000E+00 -0.30990312165E+03  0.30990312165E+03  0.00000000000E+00 0. -1.
         25    1    1    2    0    0  0.14812111815E+02  0.53647129557E+02  0.20606728275E+03  0.24735831942E+03  0.12500000000E+03 0.  0.
         25    1    1    2    0    0 -0.10168339882E+03 -0.11711835565E+03 -0.13137926159E+03  0.23862467015E+03  0.12500000000E+03 0.  0.
         25    1    1    2    0    0  0.86871287007E+02  0.63471226092E+02 -0.39030826310E+02  0.16948044858E+03  0.12500000000E+03 0.  0.
</event>
<event>
 5    0  0.5597833E-005  0.3096033E+03  0.7546771E-02  0.1080536E+00
         21   -1    0    0  502  501  0.00000000000E+00  0.00000000000E+00  0.84734845800E+02  0.84734845800E+02  0.00000000000E+00 0. -1.
         21   -1    0    0  501  502 -0.00000000000E+00 -0.00000000000E+00 -0.11312253535E+04  0.11312253535E+04  0.00000000000E+00 0. -1.
         25    1    1    2    0    0 -0.10688021404E+03  0.15742565835E+03 -0.17690474992E+03  0.28831668111E+03  0.12500000000E+03 0.  0.
         25    1    1    2    0    0  0.49114146784E+02 -0.11108300738E+03 -0.54066168008E+03  0.56805957984E+03  0.12500000000E+03 0.  0.
         25    1    1    2    0    0  0.57766067261E+02 -0.46342650970E+02 -0.32892407768E+03  0.35958393833E+03  0.12500000000E+03 0.  0.
</event>
<event>
 5    0  0.5597833E-005  0.3147850E+03  0.7546771E-02  0.1078075E+00
         21   -1    0    0  502  501  0.00000000000E+00  0.00000000000E+00  0.27429023493E+03  0.27429023493E+03  0.00000000000E+00 0. -1.
         21   -1    0    0  501  502 -0.00000000000E+00 -0.00000000000E+00 -0.36125828107E+03  0.36125828107E+03  0.00000000000E+00 0. -1.
         25    1    1    2    0    0 -0.71127094149E+02  0.70849600330E+02  0.42302078975E+02  0.16581072123E+03  0.12500000000E+03 0.  0.
         25    1    1    2    0    0 -0.18858039745E+02  0.14020967742E+03 -0.73386901902E+02  0.20254633217E+03  0.12500000000E+03 0.  0.
         25    1    1    2    0    0  0.89985133894E+02 -0.21105927775E+03 -0.55883223219E+02  0.26719146260E+03  0.12500000000E+03 0.  0.
</event>
<event>
 5    0  0.5597833E-005  0.4571117E+03  0.7546771E-02  0.1025622E+00
         21   -1    0    0  502  501  0.00000000000E+00  0.00000000000E+00  0.10475216561E+03  0.10475216561E+03  0.00000000000E+00 0.  1.
         21   -1    0    0  501  502 -0.00000000000E+00 -0.00000000000E+00 -0.19947189705E+04  0.19947189705E+04  0.00000000000E+00 0.  1.
         25    1    1    2    0    0 -0.24350548712E+03  0.12536937162E+03 -0.47305266673E+03  0.56072830060E+03  0.12500000000E+03 0.  0.
         25    1    1    2    0    0  0.18620596516E+03  0.16089978448E+03 -0.54751873390E+03  0.61315835319E+03  0.12500000000E+03 0.  0.
         25    1    1    2    0    0  0.57299521970E+02 -0.28626915611E+03 -0.86939540428E+03  0.92558448233E+03  0.12500000000E+03 0.  0.
</event>
<event>
 5    0  0.5597833E-005  0.2513077E+03  0.7546771E-02  0.1112481E+00
         21   -1    0    0  502  501  0.00000000000E+00  0.00000000000E+00  0.23868068440E+03  0.23868068440E+03  0.00000000000E+00 0.  1.
         21   -1    0    0  501  502 -0.00000000000E+00 -0.00000000000E+00 -0.26460263073E+03  0.26460263073E+03  0.00000000000E+00 0.  1.
         25    1    1    2    0    0  0.76524133935E+02 -0.75135741213E+01 -0.57728315378E+02  0.15770210927E+03  0.12500000000E+03 0.  0.
         25    1    1    2    0    0 -0.13122456321E+03  0.50179017731E+02 -0.28915541133E+02  0.19026015959E+03  0.12500000000E+03 0.  0.
         25    1    1    2    0    0  0.54700429270E+02 -0.42665443609E+02  0.60721910180E+02  0.15532104628E+03  0.12500000000E+03 0.  0.
</event>
<event>
 5    0  0.5597833E-005  0.3649222E+03  0.7546771E-02  0.1056652E+00
         21   -1    0    0  502  501  0.00000000000E+00  0.00000000000E+00  0.32446787194E+03  0.32446787194E+03  0.00000000000E+00 0.  1.
         21   -1    0    0  501  502 -0.00000000000E+00 -0.00000000000E+00 -0.41042023845E+03  0.41042023845E+03  0.00000000000E+00 0.  1.
         25    1    1    2    0    0  0.20225627898E+02 -0.16378934475E+02 -0.54592721019E+01  0.12779729719E+03  0.12500000000E+03 0.  0.
         25    1    1    2    0    0 -0.26641377434E+02  0.75261373538E+02  0.22628955763E+03  0.27056607553E+03  0.12500000000E+03 0.  0.
         25    1    1    2    0    0  0.64157495360E+01 -0.58882439063E+02 -0.30678265203E+03  0.33652473766E+03  0.12500000000E+03 0.  0.
</event>
<event>
 5    0  0.5597833E-005  0.2862355E+03  0.7546771E-02  0.1092331E+00
         21   -1    0    0  502  501  0.00000000000E+00  0.00000000000E+00  0.35363667960E+03  0.35363667960E+03  0.00000000000E+00 0.  1.
         21   -1    0    0  501  502 -0.00000000000E+00 -0.00000000000E+00 -0.23168058129E+03  0.23168058129E+03  0.00000000000E+00 0.  1.
         25    1    1    2    0    0 -0.46221024289E+02 -0.71761327141E+02 -0.16184048159E+02  0.15222678665E+03  0.12500000000E+03 0.  0.
         25    1    1    2    0    0  0.50264705345E+02 -0.46855117966E+02 -0.73234684286E+02  0.16034419748E+03  0.12500000000E+03 0.  0.
         25    1    1    2    0    0 -0.40436810561E+01  0.11861644511E+03  0.21137483075E+03  0.27274627675E+03  0.12500000000E+03 0.  0.
</event>
<event>
 5    0  0.5597833E-005  0.3070000E+03  0.7546771E-02  0.1081793E+00
         21   -1    0    0  502  501  0.00000000000E+00  0.00000000000E+00  0.20650207863E+03  0.20650207863E+03  0.00000000000E+00 0.  1.
         21   -1    0    0  501  502 -0.00000000000E+00 -0.00000000000E+00 -0.45640702109E+03  0.45640702109E+03  0.00000000000E+00 0.  1.
         25    1    1    2    0    0 -0.35533880361E+02  0.87839755790E+02 -0.12426758427E+03  0.20011474671E+03  0.12500000000E+03 0.  0.
         25    1    1    2    0    0  0.15297418111E+03  0.29620071311E+02  0.31472784410E+02  0.20222261216E+03  0.12500000000E+03 0.  0.
         25    1    1    2    0    0 -0.11744030075E+03 -0.11745982710E+03 -0.15711014261E+03  0.26057174085E+03  0.12500000000E+03 0.  0.
</event>
<event>
 5    0  0.5597833E-005  0.2701232E+03  0.7546771E-02  0.1101209E+00
         21   -1    0    0  502  501  0.00000000000E+00  0.00000000000E+00  0.79311525129E+02  0.79311525129E+02  0.00000000000E+00 0.  1.
         21   -1    0    0  501  502 -0.00000000000E+00 -0.00000000000E+00 -0.91999947287E+03  0.91999947287E+03  0.00000000000E+00 0.  1.
         25    1    1    2    0    0 -0.12307280139E+03  0.95717554836E+02 -0.21758292968E+03  0.29542527995E+03  0.12500000000E+03 0.  0.
         25    1    1    2    0    0  0.11695944894E+03 -0.30375208409E+02 -0.24613938308E+03  0.30134989943E+03  0.12500000000E+03 0.  0.
         25    1    1    2    0    0  0.61133524460E+01 -0.65342346427E+02 -0.37696563499E+03  0.40253581862E+03  0.12500000000E+03 0.  0.
</event>
<event>
 5    0  0.5597833E-005  0.2947095E+03  0.7546771E-02  0.1087916E+00
         21   -1    0    0  502  501  0.00000000000E+00  0.00000000000E+00  0.59256653295E+02  0.59256653295E+02  0.00000000000E+00 0. -1.
         21   -1    0    0  501  502 -0.00000000000E+00 -0.00000000000E+00 -0.14657202966E+04  0.14657202966E+04  0.00000000000E+00 0. -1.
         25    1    1    2    0    0  0.17095567053E+02 -0.31017004646E+02 -0.37950321405E+03  0.40112591847E+03  0.12500000000E+03 0.  0.
         25    1    1    2    0    0  0.13358094695E+03 -0.30661602877E+02 -0.78469091089E+03  0.80631806932E+03  0.12500000000E+03 0.  0.
         25    1    1    2    0    0 -0.15067651400E+03  0.61678607523E+02 -0.24226951837E+03  0.31753296211E+03  0.12500000000E+03 0.  0.
</event>
<event>
 5    0  0.5597833E-005  0.3622934E+03  0.7546771E-02  0.1057679E+00
         21   -1    0    0  502  501  0.00000000000E+00  0.00000000000E+00  0.11836366820E+03  0.11836366820E+03  0.00000000000E+00 0. -1.
         21   -1    0    0  501  502 -0.00000000000E+00 -0.00000000000E+00 -0.11089254250E+04  0.11089254250E+04  0.00000000000E+00 0. -1.
         25    1    1    2    0    0 -0.11133307091E+03  0.11474220385E+03 -0.34131129750E+03  0.39708843829E+03  0.12500000000E+03 0.  0.
         25    1    1    2    0    0 -0.60015070146E+02 -0.11106290280E+03 -0.58070393425E+03  0.60727163302E+03  0.12500000000E+03 0.  0.
         25    1    1    2    0    0  0.17134814105E+03 -0.36793010504E+01 -0.68546525025E+02  0.22292902187E+03  0.12500000000E+03 0.  0.
</event>
<event>
 5    0  0.5597833E-005  0.3405854E+03  0.7546771E-02  0.1066547E+00
         21   -1    0    0  502  501  0.00000000000E+00  0.00000000000E+00  0.19780818092E+03  0.19780818092E+03  0.00000000000E+00 0.  1.
         21   -1    0    0  501  502 -0.00000000000E+00 -0.00000000000E+00 -0.58641856607E+03  0.58641856607E+03  0.00000000000E+00 0.  1.
         25    1    1    2    0    0 -0.29832229794E+02  0.19905799110E+03 -0.87064731357E+02  0.25242684723E+03  0.12500000000E+03 0.  0.
         25    1    1    2    0    0  0.19565690961E+02  0.42601585299E+02 -0.11516395313E+02  0.13399753242E+03  0.12500000000E+03 0.  0.
         25    1    1    2    0    0  0.10266538833E+02 -0.24165957640E+03 -0.29002925849E+03  0.39780236734E+03  0.12500000000E+03 0.  0.
</event>
<event>
 5    0  0.5597833E-005  0.2703933E+03  0.7546771E-02  0.1101055E+00
         21   -1    0    0  502  501  0.00000000000E+00  0.00000000000E+00  0.18163870658E+03  0.18163870658E+03  0.00000000000E+00 0. -1.
         21   -1    0    0  501  502 -0.00000000000E+00 -0.00000000000E+00 -0.40251631128E+03  0.40251631128E+03  0.00000000000E+00 0. -1.
         25    1    1    2    0    0  0.10516165575E+03 -0.12179817775E+03 -0.67769612175E+02  0.21473586165E+03  0.12500000000E+03 0.  0.
         25    1    1    2    0    0  0.30445834686E+02  0.56340290812E+02 -0.66972443887E+02  0.15560040314E+03  0.12500000000E+03 0.  0.
         25    1    1    2    0    0 -0.13560749044E+03  0.65457886943E+02 -0.86135548635E+02  0.21381875307E+03  0.12500000000E+03 0.  0.
</event>
<event>
 5    0  0.5597833E-005  0.2888205E+03  0.7546771E-02  0.1090967E+00
         21   -1    0    0  502  501  0.00000000000E+00  0.00000000000E+00  0.45024098385E+03  0.45024098385E+03  0.00000000000E+00 0.  1.
         21   -1    0    0  501  502 -0.00000000000E+00 -0.00000000000E+00 -0.18527246414E+03  0.18527246414E+03  0.00000000000E+00 0.  1.
         25    1    1    2    0    0 -0.94639257352E+02  0.85907041061E+02 -0.72405049079E+01  0.17892465914E+03  0.12500000000E+03 0.  0.
         25    1    1    2    0    0  0.92385285547E+02  0.31789892418E+02  0.23061482526E+03  0.27991755192E+03  0.12500000000E+03 0.  0.
         25    1    1    2    0    0  0.22539718053E+01 -0.11769693348E+03  0.41594199357E+02  0.17667123693E+03  0.12500000000E+03 0.  0.
</event>
<event>
 5    0  0.5597833E-005  0.2408608E+03  0.7546771E-02  0.1119221E+00
         21   -1    0    0  502  501  0.00000000000E+00  0.00000000000E+00  0.20865263824E+03  0.20865263824E+03  0.00000000000E+00 0.  1.
         21   -1    0    0  501  502 -0.00000000000E+00 -0.00000000000E+00 -0.27804072148E+03  0.27804072148E+03  0.00000000000E+00 0.  1.
         25    1    1    2    0    0  0.10297778063E+02  0.62519402166E+02  0.85653851200E+02  0.16424464103E+03  0.12500000000E+03 0.  0.
         25    1    1    2    0    0 -0.47855049432E+02  0.72575393721E+01 -0.84888591987E+02  0.15866269468E+03  0.12500000000E+03 0.  0.
         25    1    1    2    0    0  0.37557271369E+02 -0.69776941538E+02 -0.70153342461E+02  0.16378602401E+03  0.12500000000E+03 0.  0.
</event>
<event>
 5    0  0.5597833E-005  0.2708701E+03  0.7546771E-02  0.1100783E+00
         21   -1    0    0  502  501  0.00000000000E+00  0.00000000000E+00  0.11828084836E+03  0.11828084836E+03  0.00000000000E+00 0. -1.
         21   -1    0    0  501  502 -0.00000000000E+00 -0.00000000000E+00 -0.62030854700E+03  0.62030854700E+03  0.00000000000E+00 0. -1.
         25    1    1    2    0    0 -0.74649186703E+02 -0.71932061952E+02 -0.97834269129E+02  0.18958709563E+03  0.12500000000E+03 0.  0.
         25    1    1    2    0    0  0.67925223125E+02 -0.46433477232E+02 -0.32819575572E+03  0.36070397533E+03  0.12500000000E+03 0.  0.
         25    1    1    2    0    0  0.67239635776E+01  0.11836553918E+03 -0.75997673788E+02  0.18829832440E+03  0.12500000000E+03 0.  0.
</event>
<event>
 5    0  0.5597833E-005  0.3069706E+03  0.7546771E-02  0.1081807E+00
         21   -1    0    0  502  501  0.00000000000E+00  0.00000000000E+00  0.21321097890E+03  0.21321097890E+03  0.00000000000E+00 0.  1.
         21   -1    0    0  501  502 -0.00000000000E+00 -0.00000000000E+00 -0.44196117219E+03  0.44196117219E+03  0.00000000000E+00 0.  1.
         25    1    1    2    0    0  0.11801042858E+02  0.14900652249E+03 -0.29826810087E+02  0.19712140157E+03  0.12500000000E+03 0.  0.
         25    1    1    2    0    0  0.19974326320E+02 -0.39201223443E+02  0.62525094112E+02  0.14652677921E+03  0.12500000000E+03 0.  0.
         25    1    1    2    0    0 -0.31775369178E+02 -0.10980529905E+03 -0.26144847732E+03  0.31152397031E+03  0.12500000000E+03 0.  0.
</event>
<event>
 5    0  0.7487813E-005  0.4010895E+03  0.7546771E-02  0.1043403E+00
         21   -1    0    0  502  501  0.00000000000E+00  0.00000000000E+00  0.85115234601E+03  0.85115234601E+03  0.00000000000E+00 0. -1.
         21   -1    0    0  501  502 -0.00000000000E+00 -0.00000000000E+00 -0.18900582138E+03  0.18900582138E+03  0.00000000000E+00 0. -1.
         25    1    1    2    0    0 -0.19288455735E+03  0.10174454089E+03  0.12982338100E+03  0.28290548655E+03  0.12500000000E+03 0.  0.
         25    1    1    2    0    0  0.94742177219E+02 -0.33871255595E+02  0.55973457712E+03  0.58228097936E+03  0.12500000000E+03 0.  0.
         25    1    1    2    0    0  0.98142380129E+02 -0.67873285300E+02 -0.27411433489E+02  0.17497170149E+03  0.12500000000E+03 0.  0.
</event>
<event>
 5    0  0.5597833E-005  0.2670247E+03  0.7546771E-02  0.1102995E+00
         21   -1    0    0  502  501  0.00000000000E+00  0.00000000000E+00  0.80810847645E+02  0.80810847645E+02  0.00000000000E+00 0. -1.
         21   -1    0    0  501  502 -0.00000000000E+00 -0.00000000000E+00 -0.88233419677E+03  0.88233419677E+03  0.00000000000E+00 0. -1.
         25    1    1    2    0    0  0.10858781928E+03 -0.23732825979E+02 -0.34905687031E+03  0.38706622203E+03  0.12500000000E+03 0.  0.
         25    1    1    2    0    0 -0.10354674974E+03 -0.91571036590E+02 -0.23086830359E+03  0.29670247341E+03  0.12500000000E+03 0.  0.
         25    1    1    2    0    0 -0.50410695444E+01  0.11530386257E+03 -0.22159817522E+03  0.27937634898E+03  0.12500000000E+03 0.  0.
</event>
<event>
 5    0  0.5597833E-005  0.3691445E+03  0.7546771E-02  0.1055021E+00
         21   -1    0    0  502  501  0.00000000000E+00  0.00000000000E+00  0.43688689410E+03  0.43688689410E+03  0.00000000000E+00 0.  1.
         21   -1    0    0  501  502 -0.00000000000E+00 -0.00000000000E+00 -0.31190596308E+03  0.31190596308E+03  0.00000000000E+00 0.  1.
         25    1    1    2    0    0 -0.11930776517E+03  0.10487231404E+03 -0.16204268287E+03  0.25906635473E+03  0.12500000000E+03 0.  0.
         25    1    1    2    0    0  0.65085916895E+02 -0.45705872808E+02  0.30599454311E+03  0.33997479878E+03  0.12500000000E+03 0.  0.
         25    1    1    2    0    0  0.54221848276E+02 -0.59166441232E+02 -0.18970929222E+02  0.14975170368E+03  0.12500000000E+03 0.  0.
</event>
<event>
 5    0  0.5597833E-005  0.3473675E+03  0.7546771E-02  0.1063701E+00
         21   -1    0    0  502  501  0.00000000000E+00  0.00000000000E+00  0.30184403555E+04  0.30184403555E+04  0.00000000000E+00 0. -1.
         21   -1    0    0  501  502 -0.00000000000E+00 -0.00000000000E+00 -0.39975680183E+02  0.39975680183E+02  0.00000000000E+00 0. -1.
         25    1    1    2    0    0 -0.15775472323E+03  0.10348385436E+03  0.11013757464E+04  0.11243882761E+04  0.12500000000E+03 0.  0.
         25    1    1    2    0    0  0.15881504613E+03  0.79209731242E+02  0.12571044301E+04  0.12757088024E+04  0.12500000000E+03 0.  0.
         25    1    1    2    0    0 -0.10603228967E+01 -0.18269358560E+03  0.61998449888E+03  0.65831895716E+03  0.12500000000E+03 0.  0.
</event>
<event>
 5    0  0.5597833E-005  0.3126534E+03  0.7546771E-02  0.1079081E+00
         21   -1    0    0  502  501  0.00000000000E+00  0.00000000000E+00  0.30716061720E+03  0.30716061720E+03  0.00000000000E+00 0.  1.
         21   -1    0    0  501  502 -0.00000000000E+00 -0.00000000000E+00 -0.31824437566E+03  0.31824437566E+03  0.00000000000E+00 0.  1.
         25    1    1    2    0    0 -0.78581683163E+02 -0.10567012461E+03 -0.53302554855E+02  0.18922848231E+03  0.12500000000E+03 0.  0.
         25    1    1    2    0    0  0.10688843997E+02 -0.11183995881E+03  0.52500793733E+02  0.17607884914E+03  0.12500000000E+03 0.  0.
         25    1    1    2    0    0  0.67892839166E+02  0.21751008342E+03 -0.10281997346E+02  0.26009766141E+03  0.12500000000E+03 0.  0.
</event>
<event>
 5    0  0.5597833E-005  0.3365237E+03  0.7546771E-02  0.1068286E+00
         21   -1    0    0  502  501  0.00000000000E+00  0.00000000000E+00  0.92360205080E+03  0.92360205080E+03  0.00000000000E+00 0.  1.
         21   -1    0    0  501  502 -0.00000000000E+00 -0.00000000000E+00 -0.12261576632E+03  0.12261576632E+03  0.00000000000E+00 0.  1.
         25    1    1    2    0    0  0.41103937450E+02 -0.46470187571E+02  0.12137382255E+03  0.18494760557E+03  0.12500000000E+03 0.  0.
         25    1    1    2    0    0 -0.10559186784E+03 -0.13921704892E+03  0.55918768726E+03  0.59903831167E+03  0.12500000000E+03 0.  0.
         25    1    1    2    0    0  0.64487930391E+02  0.18568723649E+03  0.12042477467E+03  0.26223189988E+03  0.12500000000E+03 0.  0.
</event>
<event>
 5    0  0.5597833E-005  0.2633861E+03  0.7546771E-02  0.1105126E+00
         21   -1    0    0  502  501  0.00000000000E+00  0.00000000000E+00  0.67874096311E+03  0.67874096311E+03  0.00000000000E+00 0. -1.
         21   -1    0    0  501  502 -0.00000000000E+00 -0.00000000000E+00 -0.10220722661E+03  0.10220722661E+03  0.00000000000E+00 0. -1.
         25    1    1    2    0    0  0.39556071307E+02  0.82730862128E+02  0.23359084707E+03  0.28035470776E+03  0.12500000000E+03 0.  0.
         25    1    1    2    0    0  0.83475728556E+01 -0.96502503873E+02  0.31394212177E+02  0.16122348397E+03  0.12500000000E+03 0.  0.
         25    1    1    2    0    0 -0.47903644162E+02  0.13771641745E+02  0.31154867725E+03  0.33936999799E+03  0.12500000000E+03 0.  0.
</event>
<event>
 5    0  0.5597833E-005  0.3080934E+03  0.7546771E-02  0.1081263E+00
         21   -1    0    0  502  501  0.00000000000E+00  0.00000000000E+00  0.36937952027E+03  0.36937952027E+03  0.00000000000E+00 0. -1.
         21   -1    0    0  501  502 -0.00000000000E+00 -0.00000000000E+00 -0.25697559202E+03  0.25697559202E+03  0.00000000000E+00 0.  1.
         25    1    1    2    0    0  0.21774543551E+03 -0.13779368299E+02  0.69610007715E+02  0.26090898576E+03  0.12500000000E+03 0.  0.
         25    1    1    2    0    0 -0.10833124395E+03  0.77055894346E+02  0.43871648121E+02  0.18767789102E+03  0.12500000000E+03 0.  0.
         25    1    1    2    0    0 -0.10941419156E+03 -0.63276526046E+02 -0.10777275900E+01  0.17776823552E+03  0.12500000000E+03 0.  0.
</event>
<event>
 5    0  0.5597833E-005  0.3247569E+03  0.7546771E-02  0.1073481E+00
         21   -1    0    0  502  501  0.00000000000E+00  0.00000000000E+00  0.17181197459E+04  0.17181197459E+04  0.00000000000E+00 0.  1.
         21   -1    0    0  501  502 -0.00000000000E+00 -0.00000000000E+00 -0.61385172148E+02  0.61385172148E+02  0.00000000000E+00 0.  1.
         25    1    1    2    0    0  0.11313018931E+03  0.27097370029E+02  0.45985039079E+03  0.49053041608E+03  0.12500000000E+03 0.  0.
         25    1    1    2    0    0 -0.14760333449E+03 -0.17671847038E+03  0.49963465819E+03  0.56415951094E+03  0.12500000000E+03 0.  0.
         25    1    1    2    0    0  0.34473145173E+02  0.14962110035E+03  0.69724952477E+03  0.72481499101E+03  0.12500000000E+03 0.  0.
</event>
<event>
 5    0  0.5597833E-005  0.3739599E+03  0.7546771E-02  0.1053189E+00
         21   -1    0    0  502  501  0.00000000000E+00  0.00000000000E+00  0.11119267768E+04  0.11119267768E+04  0.00000000000E+00 0. -1.
         21   -1    0    0  501  502 -0.00000000000E+00 -0.00000000000E+00 -0.12576909350E+03  0.12576909350E+03  0.00000000000E+00 0. -1.
         25    1    1    2    0    0  0.41866847824E+02  0.16814008120E+03  0.26138362111E+03  0.33759490109E+03  0.12500000000E+03 0.  0.
         25    1    1    2    0    0  0.51158600461E+01  0.14591832217E+03  0.27495746480E+03  0.33547717690E+03  0.12500000000E+03 0.  0.
         25    1    1    2    0    0 -0.46982707870E+02 -0.31405840337E+03  0.44981659741E+03  0.56462379234E+03  0.12500000000E+03 0.  0.
</event>
<event>
 5    0  0.5597833E-005  0.2231483E+03  0.7546771E-02  0.1131557E+00
         21   -1    0    0  502  501  0.00000000000E+00  0.00000000000E+00  0.56782385293E+02  0.56782385293E+02  0.00000000000E+00 0. -1.
         21   -1    0    0  501  502 -0.00000000000E+00 -0.00000000000E+00 -0.87694760305E+03  0.87694760305E+03  0.00000000000E+00 0. -1.
         25    1    1    2    0    0 -0.27224259142E+02  0.50391197151E+01 -0.37755206405E+03  0.39866917874E+03  0.12500000000E+03 0.  0.
         25    1    1    2    0    0 -0.16783578733E+02  0.22251656319E+02 -0.34561998970E+03  0.36858513536E+03  0.12500000000E+03 0.  0.
         25    1    1    2    0    0  0.44007837875E+02 -0.27290776034E+02 -0.96993164012E+02  0.16647567425E+03  0.12500000000E+03 0.  0.
</event>
<event>
 5    0  0.5597833E-005  0.2523958E+03  0.7546771E-02  0.1111800E+00
         21   -1    0    0  502  501  0.00000000000E+00  0.00000000000E+00  0.14561827062E+03  0.14561827062E+03  0.00000000000E+00 0.  1.
         21   -1    0    0  501  502 -0.00000000000E+00 -0.00000000000E+00 -0.43747021910E+03  0.43747021910E+03  0.00000000000E+00 0.  1.
         25    1    1    2    0    0 -0.43381855662E+02  0.38602982894E+00 -0.15390404223E+03  0.20296203742E+03  0.12500000000E+03 0.  0.
         25    1    1    2    0    0  0.11106348515E+03  0.21680021433E+02  0.16073890866E+02  0.16937677241E+03  0.12500000000E+03 0.  0.
         25    1    1    2    0    0 -0.67681629487E+02 -0.22066051262E+02 -0.15402179712E+03  0.21074967989E+03  0.12500000000E+03 0.  0.
</event>
<event>
 5    0  0.5597833E-005  0.3601978E+03  0.7546771E-02  0.1058506E+00
         21   -1    0    0  502  501  0.00000000000E+00  0.00000000000E+00  0.10058694070E+04  0.10058694070E+04  0.00000000000E+00 0. -1.
         21   -1    0    0  501  502 -0.00000000000E+00 -0.00000000000E+00 -0.12898542290E+03  0.12898542290E+03  0.00000000000E+00 0. -1.
         25    1    1    2    0    0  0.91883002918E+02  0.66699960390E+02  0.32484245511E+03  0.36611335893E+03  0.12500000000E+03 0.  0.
         25    1    1    2    0    0  0.15026826519E+03  0.83403150058E+02  0.30366909200E+03  0.37064343296E+03  0.12500000000E+03 0.  0.
         25    1    1    2    0    0 -0.24215126811E+03 -0.15010311045E+03  0.24837243698E+03  0.39809803801E+03  0.12500000000E+03 0.  0.
</event>
<event>
 5    0  0.5597833E-005  0.2730229E+03  0.7546771E-02  0.1099562E+00
         21   -1    0    0  502  501  0.00000000000E+00  0.00000000000E+00  0.28457216575E+03  0.28457216575E+03  0.00000000000E+00 0. -1.
         21   -1    0    0  501  502 -0.00000000000E+00 -0.00000000000E+00 -0.26194241647E+03  0.26194241647E+03  0.00000000000E+00 0. -1.
         25    1    1    2    0    0 -0.30038668379E+02 -0.50442297160E+02 -0.63893887505E+02  0.15216496246E+03  0.12500000000E+03 0.  0.
         25    1    1    2    0    0  0.32671770597E+02 -0.35660526337E+02  0.17361682591E+03  0.21933289761E+03  0.12500000000E+03 0.  0.
         25    1    1    2    0    0 -0.26331022177E+01  0.86102823497E+02 -0.87093189129E+02  0.17501672216E+03  0.12500000000E+03 0.  0.
</event>
<event>
 5    0  0.5597833E-005  0.2682456E+03  0.7546771E-02  0.1102288E+00
         21   -1    0    0  502  501  0.00000000000E+00  0.00000000000E+00  0.79479595182E+03  0.79479595182E+03  0.00000000000E+00 0. -1.
         21   -1    0    0  501  502 -0.00000000000E+00 -0.00000000000E+00 -0.90533558802E+02  0.90533558802E+02  0.00000000000E+00 0. -1.
         25    1    1    2    0    0 -0.10333758487E+03  0.30286110158E+02  0.26366355474E+03  0.31102954042E+03  0.12500000000E+03 0.  0.
         25    1    1    2    0    0  0.12314380834E+03 -0.20008988010E+02  0.40591831383E+03  0.44267305615E+03  0.12500000000E+03 0.  0.
         25    1    1    2    0    0 -0.19806223463E+02 -0.10277122148E+02  0.34680524442E+02  0.13162691405E+03  0.12500000000E+03 0.  0.
</event>
<event>
 5    0  0.5597833E-005  0.2648093E+03  0.7546771E-02  0.1104288E+00
         21   -1    0    0  502  501  0.00000000000E+00  0.00000000000E+00  0.33005991094E+03  0.33005991094E+03  0.00000000000E+00 0. -1.
         21   -1    0    0  501  502 -0.00000000000E+00 -0.00000000000E+00 -0.21245824270E+03  0.21245824270E+03  0.00000000000E+00 0. -1.
         25    1    1    2    0    0  0.12538083165E+03 -0.32002064772E+01  0.73460775126E+02  0.19170831945E+03  0.12500000000E+03 0.  0.
         25    1    1    2    0    0 -0.15732216461E+03 -0.45564432084E+02  0.14287969466E+00  0.20603737856E+03  0.12500000000E+03 0.  0.
         25    1    1    2    0    0  0.31941332958E+02  0.48764638561E+02  0.43998013421E+02  0.14477245563E+03  0.12500000000E+03 0.  0.
</event>
<event>
 5    0  0.5597833E-005  0.3036029E+03  0.7546771E-02  0.1083453E+00
         21   -1    0    0  502  501  0.00000000000E+00  0.00000000000E+00  0.35189735428E+03  0.35189735428E+03  0.00000000000E+00 0. -1.
         21   -1    0    0  501  502 -0.00000000000E+00 -0.00000000000E+00 -0.26193642342E+03  0.26193642342E+03  0.00000000000E+00 0. -1.
         25    1    1    2    0    0  0.38709282438E+02 -0.47778843243E+02 -0.16512229497E+03  0.21603610509E+03  0.12500000000E+03 0.  0.
         25    1    1    2    0    0 -0.52034333284E+02  0.75010448264E+02  0.64089184462E+02  0.16753078151E+03  0.12500000000E+03 0.  0.
         25    1    1    2    0    0  0.13325050846E+02 -0.27231605021E+02  0.19099404137E+03  0.23026689109E+03  0.12500000000E+03 0.  0.
</event>
<event>
 5    0  0.5597833E-005  0.2387887E+03  0.7546771E-02  0.1120602E+00
         21   -1    0    0  502  501  0.00000000000E+00  0.00000000000E+00  0.14851860368E+03  0.14851860368E+03  0.00000000000E+00 0. -1.
         21   -1    0    0  501  502 -0.00000000000E+00 -0.00000000000E+00 -0.38392531630E+03  0.38392531630E+03  0.00000000000E+00 0. -1.
         25    1    1    2    0    0 -0.10220025457E+03 -0.36991310459E+02 -0.18852217226E+03  0.25095588959E+03  0.12500000000E+03 0.  0.
         25    1    1    2    0    0  0.29192306185E+02  0.14752226014E+02 -0.38361842705E+02  0.13478297329E+03  0.12500000000E+03 0.  0.
         25    1    1    2    0    0  0.73007948382E+02  0.22239084445E+02 -0.85226976482E+01  0.14670505710E+03  0.12500000000E+03 0.  0.
</event>
<event>
 5    0  0.5597833E-005  0.2600136E+03  0.7546771E-02  0.1107135E+00
         21   -1    0    0  502  501  0.00000000000E+00  0.00000000000E+00  0.12346097619E+04  0.12346097619E+04  0.00000000000E+00 0.  1.
         21   -1    0    0  501  502 -0.00000000000E+00 -0.00000000000E+00 -0.54759885315E+02  0.54759885315E+02  0.00000000000E+00 0.  1.
         25    1    1    2    0    0  0.23261680695E+02 -0.69229729459E+02  0.80199178450E+03  0.81495379233E+03  0.12500000000E+03 0.  0.
         25    1    1    2    0    0 -0.17434303531E+02  0.41687551204E+02  0.29013740878E+03  0.31913402018E+03  0.12500000000E+03 0.  0.
         25    1    1    2    0    0 -0.58273771632E+01  0.27542178255E+02  0.87720683300E+02  0.15528183470E+03  0.12500000000E+03 0.  0.
</event>
<event>
 5    0  0.5597833E-005  0.3831150E+03  0.7546771E-02  0.1049788E+00
         21   -1    0    0  502  501  0.00000000000E+00  0.00000000000E+00  0.56436952601E+03  0.56436952601E+03  0.00000000000E+00 0.  1.
         21   -1    0    0  501  502 -0.00000000000E+00 -0.00000000000E+00 -0.26007275606E+03  0.26007275606E+03  0.00000000000E+00 0.  1.
         25    1    1    2    0    0 -0.11213961032E+03 -0.12486778141E+03  0.89787471399E+02  0.22771483276E+03  0.12500000000E+03 0.  0.
         25    1    1    2    0    0 -0.70199186696E+02  0.12882740204E+03 -0.96169197061E+02  0.21540181009E+03  0.12500000000E+03 0.  0.
         25    1    1    2    0    0  0.18233879702E+03 -0.39596206271E+01  0.31067849561E+03  0.38132563922E+03  0.12500000000E+03 0.  0.
</event>
<event>
 5    0  0.5597833E-005  0.2633327E+03  0.7546771E-02  0.1105157E+00
         21   -1    0    0  502  501  0.00000000000E+00  0.00000000000E+00  0.78287268621E+03  0.78287268621E+03  0.00000000000E+00 0. -1.
         21   -1    0    0  501  502 -0.00000000000E+00 -0.00000000000E+00 -0.88576503517E+02  0.88576503517E+02  0.00000000000E+00 0. -1.
         25    1    1    2    0    0  0.83535457798E+02  0.21437995511E+02  0.20149565256E+03  0.25231579094E+03  0.12500000000E+03 0.  0.
         25    1    1    2    0    0  0.30020014868E+02 -0.12244424838E+03  0.24946641619E+03  0.30618995421E+03  0.12500000000E+03 0.  0.
         25    1    1    2    0    0 -0.11355547267E+03  0.10100625286E+03  0.24333411395E+03  0.31294344457E+03  0.12500000000E+03 0.  0.
</event>
<event>
 5    0  0.6128771E-005  0.2865985E+03  0.7546771E-02  0.1092139E+00
         21   -1    0    0  502  501  0.00000000000E+00  0.00000000000E+00  0.15950920830E+03  0.15950920830E+03  0.00000000000E+00 0. -1.
         21   -1    0    0  501  502 -0.00000000000E+00 -0.00000000000E+00 -0.51494628139E+03  0.51494628139E+03  0.00000000000E+00 0. -1.
         25    1    1    2    0    0  0.14144455775E+03  0.15919147229E+02 -0.59431906605E+02  0.19853748686E+03  0.12500000000E+03 0.  0.
         25    1    1    2    0    0 -0.11326681125E+03 -0.47041116850E+02 -0.28155155111E+02  0.17736952941E+03  0.12500000000E+03 0.  0.
         25    1    1    2    0    0 -0.28177746500E+02  0.31121969621E+02 -0.26785001137E+03  0.29854847342E+03  0.12500000000E+03 0.  0.
</event>
<event>
 5    0  0.5597833E-005  0.2361340E+03  0.7546771E-02  0.1122395E+00
         21   -1    0    0  502  501  0.00000000000E+00  0.00000000000E+00  0.75596860943E+03  0.75596860943E+03  0.00000000000E+00 0. -1.
         21   -1    0    0  501  502 -0.00000000000E+00 -0.00000000000E+00 -0.73758692847E+02  0.73758692847E+02  0.00000000000E+00 0. -1.
         25    1    1    2    0    0 -0.23094333108E+02  0.43467461731E+02  0.30802302301E+03  0.33604456722E+03  0.12500000000E+03 0.  0.
         25    1    1    2    0    0  0.82487429359E+02 -0.72583043581E+02  0.12873841934E+03  0.21040687924E+03  0.12500000000E+03 0.  0.
         25    1    1    2    0    0 -0.59393096250E+02  0.29115581850E+02  0.24544847423E+03  0.28327585582E+03  0.12500000000E+03 0.  0.
</event>
<event>
 5    0  0.5597833E-005  0.2833433E+03  0.7546771E-02  0.1093877E+00
         21   -1    0    0  502  501  0.00000000000E+00  0.00000000000E+00  0.31869064813E+03  0.31869064813E+03  0.00000000000E+00 0.  1.
         21   -1    0    0  501  502 -0.00000000000E+00 -0.00000000000E+00 -0.25191646932E+03  0.25191646932E+03  0.00000000000E+00 0.  1.
         25    1    1    2    0    0 -0.11926684211E+03  0.10668162029E+03  0.28198865009E+02  0.20500176517E+03  0.12500000000E+03 0.  0.
         25    1    1    2    0    0  0.64528268960E+02  0.35439337374E+02  0.77946539146E+02  0.16468305041E+03  0.12500000000E+03 0.  0.
         25    1    1    2    0    0  0.54738573155E+02 -0.14212095766E+03 -0.39371225347E+02  0.20092230186E+03  0.12500000000E+03 0.  0.
</event>
<event>
 5    0  0.5597833E-005  0.2654736E+03  0.7546771E-02  0.1103898E+00
         21   -1    0    0  502  501  0.00000000000E+00  0.00000000000E+00  0.11499904633E+04  0.11499904633E+04  0.00000000000E+00 0.  1.
         21   -1    0    0  501  502 -0.00000000000E+00 -0.00000000000E+00 -0.61284174604E+02  0.61284174604E+02  0.00000000000E+00 0.  1.
         25    1    1    2    0    0 -0.58404688686E+01 -0.59879440603E+02  0.11964523154E+03  0.18319290356E+03  0.12500000000E+03 0.  0.
         25    1    1    2    0    0  0.45303227996E+01  0.84058331984E+02  0.21036110934E+03  0.25877233879E+03  0.12500000000E+03 0.  0.
         25    1    1    2    0    0  0.13101460690E+01 -0.24178891382E+02  0.75869994783E+03  0.76930939557E+03  0.12500000000E+03 0.  0.
</event>
<event>
 5    0  0.5597833E-005  0.2387763E+03  0.7546771E-02  0.1120611E+00
         21   -1    0    0  502  501  0.00000000000E+00  0.00000000000E+00  0.39088059541E+02  0.39088059541E+02  0.00000000000E+00 0.  1.
         21   -1    0    0  501  502 -0.00000000000E+00 -0.00000000000E+00 -0.14586077143E+04  0.14586077143E+04  0.00000000000E+00 0.  1.
         25    1    1    2    0    0 -0.91053399396E+02  0.38516870916E+02 -0.36137699615E+03  0.39495899057E+03  0.12500000000E+03 0.  0.
         25    1    1    2    0    0  0.12235838886E+03 -0.38763861590E+02 -0.68166575086E+03  0.70481728709E+03  0.12500000000E+03 0.  0.
         25    1    1    2    0    0 -0.31304989464E+02  0.24699067450E+00 -0.37647690776E+03  0.39791949619E+03  0.12500000000E+03 0.  0.
</event>
<event>
 5    0  0.6866727E-005  0.2968902E+03  0.7546771E-02  0.1086806E+00
         21   -1    0    0  502  501  0.00000000000E+00  0.00000000000E+00  0.18934619834E+03  0.18934619834E+03  0.00000000000E+00 0. -1.
         21   -1    0    0  501  502 -0.00000000000E+00 -0.00000000000E+00 -0.46551641426E+03  0.46551641426E+03  0.00000000000E+00 0. -1.
         25    1    1    2    0    0 -0.14693420440E+03 -0.81498965011E+02 -0.24791558894E+03  0.32452870591E+03  0.12500000000E+03 0.  0.
         25    1    1    2    0    0  0.91846207485E+02  0.40463591909E+02  0.49643803828E+02  0.16781696982E+03  0.12500000000E+03 0.  0.
         25    1    1    2    0    0  0.55087996914E+02  0.41035373101E+02 -0.77898430807E+02  0.16251693688E+03  0.12500000000E+03 0.  0.
</event>
<event>
 5    0  0.6169036E-005  0.2690313E+03  0.7546771E-02  0.1101835E+00
         21   -1    0    0  502  501  0.00000000000E+00  0.00000000000E+00  0.10527991155E+03  0.10527991155E+03  0.00000000000E+00 0.  1.
         21   -1    0    0  501  502 -0.00000000000E+00 -0.00000000000E+00 -0.68748020089E+03  0.68748020089E+03  0.00000000000E+00 0.  1.
         25    1    1    2    0    0  0.11214789593E+03  0.71803189799E+02 -0.37457184137E+03  0.41672762445E+03  0.12500000000E+03 0.  0.
         25    1    1    2    0    0 -0.53422184212E+02  0.10175865354E+02 -0.36027443634E+02  0.14099806629E+03  0.12500000000E+03 0.  0.
         25    1    1    2    0    0 -0.58725711718E+02 -0.81979055153E+02 -0.17160100433E+03  0.23503442171E+03  0.12500000000E+03 0.  0.
</event>
<event>
 5    0  0.5597833E-005  0.3827830E+03  0.7546771E-02  0.1049910E+00
         21   -1    0    0  502  501  0.00000000000E+00  0.00000000000E+00  0.17336242009E+04  0.17336242009E+04  0.00000000000E+00 0.  1.
         21   -1    0    0  501  502 -0.00000000000E+00 -0.00000000000E+00 -0.84518215300E+02  0.84518215300E+02  0.00000000000E+00 0.  1.
         25    1    1    2    0    0  0.13218240358E+03 -0.22025513629E+03  0.33630341269E+03  0.44125899228E+03  0.12500000000E+03 0.  0.
         25    1    1    2    0    0  0.32090647908E+01  0.18030006008E+03  0.83157351170E+03  0.86003367093E+03  0.12500000000E+03 0.  0.
         25    1    1    2    0    0 -0.13539146837E+03  0.39955076203E+02  0.48122906119E+03  0.51684975298E+03  0.12500000000E+03 0.  0.
</event>
<event>
 5    0  0.6484826E-005  0.2638172E+03  0.7546771E-02  0.1104871E+00
         21   -1    0    0  502  501  0.00000000000E+00  0.00000000000E+00  0.58663246207E+03  0.58663246207E+03  0.00000000000E+00 0. -1.
         21   -1    0    0  501  502 -0.00000000000E+00 -0.00000000000E+00 -0.11864241367E+03  0.11864241367E+03  0.00000000000E+00 0. -1.
         25    1    1    2    0    0 -0.53337616869E+02 -0.65292446476E+02  0.11785415550E+03  0.19137033968E+03  0.12500000000E+03 0.  0.
         25    1    1    2    0    0 -0.74058882913E+02  0.23560647510E+02  0.28247267335E+03  0.31852100941E+03  0.12500000000E+03 0.  0.
         25    1    1    2    0    0  0.12739649978E+03  0.41731798966E+02  0.67663219552E+02  0.19538352664E+03  0.12500000000E+03 0.  0.
</event>
<event>
 5    0  0.5597833E-005  0.2774841E+03  0.7546771E-02  0.1097071E+00
         21   -1    0    0  502  501  0.00000000000E+00  0.00000000000E+00  0.39019633003E+02  0.39019633003E+02  0.00000000000E+00 0. -1.
         21   -1    0    0  501  502 -0.00000000000E+00 -0.00000000000E+00 -0.19733001957E+04  0.19733001957E+04  0.00000000000E+00 0. -1.
         25    1    1    2    0    0  0.17531212359E+02  0.13450575273E+03 -0.76201520063E+03  0.78402251684E+03  0.12500000000E+03 0.  0.
         25    1    1    2    0    0  0.81424286321E+02 -0.39487178277E+02 -0.76958354650E+03  0.78490317027E+03  0.12500000000E+03 0.  0.
         25    1    1    2    0    0 -0.98955498681E+02 -0.95018574458E+02 -0.40268181556E+03  0.44339414159E+03  0.12500000000E+03 0.  0.
</event>
<event>
 5    0  0.5597833E-005  0.3280430E+03  0.7546771E-02  0.1072006E+00
         21   -1    0    0  502  501  0.00000000000E+00  0.00000000000E+00  0.77138191062E+02  0.77138191062E+02  0.00000000000E+00 0.  1.
         21   -1    0    0  501  502 -0.00000000000E+00 -0.00000000000E+00 -0.13950571395E+04  0.13950571395E+04  0.00000000000E+00 0.  1.
         25    1    1    2    0    0  0.31084160601E+00  0.22601140352E+03 -0.30402307335E+03  0.39891888934E+03  0.12500000000E+03 0.  0.
         25    1    1    2    0    0 -0.71794458677E+01 -0.50237110887E+02 -0.43645371600E+03  0.45682836816E+03  0.12500000000E+03 0.  0.
         25    1    1    2    0    0  0.68686042617E+01 -0.17577429264E+03 -0.57744215909E+03  0.61644807306E+03  0.12500000000E+03 0.  0.
</event>
<event>
 5    0  0.5597833E-005  0.2870331E+03  0.7546771E-02  0.1091908E+00
         21   -1    0    0  502  501  0.00000000000E+00  0.00000000000E+00  0.23314648785E+03  0.23314648785E+03  0.00000000000E+00 0. -1.
         21   -1    0    0  501  502 -0.00000000000E+00 -0.00000000000E+00 -0.35337442373E+03  0.35337442373E+03  0.00000000000E+00 0. -1.
         25    1    1    2    0    0 -0.27252682007E+02 -0.81817714359E+02  0.73879419364E+02  0.16887870104E+03  0.12500000000E+03 0.  0.
         25    1    1    2    0    0 -0.86129771775E+02  0.11080142939E+03 -0.51667597330E+02  0.19490981236E+03  0.12500000000E+03 0.  0.
         25    1    1    2    0    0  0.11338245378E+03 -0.28983715035E+02 -0.14243975792E+03  0.22273239818E+03  0.12500000000E+03 0.  0.
</event>
<event>
 5    0  0.5597833E-005  0.4300778E+03  0.7546771E-02  0.1033835E+00
         21   -1    0    0  502  501  0.00000000000E+00  0.00000000000E+00  0.10880952848E+03  0.10880952848E+03  0.00000000000E+00 0.  1.
         21   -1    0    0  501  502 -0.00000000000E+00 -0.00000000000E+00 -0.16999147155E+04  0.16999147155E+04  0.00000000000E+00 0.  1.
         25    1    1    2    0    0  0.83570895699E+02 -0.11608602414E+03 -0.38878433599E+03  0.43271043380E+03  0.12500000000E+03 0.  0.
         25    1    1    2    0    0 -0.28462176728E+03  0.20816471250E+03 -0.93588567250E+03  0.10078933922E+04  0.12500000000E+03 0.  0.
         25    1    1    2    0    0  0.20105087159E+03 -0.92078688364E+02 -0.26643517855E+03  0.36812041805E+03  0.12500000000E+03 0.  0.
</event>
<event>
 5    0  0.5597833E-005  0.3491371E+03  0.7546771E-02  0.1062970E+00
         21   -1    0    0  502  501  0.00000000000E+00  0.00000000000E+00  0.89039545791E+02  0.89039545791E+02  0.00000000000E+00 0. -1.
         21   -1    0    0  501  502 -0.00000000000E+00 -0.00000000000E+00 -0.13690177763E+04  0.13690177763E+04  0.00000000000E+00 0. -1.
         25    1    1    2    0    0  0.14019642092E+03 -0.22909095443E+02 -0.30159135862E+03  0.35603681086E+03  0.12500000000E+03 0.  0.
         25    1    1    2    0    0 -0.98264969768E+02 -0.19242275338E+03 -0.56403193442E+03  0.61679781399E+03  0.12500000000E+03 0.  0.
         25    1    1    2    0    0 -0.41931451154E+02  0.21533184882E+03 -0.41435493748E+03  0.48522269725E+03  0.12500000000E+03 0.  0.
</event>
<event>
 5    0  0.5597833E-005  0.2620743E+03  0.7546771E-02  0.1105903E+00
         21   -1    0    0  502  501  0.00000000000E+00  0.00000000000E+00  0.31493324517E+03  0.31493324517E+03  0.00000000000E+00 0. -1.
         21   -1    0    0  501  502 -0.00000000000E+00 -0.00000000000E+00 -0.21808731819E+03  0.21808731819E+03  0.00000000000E+00 0. -1.
         25    1    1    2    0    0 -0.10236871899E+03  0.73208976832E+02  0.72506167530E+02  0.19162738125E+03  0.12500000000E+03 0.  0.
         25    1    1    2    0    0  0.15062553318E+03 -0.63734169480E+02  0.22247398884E+02  0.20705082072E+03  0.12500000000E+03 0.  0.
         25    1    1    2    0    0 -0.48256814186E+02 -0.94748073524E+01  0.20923605593E+01  0.13434236138E+03  0.12500000000E+03 0.  0.
</event>
<event>
 5    0  0.5597833E-005  0.2547498E+03  0.7546771E-02  0.1110339E+00
         21   -1    0    0  502  501  0.00000000000E+00  0.00000000000E+00  0.90252443269E+02  0.90252443269E+02  0.00000000000E+00 0. -1.
         21   -1    0    0  501  502 -0.00000000000E+00 -0.00000000000E+00 -0.71906584614E+03  0.71906584614E+03  0.00000000000E+00 0. -1.
         25    1    1    2    0    0  0.89002979806E+02  0.21805387565E+02 -0.14697474955E+03  0.21359677513E+03  0.12500000000E+03 0.  0.
         25    1    1    2    0    0 -0.11503010729E+03  0.78816353014E+02 -0.27337861408E+03  0.33136808796E+03  0.12500000000E+03 0.  0.
         25    1    1    2    0    0  0.26027127485E+02 -0.10062174058E+03 -0.20846003925E+03  0.26435342632E+03  0.12500000000E+03 0.  0.
</event>
<event>
 5    0  0.5597833E-005  0.3935690E+03  0.7546771E-02  0.1046030E+00
         21   -1    0    0  502  501  0.00000000000E+00  0.00000000000E+00  0.10144595381E+03  0.10144595381E+03  0.00000000000E+00 0.  1.
         21   -1    0    0  501  502 -0.00000000000E+00 -0.00000000000E+00 -0.15268873882E+04  0.15268873882E+04  0.00000000000E+00 0.  1.
         25    1    1    2    0    0 -0.24936035255E+03  0.51593095603E+01 -0.29237381516E+03  0.40412207523E+03  0.12500000000E+03 0.  0.
         25    1    1    2    0    0  0.84208686496E+01 -0.81117293282E+02 -0.20032929257E+03  0.24981543539E+03  0.12500000000E+03 0.  0.
         25    1    1    2    0    0  0.24093948390E+03  0.75957983722E+02 -0.93273832669E+03  0.97439583141E+03  0.12500000000E+03 0.  0.
</event>
<event>
 5    0  0.5597833E-005  0.4499151E+03  0.7546771E-02  0.1027747E+00
         21   -1    0    0  502  501  0.00000000000E+00  0.00000000000E+00  0.35511770102E+03  0.35511770102E+03  0.00000000000E+00 0. -1.
         21   -1    0    0  501  502 -0.00000000000E+00 -0.00000000000E+00 -0.57001822324E+03  0.57001822324E+03  0.00000000000E+00 0. -1.
         25    1    1    2    0    0  0.27272680315E+03 -0.12182804981E+02 -0.36657246344E+03  0.47384459567E+03  0.12500000000E+03 0.  0.
         25    1    1    2    0    0 -0.12968638844E+03 -0.24744836979E+02  0.17984371681E+03  0.25573351126E+03  0.12500000000E+03 0.  0.
         25    1    1    2    0    0 -0.14304041471E+03  0.36927641960E+02 -0.28171775589E+02  0.19555781734E+03  0.12500000000E+03 0.  0.
</event>
<event>
 5    0  0.5597833E-005  0.2208913E+03  0.7546771E-02  0.1133220E+00
         21   -1    0    0  502  501  0.00000000000E+00  0.00000000000E+00  0.19005629777E+03  0.19005629777E+03  0.00000000000E+00 0.  1.
         21   -1    0    0  501  502 -0.00000000000E+00 -0.00000000000E+00 -0.25672899543E+03  0.25672899543E+03  0.00000000000E+00 0.  1.
         25    1    1    2    0    0 -0.24684822874E+02 -0.27479444604E+02 -0.69229732997E+02  0.14758799506E+03  0.12500000000E+03 0.  0.
         25    1    1    2    0    0 -0.29291110110E+02 -0.53411070969E+02  0.17372262343E+02  0.14013389002E+03  0.12500000000E+03 0.  0.
         25    1    1    2    0    0  0.53975932984E+02  0.80890515572E+02 -0.14815227002E+02  0.15906340812E+03  0.12500000000E+03 0.  0.
</event>
<event>
 5    0  0.5597833E-005  0.2512442E+03  0.7546771E-02  0.1112521E+00
         21   -1    0    0  502  501  0.00000000000E+00  0.00000000000E+00  0.61042863768E+03  0.61042863768E+03  0.00000000000E+00 0. -1.
         21   -1    0    0  501  502 -0.00000000000E+00 -0.00000000000E+00 -0.10340871562E+03  0.10340871562E+03  0.00000000000E+00 0. -1.
         25    1    1    2    0    0 -0.51451741475E+02  0.70739631068E+01  0.30899439586E+03  0.33734234737E+03  0.12500000000E+03 0.  0.
         25    1    1    2    0    0 -0.62960553882E+02  0.30722971523E+02  0.11655545172E+03  0.18471087041E+03  0.12500000000E+03 0.  0.
         25    1    1    2    0    0  0.11441229536E+03 -0.37796934630E+02  0.81470074482E+02  0.19178413551E+03  0.12500000000E+03 0.  0.
</event>
<event>
 5    0  0.5597833E-005  0.3472549E+03  0.7546771E-02  0.1063747E+00
         21   -1    0    0  502  501  0.00000000000E+00  0.00000000000E+00  0.14467063220E+04  0.14467063220E+04  0.00000000000E+00 0.  1.
         21   -1    0    0  501  502 -0.00000000000E+00 -0.00000000000E+00 -0.83352075250E+02  0.83352075250E+02  0.00000000000E+00 0.  1.
         25    1    1    2    0    0 -0.96809454356E+02 -0.38118204035E+02  0.12908856597E+03  0.20763893131E+03  0.12500000000E+03 0.  0.
         25    1    1    2    0    0 -0.11784960441E+03  0.16576539410E+02  0.22936239972E+03  0.28704602649E+03  0.12500000000E+03 0.  0.
         25    1    1    2    0    0  0.21465905877E+03  0.21541664625E+02  0.10049032810E+04  0.10353734394E+04  0.12500000000E+03 0.  0.
</event>
<event>
 5    0  0.5597833E-005  0.3119159E+03  0.7546771E-02  0.1079431E+00
         21   -1    0    0  502  501  0.00000000000E+00  0.00000000000E+00  0.33405343740E+03  0.33405343740E+03  0.00000000000E+00 0. -1.
         21   -1    0    0  501  502 -0.00000000000E+00 -0.00000000000E+00 -0.29124539357E+03  0.29124539357E+03  0.00000000000E+00 0. -1.
         25    1    1    2    0    0  0.22865780918E+02  0.19061744014E+03  0.21044042136E+02  0.23005587176E+03  0.12500000000E+03 0.  0.
         25    1    1    2    0    0  0.19441585192E+02 -0.22333301870E+03 -0.47751901184E+01  0.25671660429E+03  0.12500000000E+03 0.  0.
         25    1    1    2    0    0 -0.42307366110E+02  0.32715578553E+02  0.26539191809E+02  0.13852635493E+03  0.12500000000E+03 0.  0.
</event>
<event>
 5    0  0.5597833E-005  0.2250291E+03  0.7546771E-02  0.1130188E+00
         21   -1    0    0  502  501  0.00000000000E+00  0.00000000000E+00  0.62996808205E+03  0.62996808205E+03  0.00000000000E+00 0. -1.
         21   -1    0    0  501  502 -0.00000000000E+00 -0.00000000000E+00 -0.80381972116E+02  0.80381972116E+02  0.00000000000E+00 0. -1.
         25    1    1    2    0    0  0.39423195288E+01  0.44625181585E+02  0.10622047820E+03  0.17004334361E+03  0.12500000000E+03 0.  0.
         25    1    1    2    0    0  0.73668664042E+02  0.49550203440E+01  0.27704147753E+03  0.31277564573E+03  0.12500000000E+03 0.  0.
         25    1    1    2    0    0 -0.77610983571E+02 -0.49580201929E+02  0.16632415420E+03  0.22753106484E+03  0.12500000000E+03 0.  0.
</event>
<event>
 5    0  0.5597833E-005  0.2323278E+03  0.7546771E-02  0.1125012E+00
         21   -1    0    0  502  501  0.00000000000E+00  0.00000000000E+00  0.28245260162E+03  0.28245260162E+03  0.00000000000E+00 0. -1.
         21   -1    0    0  501  502 -0.00000000000E+00 -0.00000000000E+00 -0.19109830436E+03  0.19109830436E+03  0.00000000000E+00 0. -1.
         25    1    1    2    0    0 -0.64312582001E+02 -0.63389276420E+02  0.10476680721E+03  0.18642798197E+03  0.12500000000E+03 0.  0.
         25    1    1    2    0    0  0.86721906433E+02  0.28807962928E+02 -0.14334828605E+02  0.15550265301E+03  0.12500000000E+03 0.  0.
         25    1    1    2    0    0 -0.22409324432E+02  0.34581313493E+02  0.92231865921E+00  0.13162027099E+03  0.12500000000E+03 0.  0.
</event>
<event>
 5    0  0.5597833E-005  0.3206783E+03  0.7546771E-02  0.1075338E+00
         21   -1    0    0  502  501  0.00000000000E+00  0.00000000000E+00  0.45478470733E+03  0.45478470733E+03  0.00000000000E+00 0. -1.
         21   -1    0    0  501  502 -0.00000000000E+00 -0.00000000000E+00 -0.22611710026E+03  0.22611710026E+03  0.00000000000E+00 0. -1.
         25    1    1    2    0    0  0.43083032738E+02 -0.63952249116E+02  0.48019887503E+02  0.15452167315E+03  0.12500000000E+03 0.  0.
         25    1    1    2    0    0  0.57472853462E+02  0.18012050003E+03 -0.39691135212E+02  0.23010195486E+03  0.12500000000E+03 0.  0.
         25    1    1    2    0    0 -0.10055588620E+03 -0.11616825092E+03  0.22033885478E+03  0.29627817958E+03  0.12500000000E+03 0.  0.
</event>
<event>
 5    0  0.5597833E-005  0.3638142E+03  0.7546771E-02  0.1057084E+00
         21   -1    0    0  502  501  0.00000000000E+00  0.00000000000E+00  0.12505945885E+04  0.12505945885E+04  0.00000000000E+00 0. -1.
         21   -1    0    0  501  502 -0.00000000000E+00 -0.00000000000E+00 -0.10583829092E+03  0.10583829092E+03  0.00000000000E+00 0. -1.
         25    1    1    2    0    0 -0.11116962436E+03  0.14687231758E+03  0.54080717014E+03  0.58483122208E+03  0.12500000000E+03 0.  0.
         25    1    1    2    0    0 -0.35535123092E+02  0.10080216965E+03  0.17561139525E+03  0.24059963533E+03  0.12500000000E+03 0.  0.
         25    1    1    2    0    0  0.14670474745E+03 -0.24767448723E+03  0.42833773218E+03  0.53100202199E+03  0.12500000000E+03 0.  0.
</event>
<event>
 5    0  0.5597833E-005  0.2928837E+03  0.7546771E-02  0.1088853E+00
         21   -1    0    0  502  501  0.00000000000E+00  0.00000000000E+00  0.18758727917E+03  0.18758727917E+03  0.00000000000E+00 0.  1.
         21   -1    0    0  501  502 -0.00000000000E+00 -0.00000000000E+00 -0.45728509790E+03  0.45728509790E+03  0.00000000000E+00 0.  1.
         25    1    1    2    0    0 -0.16984199769E+03  0.99241618953E+02 -0.22199198838E+03  0.32187054233E+03  0.12500000000E+03 0.  0.
         25    1    1    2    0    0  0.81175638279E+02 -0.42451622270E+02 -0.10150814063E+02  0.15530506595E+03  0.12500000000E+03 0.  0.
         25    1    1    2    0    0  0.88666359407E+02 -0.56789996684E+02 -0.37555016282E+02  0.16769676879E+03  0.12500000000E+03 0.  0.
</event>
<event>
 5    0  0.5597833E-005  0.3057640E+03  0.7546771E-02  0.1082394E+00
         21   -1    0    0  502  501  0.00000000000E+00  0.00000000000E+00  0.61383403100E+03  0.61383403100E+03  0.00000000000E+00 0.  1.
         21   -1    0    0  501  502 -0.00000000000E+00 -0.00000000000E+00 -0.15230761966E+03  0.15230761966E+03  0.00000000000E+00 0.  1.
         25    1    1    2    0    0  0.61756061138E+02  0.31629266572E+02 -0.40504765695E+02  0.14859292593E+03  0.12500000000E+03 0.  0.
         25    1    1    2    0    0  0.34913283887E+02 -0.22997595180E+02  0.41816398541E+03  0.43844491726E+03  0.12500000000E+03 0.  0.
         25    1    1    2    0    0 -0.96669345025E+02 -0.86316713920E+01  0.83867191627E+02  0.17910380747E+03  0.12500000000E+03 0.  0.
</event>
<event>
 5    0  0.5597833E-005  0.3070925E+03  0.7546771E-02  0.1081748E+00
         21   -1    0    0  502  501  0.00000000000E+00  0.00000000000E+00  0.10141244998E+03  0.10141244998E+03  0.00000000000E+00 0. -1.
         21   -1    0    0  501  502 -0.00000000000E+00 -0.00000000000E+00 -0.92992342602E+03  0.92992342602E+03  0.00000000000E+00 0. -1.
         25    1    1    2    0    0 -0.66462640562E+02  0.14205900967E+03 -0.54395227756E+03  0.57974746664E+03  0.12500000000E+03 0.  0.
         25    1    1    2    0    0 -0.43708831572E+01  0.77261424221E+01 -0.41583241043E+02  0.13203394954E+03  0.12500000000E+03 0.  0.
         25    1    1    2    0    0  0.70833523719E+02 -0.14978515209E+03 -0.24297545744E+03  0.31955445981E+03  0.12500000000E+03 0.  0.
</event>
<event>
 5    0  0.5597833E-005  0.2463095E+03  0.7546771E-02  0.1115660E+00
         21   -1    0    0  502  501  0.00000000000E+00  0.00000000000E+00  0.18741333344E+03  0.18741333344E+03  0.00000000000E+00 0.  1.
         21   -1    0    0  501  502 -0.00000000000E+00 -0.00000000000E+00 -0.32371428088E+03  0.32371428088E+03  0.00000000000E+00 0.  1.
         25    1    1    2    0    0  0.11567629976E+03  0.96969386717E+02 -0.68486777803E+02  0.20760420762E+03  0.12500000000E+03 0.  0.
         25    1    1    2    0    0 -0.51011198394E+02 -0.43433673963E+02 -0.98039526535E+01  0.14216097876E+03  0.12500000000E+03 0.  0.
         25    1    1    2    0    0 -0.64665101365E+02 -0.53535712754E+02 -0.58010216987E+02  0.16136242794E+03  0.12500000000E+03 0.  0.
</event>
<event>
 5    0  0.5597833E-005  0.2661568E+03  0.7546771E-02  0.1103500E+00
         21   -1    0    0  502  501  0.00000000000E+00  0.00000000000E+00  0.72086131749E+03  0.72086131749E+03  0.00000000000E+00 0. -1.
         21   -1    0    0  501  502 -0.00000000000E+00 -0.00000000000E+00 -0.98270560558E+02  0.98270560558E+02  0.00000000000E+00 0. -1.
         25    1    1    2    0    0  0.53565113266E+02  0.54214486214E+02  0.20379229110E+02  0.14781320933E+03  0.12500000000E+03 0.  0.
         25    1    1    2    0    0  0.22786729960E+02 -0.25430928198E+02  0.39661178718E+03  0.41724318676E+03  0.12500000000E+03 0.  0.
         25    1    1    2    0    0 -0.76351843226E+02 -0.28783558016E+02  0.20559974065E+03  0.25407548196E+03  0.12500000000E+03 0.  0.
</event>
<event>
 5    0  0.5597833E-005  0.2361287E+03  0.7546771E-02  0.1122399E+00
         21   -1    0    0  502  501  0.00000000000E+00  0.00000000000E+00  0.35115382459E+03  0.35115382459E+03  0.00000000000E+00 0.  1.
         21   -1    0    0  501  502 -0.00000000000E+00 -0.00000000000E+00 -0.15878155202E+03  0.15878155202E+03  0.00000000000E+00 0.  1.
         25    1    1    2    0    0 -0.24178012791E+02 -0.50422464171E+01  0.20693385604E+03  0.24301568124E+03  0.12500000000E+03 0.  0.
         25    1    1    2    0    0  0.85348996170E+01  0.29883826893E+02  0.27684970742E+02  0.13174727787E+03  0.12500000000E+03 0.  0.
         25    1    1    2    0    0  0.15643113174E+02 -0.24841580476E+02 -0.42246554216E+02  0.13517241750E+03  0.12500000000E+03 0.  0.
</event>
<event>
 5    0  0.5597833E-005  0.7005710E+03  0.7546771E-02  0.9716256E-01
         21   -1    0    0  502  501  0.00000000000E+00  0.00000000000E+00  0.40187237530E+03  0.40187237530E+03  0.00000000000E+00 0.  1.
         21   -1    0    0  501  502 -0.00000000000E+00 -0.00000000000E+00 -0.12212827298E+04  0.12212827298E+04  0.00000000000E+00 0. -1.
         25    1    1    2    0    0 -0.29961298702E+03 -0.47947235814E+03 -0.21310051727E+03  0.61700771038E+03  0.12500000000E+03 0.  0.
         25    1    1    2    0    0  0.39908803163E+03  0.43418519996E+03 -0.33942680734E+03  0.69182628050E+03  0.12500000000E+03 0.  0.
         25    1    1    2    0    0 -0.99475044610E+02  0.45287158173E+02 -0.26688302986E+03  0.31432111419E+03  0.12500000000E+03 0.  0.
</event>
<event>
 5    0  0.5597833E-005  0.2772267E+03  0.7546771E-02  0.1097213E+00
         21   -1    0    0  502  501  0.00000000000E+00  0.00000000000E+00  0.24087390017E+04  0.24087390017E+04  0.00000000000E+00 0.  1.
         21   -1    0    0  501  502 -0.00000000000E+00 -0.00000000000E+00 -0.31906593290E+02  0.31906593290E+02  0.00000000000E+00 0.  1.
         25    1    1    2    0    0 -0.82916018439E+02 -0.36472668926E+02  0.14175344642E+04  0.14259152425E+04  0.12500000000E+03 0.  0.
         25    1    1    2    0    0 -0.33416498949E+01  0.96721684022E+02  0.59176007773E+03  0.61251223692E+03  0.12500000000E+03 0.  0.
         25    1    1    2    0    0  0.86257668334E+02 -0.60249015096E+02  0.36753786645E+03  0.40221811551E+03  0.12500000000E+03 0.  0.
</event>
<event>
 5    0  0.5597833E-005  0.3396536E+03  0.7546771E-02  0.1066944E+00
         21   -1    0    0  502  501  0.00000000000E+00  0.00000000000E+00  0.60585750295E+02  0.60585750295E+02  0.00000000000E+00 0.  1.
         21   -1    0    0  501  502 -0.00000000000E+00 -0.00000000000E+00 -0.19041534539E+04  0.19041534539E+04  0.00000000000E+00 0.  1.
         25    1    1    2    0    0  0.93811636590E+00 -0.22303794331E+03 -0.49676576208E+03  0.55870209110E+03  0.12500000000E+03 0.  0.
         25    1    1    2    0    0 -0.35404953551E+02  0.23763535718E+03 -0.83277668855E+03  0.87570890524E+03  0.12500000000E+03 0.  0.
         25    1    1    2    0    0  0.34466837186E+02 -0.14597413873E+02 -0.51402525293E+03  0.53032820782E+03  0.12500000000E+03 0.  0.
</event>
<event>
 5    0  0.5597833E-005  0.2954166E+03  0.7546771E-02  0.1087555E+00
         21   -1    0    0  502  501  0.00000000000E+00  0.00000000000E+00  0.11657112820E+04  0.11657112820E+04  0.00000000000E+00 0. -1.
         21   -1    0    0  501  502 -0.00000000000E+00 -0.00000000000E+00 -0.74864979031E+02  0.74864979031E+02  0.00000000000E+00 0. -1.
         25    1    1    2    0    0  0.60514191129E+02  0.14283231201E+03  0.31760398252E+03  0.37491375860E+03  0.12500000000E+03 0.  0.
         25    1    1    2    0    0 -0.80746665930E+02 -0.18309441809E+03  0.61692029707E+03  0.66049923765E+03  0.12500000000E+03 0.  0.
         25    1    1    2    0    0  0.20232474801E+02  0.40262106080E+02  0.15632202340E+03  0.20516326480E+03  0.12500000000E+03 0.  0.
</event>
<event>
 5    0  0.5597833E-005  0.3943281E+03  0.7546771E-02  0.1045762E+00
         21   -1    0    0  502  501  0.00000000000E+00  0.00000000000E+00  0.35705350037E+03  0.35705350037E+03  0.00000000000E+00 0.  1.
         21   -1    0    0  501  502 -0.00000000000E+00 -0.00000000000E+00 -0.43549400035E+03  0.43549400035E+03  0.00000000000E+00 0.  1.
         25    1    1    2    0    0  0.56788647751E+02 -0.19665459773E+03  0.15096384354E+03  0.28339559520E+03  0.12500000000E+03 0.  0.
         25    1    1    2    0    0 -0.47793357612E+02  0.19799873291E+03  0.97130681007E+01  0.23917994682E+03  0.12500000000E+03 0.  0.
         25    1    1    2    0    0 -0.89952901382E+01 -0.13441351830E+01 -0.23911741162E+03  0.26997195870E+03  0.12500000000E+03 0.  0.
</event>
<event>
 5    0  0.5597833E-005  0.2903222E+03  0.7546771E-02  0.1090181E+00
         21   -1    0    0  502  501  0.00000000000E+00  0.00000000000E+00  0.39297201760E+03  0.39297201760E+03  0.00000000000E+00 0.  1.
         21   -1    0    0  501  502 -0.00000000000E+00 -0.00000000000E+00 -0.21448594892E+03  0.21448594892E+03  0.00000000000E+00 0.  1.
         25    1    1    2    0    0 -0.12128220826E+03 -0.69849602282E+01  0.12403748173E+03  0.21393564589E+03  0.12500000000E+03 0.  0.
         25    1    1    2    0    0 -0.27703039789E+02  0.75867294415E+02  0.10372472698E+03  0.18140320769E+03  0.12500000000E+03 0.  0.
         25    1    1    2    0    0  0.14898524805E+03 -0.68882334187E+02 -0.49276140020E+02  0.21211911294E+03  0.12500000000E+03 0.  0.
</event>
<event>
 5    0  0.5597833E-005  0.3680875E+03  0.7546771E-02  0.1055427E+00
         21   -1    0    0  502  501  0.00000000000E+00  0.00000000000E+00  0.97502757730E+02  0.97502757730E+02  0.00000000000E+00 0. -1.
         21   -1    0    0  501  502 -0.00000000000E+00 -0.00000000000E+00 -0.13895855483E+04  0.13895855483E+04  0.00000000000E+00 0. -1.
         25    1    1    2    0    0  0.28433632086E+02  0.26171920103E+02 -0.65909943124E+03  0.67196019309E+03  0.12500000000E+03 0.  0.
         25    1    1    2    0    0  0.76188996604E+02  0.13579318918E+03 -0.52409709200E+03  0.56084517941E+03  0.12500000000E+03 0.  0.
         25    1    1    2    0    0 -0.10462262869E+03 -0.16196510928E+03 -0.10888626729E+03  0.25428293349E+03  0.12500000000E+03 0.  0.
</event>
<event>
 5    0  0.5597833E-005  0.4788137E+03  0.7546771E-02  0.1019462E+00
         21   -1    0    0  502  501  0.00000000000E+00  0.00000000000E+00  0.17254127517E+03  0.17254127517E+03  0.00000000000E+00 0. -1.
         21   -1    0    0  501  502 -0.00000000000E+00 -0.00000000000E+00 -0.13287404276E+04  0.13287404276E+04  0.00000000000E+00 0. -1.
         25    1    1    2    0    0 -0.50767148790E+02 -0.27472883300E+03 -0.84766882186E+03  0.90123285927E+03  0.12500000000E+03 0.  0.
         25    1    1    2    0    0 -0.10583419770E+03  0.22594885537E+03 -0.75971158052E+02  0.28922375335E+03  0.12500000000E+03 0.  0.
         25    1    1    2    0    0  0.15660134649E+03  0.48779977629E+02 -0.23255917249E+03  0.31082509012E+03  0.12500000000E+03 0.  0.
</event>
<event>
 5    0  0.5597833E-005  0.3960530E+03  0.7546771E-02  0.1045155E+00
         21   -1    0    0  502  501  0.00000000000E+00  0.00000000000E+00  0.14353575197E+03  0.14353575197E+03  0.00000000000E+00 0. -1.
         21   -1    0    0  501  502 -0.00000000000E+00 -0.00000000000E+00 -0.10928145630E+04  0.10928145630E+04  0.00000000000E+00 0. -1.
         25    1    1    2    0    0  0.13730149501E+03  0.21281830530E+01 -0.22229086161E+03  0.28964539847E+03  0.12500000000E+03 0.  0.
         25    1    1    2    0    0 -0.32127042789E+03  0.10371118987E+03 -0.44026149310E+03  0.56870544313E+03  0.12500000000E+03 0.  0.
         25    1    1    2    0    0  0.18396893287E+03 -0.10583937293E+03 -0.28672645635E+03  0.37799947340E+03  0.12500000000E+03 0.  0.
</event>
<event>
 5    0  0.5929085E-005  0.2858909E+03  0.7546771E-02  0.1092514E+00
         21   -1    0    0  502  501  0.00000000000E+00  0.00000000000E+00  0.23607685727E+03  0.23607685727E+03  0.00000000000E+00 0. -1.
         21   -1    0    0  501  502 -0.00000000000E+00 -0.00000000000E+00 -0.34621603149E+03  0.34621603149E+03  0.00000000000E+00 0. -1.
         25    1    1    2    0    0 -0.56815093519E+02  0.34238681145E+02 -0.20008418253E+02  0.14291808472E+03  0.12500000000E+03 0.  0.
         25    1    1    2    0    0  0.48499262900E+02 -0.17221836152E+03 -0.12239840700E+03  0.25023531442E+03  0.12500000000E+03 0.  0.
         25    1    1    2    0    0  0.83158306183E+01  0.13797968037E+03  0.32267651029E+02  0.18913948963E+03  0.12500000000E+03 0.  0.
</event>
<event>
 5    0  0.5597833E-005  0.2675652E+03  0.7546771E-02  0.1102681E+00
         21   -1    0    0  502  501  0.00000000000E+00  0.00000000000E+00  0.25201366915E+03  0.25201366915E+03  0.00000000000E+00 0.  1.
         21   -1    0    0  501  502 -0.00000000000E+00 -0.00000000000E+00 -0.28407646322E+03  0.28407646322E+03  0.00000000000E+00 0.  1.
         25    1    1    2    0    0 -0.10951127988E+03  0.84710088254E+01  0.58743440390E+02  0.17646605963E+03  0.12500000000E+03 0.  0.
         25    1    1    2    0    0  0.87739182504E+01 -0.10211223997E+03 -0.32903576133E+02  0.16495919651E+03  0.12500000000E+03 0.  0.
         25    1    1    2    0    0  0.10073736163E+03  0.93641231141E+02 -0.57902658327E+02  0.19466487623E+03  0.12500000000E+03 0.  0.
</event>
<event>
 5    0  0.5597833E-005  0.2688752E+03  0.7546771E-02  0.1101925E+00
         21   -1    0    0  502  501  0.00000000000E+00  0.00000000000E+00  0.29284944316E+03  0.29284944316E+03  0.00000000000E+00 0. -1.
         21   -1    0    0  501  502 -0.00000000000E+00 -0.00000000000E+00 -0.24686369298E+03  0.24686369298E+03  0.00000000000E+00 0. -1.
         25    1    1    2    0    0  0.12513925475E+02  0.33319415423E+02 -0.33139787005E+02  0.13412690728E+03  0.12500000000E+03 0.  0.
         25    1    1    2    0    0 -0.77083318439E+02 -0.96041770492E+02 -0.72112392578E+02  0.18971309081E+03  0.12500000000E+03 0.  0.
         25    1    1    2    0    0  0.64569392964E+02  0.62722355069E+02  0.15123792976E+03  0.21587313805E+03  0.12500000000E+03 0.  0.
</event>
<event>
 5    0  0.5597833E-005  0.4015914E+03  0.7546771E-02  0.1043230E+00
         21   -1    0    0  502  501  0.00000000000E+00  0.00000000000E+00  0.11707905809E+04  0.11707905809E+04  0.00000000000E+00 0.  1.
         21   -1    0    0  501  502 -0.00000000000E+00 -0.00000000000E+00 -0.13774935537E+03  0.13774935537E+03  0.00000000000E+00 0.  1.
         25    1    1    2    0    0  0.95985139154E+02 -0.31621771163E+02  0.53741541316E+03  0.56093975581E+03  0.12500000000E+03 0.  0.
         25    1    1    2    0    0  0.47661621982E+02  0.23291224447E+03  0.32725768283E+03  0.42337021010E+03  0.12500000000E+03 0.  0.
         25    1    1    2    0    0 -0.14364676114E+03 -0.20129047331E+03  0.16836812957E+03  0.32422997037E+03  0.12500000000E+03 0.  0.
</event>
<event>
 5    0  0.5597833E-005  0.3870012E+03  0.7546771E-02  0.1048376E+00
         21   -1    0    0  502  501  0.00000000000E+00  0.00000000000E+00  0.32719736461E+03  0.32719736461E+03  0.00000000000E+00 0.  1.
         21   -1    0    0  501  502 -0.00000000000E+00 -0.00000000000E+00 -0.45773581421E+03  0.45773581421E+03  0.00000000000E+00 0.  1.
         25    1    1    2    0    0  0.24886846501E+03  0.19658488357E+03 -0.96745562511E+02  0.35435269604E+03  0.12500000000E+03 0.  0.
         25    1    1    2    0    0 -0.14279115643E+03 -0.10299295525E+03 -0.89530373230E+02  0.23374676664E+03  0.12500000000E+03 0.  0.
         25    1    1    2    0    0 -0.10607730858E+03 -0.93591928328E+02  0.55737486147E+02  0.19683371613E+03  0.12500000000E+03 0.  0.
</event>
<event>
 5    0  0.5597833E-005  0.2566760E+03  0.7546771E-02  0.1109157E+00
         21   -1    0    0  502  501  0.00000000000E+00  0.00000000000E+00  0.12160668843E+03  0.12160668843E+03  0.00000000000E+00 0.  1.
         21   -1    0    0  501  502 -0.00000000000E+00 -0.00000000000E+00 -0.54176775456E+03  0.54176775456E+03  0.00000000000E+00 0.  1.
         25    1    1    2    0    0 -0.47652345625E+00  0.16384907607E+02 -0.29638819144E+02  0.12950734293E+03  0.12500000000E+03 0.  0.
         25    1    1    2    0    0  0.11900603068E+03  0.23600646866E+02 -0.26452607886E+03  0.31673091461E+03  0.12500000000E+03 0.  0.
         25    1    1    2    0    0 -0.11852950722E+03 -0.39985554473E+02 -0.12599616813E+03  0.21713618545E+03  0.12500000000E+03 0.  0.
</event>
<event>
 5    0  0.5597833E-005  0.2894259E+03  0.7546771E-02  0.1090649E+00
         21   -1    0    0  502  501  0.00000000000E+00  0.00000000000E+00  0.22011635758E+03  0.22011635758E+03  0.00000000000E+00 0. -1.
         21   -1    0    0  501  502 -0.00000000000E+00 -0.00000000000E+00 -0.38055950033E+03  0.38055950033E+03  0.00000000000E+00 0. -1.
         25    1    1    2    0    0 -0.96469905098E+02 -0.94725012181E+01  0.12143898896E+02  0.15864628943E+03  0.12500000000E+03 0.  0.
         25    1    1    2    0    0 -0.97191301841E+01 -0.35225407285E+02 -0.22855651914E+03  0.26305583676E+03  0.12500000000E+03 0.  0.
         25    1    1    2    0    0  0.10618903528E+03  0.44697908503E+02  0.55969477498E+02  0.17897373173E+03  0.12500000000E+03 0.  0.
</event>
<event>
 5    0  0.5597833E-005  0.3576569E+03  0.7546771E-02  0.1059515E+00
         21   -1    0    0  502  501  0.00000000000E+00  0.00000000000E+00  0.15231620824E+03  0.15231620824E+03  0.00000000000E+00 0. -1.
         21   -1    0    0  501  502 -0.00000000000E+00 -0.00000000000E+00 -0.83982178165E+03  0.83982178165E+03  0.00000000000E+00 0. -1.
         25    1    1    2    0    0  0.65098172770E+02 -0.13218704874E+03 -0.18462187385E+03  0.26724787044E+03  0.12500000000E+03 0.  0.
         25    1    1    2    0    0 -0.46598757160E+02 -0.14671455167E+03 -0.10993598412E+03  0.22673227482E+03  0.12500000000E+03 0.  0.
         25    1    1    2    0    0 -0.18499415610E+02  0.27890160041E+03 -0.39294771544E+03  0.49815784462E+03  0.12500000000E+03 0.  0.
</event>
<event>
 5    0  0.5597833E-005  0.2314629E+03  0.7546771E-02  0.1125614E+00
         21   -1    0    0  502  501  0.00000000000E+00  0.00000000000E+00  0.16923953083E+03  0.16923953083E+03  0.00000000000E+00 0.  1.
         21   -1    0    0  501  502 -0.00000000000E+00 -0.00000000000E+00 -0.31656346681E+03  0.31656346681E+03  0.00000000000E+00 0.  1.
         25    1    1    2    0    0 -0.63565214238E+02  0.19392666059E+02 -0.14998830361E+03  0.20624767436E+03  0.12500000000E+03 0.  0.
         25    1    1    2    0    0  0.15245229607E+02 -0.49454320185E+02  0.32205892377E+02  0.13906964555E+03  0.12500000000E+03 0.  0.
         25    1    1    2    0    0  0.48319984632E+02  0.30061654126E+02 -0.29541524756E+02  0.14048567773E+03  0.12500000000E+03 0.  0.
</event>
<event>
 5    0  0.5597833E-005  0.2079264E+03  0.7546771E-02  0.1143219E+00
         21   -1    0    0  502  501  0.00000000000E+00  0.00000000000E+00  0.21062990227E+03  0.21062990227E+03  0.00000000000E+00 0.  1.
         21   -1    0    0  501  502 -0.00000000000E+00 -0.00000000000E+00 -0.20525757864E+03  0.20525757864E+03  0.00000000000E+00 0.  1.
         25    1    1    2    0    0 -0.42526136570E+02 -0.50965250281E+02 -0.45731560901E+02  0.14873568735E+03  0.12500000000E+03 0.  0.
         25    1    1    2    0    0  0.38032098953E+02  0.37512496355E+02  0.18463997071E+02  0.13718435451E+03  0.12500000000E+03 0.  0.
         25    1    1    2    0    0  0.44940376168E+01  0.13452753926E+02  0.32639887457E+02  0.12996743906E+03  0.12500000000E+03 0.  0.
</event>
<event>
 5    0  0.5597833E-005  0.2824712E+03  0.7546771E-02  0.1094347E+00
         21   -1    0    0  502  501  0.00000000000E+00  0.00000000000E+00  0.20360125022E+03  0.20360125022E+03  0.00000000000E+00 0.  1.
         21   -1    0    0  501  502 -0.00000000000E+00 -0.00000000000E+00 -0.39189349169E+03  0.39189349169E+03  0.00000000000E+00 0.  1.
         25    1    1    2    0    0  0.59447235314E+02  0.50808200442E+02 -0.59967580381E+02  0.15917461392E+03  0.12500000000E+03 0.  0.
         25    1    1    2    0    0  0.27748795001E+02 -0.36635954343E+02  0.96407509743E+02  0.16441288486E+03  0.12500000000E+03 0.  0.
         25    1    1    2    0    0 -0.87196030315E+02 -0.14172246098E+02 -0.22473217083E+03  0.27190724313E+03  0.12500000000E+03 0.  0.
</event>
<event>
 5    0  0.5597833E-005  0.3337437E+03  0.7546771E-02  0.1069492E+00
         21   -1    0    0  502  501  0.00000000000E+00  0.00000000000E+00  0.75431231558E+03  0.75431231558E+03  0.00000000000E+00 0.  1.
         21   -1    0    0  501  502 -0.00000000000E+00 -0.00000000000E+00 -0.14766409014E+03  0.14766409014E+03  0.00000000000E+00 0.  1.
         25    1    1    2    0    0 -0.24590002817E+02  0.66576252932E+02  0.23737743961E+03  0.27750696302E+03  0.12500000000E+03 0.  0.
         25    1    1    2    0    0  0.30421206404E+02 -0.23077044977E+03  0.31476320258E+03  0.41095172951E+03  0.12500000000E+03 0.  0.
         25    1    1    2    0    0 -0.58312035866E+01  0.16419419684E+03  0.54507583249E+02  0.21351771318E+03  0.12500000000E+03 0.  0.
</event>
<event>
 5    0  0.5597833E-005  0.2724226E+03  0.7546771E-02  0.1099901E+00
         21   -1    0    0  502  501  0.00000000000E+00  0.00000000000E+00  0.19724069632E+03  0.19724069632E+03  0.00000000000E+00 0.  1.
         21   -1    0    0  501  502 -0.00000000000E+00 -0.00000000000E+00 -0.37626150403E+03  0.37626150403E+03  0.00000000000E+00 0.  1.
         25    1    1    2    0    0  0.12212547522E+03 -0.13319838498E+03 -0.38276946152E+02  0.22303938232E+03  0.12500000000E+03 0.  0.
         25    1    1    2    0    0 -0.88057307785E+02  0.85362757648E+02 -0.11627400507E+03  0.21020355397E+03  0.12500000000E+03 0.  0.
         25    1    1    2    0    0 -0.34068167438E+02  0.47835627333E+02 -0.24469856485E+02  0.14025926405E+03  0.12500000000E+03 0.  0.
</event>
<event>
 5    0  0.5597833E-005  0.2639040E+03  0.7546771E-02  0.1104820E+00
         21   -1    0    0  502  501  0.00000000000E+00  0.00000000000E+00  0.14241237573E+03  0.14241237573E+03  0.00000000000E+00 0. -1.
         21   -1    0    0  501  502 -0.00000000000E+00 -0.00000000000E+00 -0.48903983061E+03  0.48903983061E+03  0.00000000000E+00 0. -1.
         25    1    1    2    0    0 -0.88991113247E+02  0.36938973817E+02 -0.30706416794E+03  0.34524963325E+03  0.12500000000E+03 0.  0.
         25    1    1    2    0    0  0.26723240046E+02  0.19672819726E+02  0.38422384439E+01  0.12938668475E+03  0.12500000000E+03 0.  0.
         25    1    1    2    0    0  0.62267873201E+02 -0.56611793543E+02 -0.43405525385E+02  0.15681588834E+03  0.12500000000E+03 0.  0.
</event>
<event>
 5    0  0.5597833E-005  0.3526923E+03  0.7546771E-02  0.1061515E+00
         21   -1    0    0  502  501  0.00000000000E+00  0.00000000000E+00  0.18395573673E+03  0.18395573673E+03  0.00000000000E+00 0.  1.
         21   -1    0    0  501  502 -0.00000000000E+00 -0.00000000000E+00 -0.67620531748E+03  0.67620531748E+03  0.00000000000E+00 0.  1.
         25    1    1    2    0    0  0.10041360159E+03  0.33056860820E+01 -0.18608205975E+03  0.24565290942E+03  0.12500000000E+03 0.  0.
         25    1    1    2    0    0  0.79664661484E+02  0.78430802574E+02  0.61582112464E+02  0.17864827359E+03  0.12500000000E+03 0.  0.
         25    1    1    2    0    0 -0.18007826307E+03 -0.81736488656E+02 -0.36774963346E+03  0.43585987120E+03  0.12500000000E+03 0.  0.
</event>
<event>
 5    0  0.5597833E-005  0.2248393E+03  0.7546771E-02  0.1130326E+00
         21   -1    0    0  502  501  0.00000000000E+00  0.00000000000E+00  0.15778013622E+03  0.15778013622E+03  0.00000000000E+00 0. -1.
         21   -1    0    0  501  502 -0.00000000000E+00 -0.00000000000E+00 -0.32039976448E+03  0.32039976448E+03  0.00000000000E+00 0. -1.
         25    1    1    2    0    0  0.35253262289E+00  0.98414023499E+02 -0.32325723976E+02  0.16234345300E+03  0.12500000000E+03 0.  0.
         25    1    1    2    0    0 -0.49133842212E+02 -0.37514152033E+02 -0.75861563098E+02  0.15874956003E+03  0.12500000000E+03 0.  0.
         25    1    1    2    0    0  0.48781309589E+02 -0.60899871466E+02 -0.54432341185E+02  0.15708688767E+03  0.12500000000E+03 0.  0.
</event>
<event>
 5    0  0.5915169E-005  0.2990125E+03  0.7546771E-02  0.1085735E+00
         21   -1    0    0  502  501  0.00000000000E+00  0.00000000000E+00  0.88616843288E+03  0.88616843288E+03  0.00000000000E+00 0.  1.
         21   -1    0    0  501  502 -0.00000000000E+00 -0.00000000000E+00 -0.10089332278E+03  0.10089332278E+03  0.00000000000E+00 0.  1.
         25    1    1    2    0    0  0.99973021235E+02  0.94466219270E+02  0.82669422785E+02  0.20341510520E+03  0.12500000000E+03 0.  0.
         25    1    1    2    0    0 -0.46968732326E+01 -0.11892072858E+03  0.24906544220E+03  0.30302276285E+03  0.12500000000E+03 0.  0.
         25    1    1    2    0    0 -0.95276148003E+02  0.24454509308E+02  0.45354024512E+03  0.48062388761E+03  0.12500000000E+03 0.  0.
</event>
<event>
 5    0  0.5713747E-005  0.3542809E+03  0.7546771E-02  0.1060872E+00
         21   -1    0    0  502  501  0.00000000000E+00  0.00000000000E+00  0.41747512111E+03  0.41747512111E+03  0.00000000000E+00 0.  1.
         21   -1    0    0  501  502 -0.00000000000E+00 -0.00000000000E+00 -0.30065259222E+03  0.30065259222E+03  0.00000000000E+00 0.  1.
         25    1    1    2    0    0 -0.13332071857E+03 -0.23381601057E+02  0.49228196997E+02  0.19070796692E+03  0.12500000000E+03 0.  0.
         25    1    1    2    0    0  0.36791581051E+02  0.12255134396E+03 -0.15523923538E+03  0.23684736128E+03  0.12500000000E+03 0.  0.
         25    1    1    2    0    0  0.96529137519E+02 -0.99169742905E+02  0.22283356727E+03  0.29057238513E+03  0.12500000000E+03 0.  0.
</event>
<event>
 5    0  0.5597833E-005  0.4836136E+03  0.7546771E-02  0.1018147E+00
         21   -1    0    0  502  501  0.00000000000E+00  0.00000000000E+00  0.52372149223E+03  0.52372149223E+03  0.00000000000E+00 0. -1.
         21   -1    0    0  501  502 -0.00000000000E+00 -0.00000000000E+00 -0.44657719596E+03  0.44657719596E+03  0.00000000000E+00 0. -1.
         25    1    1    2    0    0  0.10075955266E+02  0.15442442238E+02  0.16739553730E+03  0.20972901518E+03  0.12500000000E+03 0.  0.
         25    1    1    2    0    0 -0.12430929935E+03  0.15395891239E+03  0.25129299526E+03  0.34340838382E+03  0.12500000000E+03 0.  0.
         25    1    1    2    0    0  0.11423334408E+03 -0.16940135463E+03 -0.34154423630E+03  0.41716128919E+03  0.12500000000E+03 0.  0.
</event>
<event>
 5    0  0.6011076E-005  0.3291426E+03  0.7546771E-02  0.1071517E+00
         21   -1    0    0  502  501  0.00000000000E+00  0.00000000000E+00  0.66358010189E+03  0.66358010189E+03  0.00000000000E+00 0. -1.
         21   -1    0    0  501  502 -0.00000000000E+00 -0.00000000000E+00 -0.16325814362E+03  0.16325814362E+03  0.00000000000E+00 0. -1.
         25    1    1    2    0    0  0.91990134207E+02  0.17233287242E+03  0.31997486616E+03  0.39518314575E+03  0.12500000000E+03 0.  0.
         25    1    1    2    0    0 -0.54604985366E+02 -0.11798327376E+03  0.22036696767E+03  0.28476017586E+03  0.12500000000E+03 0.  0.
         25    1    1    2    0    0 -0.37385148841E+02 -0.54349598657E+02 -0.40019875570E+02  0.14689492390E+03  0.12500000000E+03 0.  0.
</event>
<event>
 5    0  0.5597833E-005  0.4544928E+03  0.7546771E-02  0.1026391E+00
         21   -1    0    0  502  501  0.00000000000E+00  0.00000000000E+00  0.19778870436E+03  0.19778870436E+03  0.00000000000E+00 0. -1.
         21   -1    0    0  501  502 -0.00000000000E+00 -0.00000000000E+00 -0.10443654025E+04  0.10443654025E+04  0.00000000000E+00 0. -1.
         25    1    1    2    0    0  0.11157908860E+03 -0.27152325191E+02 -0.60912828217E+03  0.63233646575E+03  0.12500000000E+03 0.  0.
         25    1    1    2    0    0  0.10919714237E+03  0.17334612349E+03 -0.20421972424E+03  0.31512472166E+03  0.12500000000E+03 0.  0.
         25    1    1    2    0    0 -0.22077623098E+03 -0.14619379830E+03 -0.33228691745E+02  0.29469291946E+03  0.12500000000E+03 0.  0.
</event>
<event>
 5    0  0.5597833E-005  0.2602258E+03  0.7546771E-02  0.1107008E+00
         21   -1    0    0  502  501  0.00000000000E+00  0.00000000000E+00  0.47538945882E+03  0.47538945882E+03  0.00000000000E+00 0.  1.
         21   -1    0    0  501  502 -0.00000000000E+00 -0.00000000000E+00 -0.14244628262E+03  0.14244628262E+03  0.00000000000E+00 0.  1.
         25    1    1    2    0    0  0.24602774711E+02  0.11504547327E+03  0.16980858013E+03  0.24145540236E+03  0.12500000000E+03 0.  0.
         25    1    1    2    0    0 -0.38012647366E+02 -0.53541947872E+02  0.18708804842E+03  0.23438993026E+03  0.12500000000E+03 0.  0.
         25    1    1    2    0    0  0.13409872655E+02 -0.61503525396E+02 -0.23953452355E+02  0.14199040883E+03  0.12500000000E+03 0.  0.
</event>
<event>
 5    0  0.5597833E-005  0.2999160E+03  0.7546771E-02  0.1085283E+00
         21   -1    0    0  502  501  0.00000000000E+00  0.00000000000E+00  0.15017826343E+04  0.15017826343E+04  0.00000000000E+00 0. -1.
         21   -1    0    0  501  502 -0.00000000000E+00 -0.00000000000E+00 -0.59895233939E+02  0.59895233939E+02  0.00000000000E+00 0. -1.
         25    1    1    2    0    0  0.30034213878E+02 -0.47650736523E+02  0.10319004419E+04  0.10409688605E+04  0.12500000000E+03 0.  0.
         25    1    1    2    0    0 -0.65435945054E+02 -0.29364048988E+02  0.98564083435E+02  0.17459664608E+03  0.12500000000E+03 0.  0.
         25    1    1    2    0    0  0.35401731176E+02  0.77014785511E+02  0.31142287509E+03  0.34611236165E+03  0.12500000000E+03 0.  0.
</event>
<event>
 5    0  0.5597833E-005  0.3336609E+03  0.7546771E-02  0.1069528E+00
         21   -1    0    0  502  501  0.00000000000E+00  0.00000000000E+00  0.32192080650E+03  0.32192080650E+03  0.00000000000E+00 0. -1.
         21   -1    0    0  501  502 -0.00000000000E+00 -0.00000000000E+00 -0.34582907710E+03  0.34582907710E+03  0.00000000000E+00 0. -1.
         25    1    1    2    0    0  0.16366813606E+03 -0.13685104035E+03  0.42181880853E+02  0.25083814917E+03  0.12500000000E+03 0.  0.
         25    1    1    2    0    0 -0.12520357005E+02 -0.38735336336E+01  0.65761896792E+02  0.14184988781E+03  0.12500000000E+03 0.  0.
         25    1    1    2    0    0 -0.15114777906E+03  0.14072457398E+03 -0.13185204825E+03  0.27506184662E+03  0.12500000000E+03 0.  0.
</event>
<event>
 5    0  0.5597833E-005  0.2561561E+03  0.7546771E-02  0.1109475E+00
         21   -1    0    0  502  501  0.00000000000E+00  0.00000000000E+00  0.32495389350E+03  0.32495389350E+03  0.00000000000E+00 0.  1.
         21   -1    0    0  501  502 -0.00000000000E+00 -0.00000000000E+00 -0.20192386023E+03  0.20192386023E+03  0.00000000000E+00 0.  1.
         25    1    1    2    0    0 -0.24275342536E+02 -0.62210512397E+02  0.95126869891E+02  0.17068556320E+03  0.12500000000E+03 0.  0.
         25    1    1    2    0    0  0.12261339573E+03  0.83238763195E+02  0.27103368209E+02  0.19576089773E+03  0.12500000000E+03 0.  0.
         25    1    1    2    0    0 -0.98338053196E+02 -0.21028250798E+02  0.79979517401E+00  0.16043129280E+03  0.12500000000E+03 0.  0.
</event>
<event>
 5    0  0.5597833E-005  0.2515997E+03  0.7546771E-02  0.1112298E+00
         21   -1    0    0  502  501  0.00000000000E+00  0.00000000000E+00  0.92233157511E+03  0.92233157511E+03  0.00000000000E+00 0.  1.
         21   -1    0    0  501  502 -0.00000000000E+00 -0.00000000000E+00 -0.68633041493E+02  0.68633041493E+02  0.00000000000E+00 0.  1.
         25    1    1    2    0    0 -0.10089440507E+03  0.45617936974E+02  0.18627920245E+03  0.25017117822E+03  0.12500000000E+03 0.  0.
         25    1    1    2    0    0  0.28169192808E+02 -0.31430354233E+02  0.13444874135E+03  0.18836887918E+03  0.12500000000E+03 0.  0.
         25    1    1    2    0    0  0.72725212267E+02 -0.14187582741E+02  0.53297058982E+03  0.55242455921E+03  0.12500000000E+03 0.  0.
</event>
<event>
 5    0  0.5597833E-005  0.2471965E+03  0.7546771E-02  0.1115089E+00
         21   -1    0    0  502  501  0.00000000000E+00  0.00000000000E+00  0.21108233385E+03  0.21108233385E+03  0.00000000000E+00 0. -1.
         21   -1    0    0  501  502 -0.00000000000E+00 -0.00000000000E+00 -0.28948946468E+03  0.28948946468E+03  0.00000000000E+00 0. -1.
         25    1    1    2    0    0  0.31983392505E+01 -0.68824129638E+01 -0.11843818003E+03  0.17236646852E+03  0.12500000000E+03 0.  0.
         25    1    1    2    0    0  0.21204563928E+02 -0.50174966076E+02  0.10708418624E+03  0.17337584519E+03  0.12500000000E+03 0.  0.
         25    1    1    2    0    0 -0.24402903178E+02  0.57057379040E+02 -0.67053137039E+02  0.15482948483E+03  0.12500000000E+03 0.  0.
</event>
<event>
 5    0  0.5597833E-005  0.3230759E+03  0.7546771E-02  0.1074242E+00
         21   -1    0    0  502  501  0.00000000000E+00  0.00000000000E+00  0.17748687571E+03  0.17748687571E+03  0.00000000000E+00 0.  1.
         21   -1    0    0  501  502 -0.00000000000E+00 -0.00000000000E+00 -0.58808887464E+03  0.58808887464E+03  0.00000000000E+00 0.  1.
         25    1    1    2    0    0  0.12018982826E+03  0.87380308567E+01 -0.46345116296E+02  0.17970758973E+03  0.12500000000E+03 0.  0.
         25    1    1    2    0    0 -0.23136405921E+02 -0.12809607230E+03 -0.34162275785E+03  0.38636123731E+03  0.12500000000E+03 0.  0.
         25    1    1    2    0    0 -0.97053422339E+02  0.11935804144E+03 -0.22634124785E+02  0.19950692331E+03  0.12500000000E+03 0.  0.
</event>
<event>
 5    0  0.5597833E-005  0.3271320E+03  0.7546771E-02  0.1072413E+00
         21   -1    0    0  502  501  0.00000000000E+00  0.00000000000E+00  0.56747948606E+02  0.56747948606E+02  0.00000000000E+00 0. -1.
         21   -1    0    0  501  502 -0.00000000000E+00 -0.00000000000E+00 -0.18858006624E+04  0.18858006624E+04  0.00000000000E+00 0. -1.
         25    1    1    2    0    0  0.72577705909E+02  0.11705881694E+03 -0.11971645692E+04  0.12115272575E+04  0.12500000000E+03 0.  0.
         25    1    1    2    0    0 -0.72429538556E+02  0.45747594186E+02 -0.18421197689E+03  0.23853287585E+03  0.12500000000E+03 0.  0.
         25    1    1    2    0    0 -0.14816735350E+00 -0.16280641113E+03 -0.44767616772E+03  0.49248847764E+03  0.12500000000E+03 0.  0.
</event>
<event>
 5    0  0.5597833E-005  0.3631273E+03  0.7546771E-02  0.1057352E+00
         21   -1    0    0  502  501  0.00000000000E+00  0.00000000000E+00  0.34589505560E+03  0.34589505560E+03  0.00000000000E+00 0. -1.
         21   -1    0    0  501  502 -0.00000000000E+00 -0.00000000000E+00 -0.38121803852E+03  0.38121803852E+03  0.00000000000E+00 0. -1.
         25    1    1    2    0    0 -0.16445362405E+03 -0.20183415238E+03  0.13770414846E+03  0.31995226524E+03  0.12500000000E+03 0.  0.
         25    1    1    2    0    0  0.47307803135E+02  0.11469725815E+03 -0.90169255807E+02  0.19786102182E+03  0.12500000000E+03 0.  0.
         25    1    1    2    0    0  0.11714582091E+03  0.87136894227E+02 -0.82857875576E+02  0.20929980707E+03  0.12500000000E+03 0.  0.
</event>
<event>
 5    0  0.5648801E-005  0.3237328E+03  0.7546771E-02  0.1073944E+00
         21   -1    0    0  502  501  0.00000000000E+00  0.00000000000E+00  0.22874110798E+03  0.22874110798E+03  0.00000000000E+00 0. -1.
         21   -1    0    0  501  502 -0.00000000000E+00 -0.00000000000E+00 -0.45817265747E+03  0.45817265747E+03  0.00000000000E+00 0. -1.
         25    1    1    2    0    0 -0.12858478983E+03 -0.13460030467E+03 -0.21122412849E+03  0.30804532564E+03  0.12500000000E+03 0.  0.
         25    1    1    2    0    0 -0.45139605278E+00 -0.22228686678E+01  0.61581532941E+02  0.13936437889E+03  0.12500000000E+03 0.  0.
         25    1    1    2    0    0  0.12903618588E+03  0.13682317333E+03 -0.79788953942E+02  0.23950406093E+03  0.12500000000E+03 0.  0.
</event>
<event>
 5    0  0.5597833E-005  0.4200989E+03  0.7546771E-02  0.1037034E+00
         21   -1    0    0  502  501  0.00000000000E+00  0.00000000000E+00  0.22495082743E+03  0.22495082743E+03  0.00000000000E+00 0.  1.
         21   -1    0    0  501  502 -0.00000000000E+00 -0.00000000000E+00 -0.78454080842E+03  0.78454080842E+03  0.00000000000E+00 0.  1.
         25    1    1    2    0    0 -0.74217462336E+02  0.32980107544E+03 -0.29954046390E+03  0.46864322314E+03  0.12500000000E+03 0.  0.
         25    1    1    2    0    0 -0.71602018785E+02 -0.18060756860E+03 -0.12777815038E+03  0.26400416407E+03  0.12500000000E+03 0.  0.
         25    1    1    2    0    0  0.14581948112E+03 -0.14919350684E+03 -0.13227136671E+03  0.27684424864E+03  0.12500000000E+03 0.  0.
</event>
<event>
 5    0  0.5597833E-005  0.2554281E+03  0.7546771E-02  0.1109922E+00
         21   -1    0    0  502  501  0.00000000000E+00  0.00000000000E+00  0.81969088292E+02  0.81969088292E+02  0.00000000000E+00 0.  1.
         21   -1    0    0  501  502 -0.00000000000E+00 -0.00000000000E+00 -0.79595292036E+03  0.79595292036E+03  0.00000000000E+00 0.  1.
         25    1    1    2    0    0  0.83506866489E+02  0.22491672428E+02 -0.20631687226E+03  0.25626338767E+03  0.12500000000E+03 0.  0.
         25    1    1    2    0    0 -0.15412403116E+03 -0.55755248873E+02 -0.34728536295E+03  0.40385020500E+03  0.12500000000E+03 0.  0.
         25    1    1    2    0    0  0.70617164672E+02  0.33263576445E+02 -0.16038159687E+03  0.21780841599E+03  0.12500000000E+03 0.  0.
</event>
<event>
 5    0  0.5970929E-005  0.3031398E+03  0.7546771E-02  0.1083681E+00
         21   -1    0    0  502  501  0.00000000000E+00  0.00000000000E+00  0.87330229636E+02  0.87330229636E+02  0.00000000000E+00 0. -1.
         21   -1    0    0  501  502 -0.00000000000E+00 -0.00000000000E+00 -0.10522559040E+04  0.10522559040E+04  0.00000000000E+00 0. -1.
         25    1    1    2    0    0 -0.20231743290E+02 -0.80931505232E+02 -0.15012313338E+03  0.21241748316E+03  0.12500000000E+03 0.  0.
         25    1    1    2    0    0  0.15592102619E+03 -0.30539699440E+02 -0.24306567792E+03  0.31614864136E+03  0.12500000000E+03 0.  0.
         25    1    1    2    0    0 -0.13568928290E+03  0.11147120467E+03 -0.57173686310E+03  0.61102000916E+03  0.12500000000E+03 0.  0.
</event>
<event>
 5    0  0.5597833E-005  0.3237150E+03  0.7546771E-02  0.1073952E+00
         21   -1    0    0  502  501  0.00000000000E+00  0.00000000000E+00  0.20663212520E+03  0.20663212520E+03  0.00000000000E+00 0.  1.
         21   -1    0    0  501  502 -0.00000000000E+00 -0.00000000000E+00 -0.50713986229E+03  0.50713986229E+03  0.00000000000E+00 0.  1.
         25    1    1    2    0    0 -0.87174447332E+02 -0.92878103032E+02  0.44258567266E+02  0.18387372587E+03  0.12500000000E+03 0.  0.
         25    1    1    2    0    0 -0.27867199906E+02 -0.81272221303E+02 -0.84492101958E+02  0.17362508482E+03  0.12500000000E+03 0.  0.
         25    1    1    2    0    0  0.11504164724E+03  0.17415032434E+03 -0.26027420241E+03  0.35627317679E+03  0.12500000000E+03 0.  0.
</event>
<event>
 5    0  0.6103177E-005  0.2795656E+03  0.7546771E-02  0.1095926E+00
         21   -1    0    0  502  501  0.00000000000E+00  0.00000000000E+00  0.15245795387E+03  0.15245795387E+03  0.00000000000E+00 0. -1.
         21   -1    0    0  501  502 -0.00000000000E+00 -0.00000000000E+00 -0.51264564044E+03  0.51264564044E+03  0.00000000000E+00 0. -1.
         25    1    1    2    0    0 -0.88184497168E+02  0.20722044930E+02 -0.46105472937E+02  0.16111059345E+03  0.12500000000E+03 0.  0.
         25    1    1    2    0    0  0.23678406568E+02  0.20618164372E+02 -0.33214380010E+03  0.35627276009E+03  0.12500000000E+03 0.  0.
         25    1    1    2    0    0  0.64506090600E+02 -0.41340209303E+02  0.18061586461E+02  0.14772024078E+03  0.12500000000E+03 0.  0.
</event>
<event>
 5    0  0.5597833E-005  0.4016127E+03  0.7546771E-02  0.1043223E+00
         21   -1    0    0  502  501  0.00000000000E+00  0.00000000000E+00  0.42281008511E+03  0.42281008511E+03  0.00000000000E+00 0.  1.
         21   -1    0    0  501  502 -0.00000000000E+00 -0.00000000000E+00 -0.38147805364E+03  0.38147805364E+03  0.00000000000E+00 0.  1.
         25    1    1    2    0    0 -0.97919417881E+02  0.19219688931E+03  0.97439356910E+02  0.26767010467E+03  0.12500000000E+03 0.  0.
         25    1    1    2    0    0  0.26009293438E+03 -0.76806567182E+02 -0.28732047250E+02  0.29999685634E+03  0.12500000000E+03 0.  0.
         25    1    1    2    0    0 -0.16217351650E+03 -0.11539032213E+03 -0.27375278194E+02  0.23662117773E+03  0.12500000000E+03 0.  0.
</event>
<event>
 5    0  0.5597833E-005  0.3637897E+03  0.7546771E-02  0.1057093E+00
         21   -1    0    0  502  501  0.00000000000E+00  0.00000000000E+00  0.23301788794E+03  0.23301788794E+03  0.00000000000E+00 0. -1.
         21   -1    0    0  501  502 -0.00000000000E+00 -0.00000000000E+00 -0.56795190858E+03  0.56795190858E+03  0.00000000000E+00 0. -1.
         25    1    1    2    0    0 -0.19132027481E+03 -0.12182868705E+03 -0.19171970802E+03  0.32222216402E+03  0.12500000000E+03 0.  0.
         25    1    1    2    0    0  0.46335874779E+02  0.10148520703E+03 -0.21562930338E+03  0.27307005880E+03  0.12500000000E+03 0.  0.
         25    1    1    2    0    0  0.14498440003E+03  0.20343480019E+02  0.72414990768E+02  0.20567757369E+03  0.12500000000E+03 0.  0.
</event>
<event>
 5    0  0.5597833E-005  0.3325976E+03  0.7546771E-02  0.1069993E+00
         21   -1    0    0  502  501  0.00000000000E+00  0.00000000000E+00  0.40517970496E+03  0.40517970496E+03  0.00000000000E+00 0. -1.
         21   -1    0    0  501  502 -0.00000000000E+00 -0.00000000000E+00 -0.27301752917E+03  0.27301752917E+03  0.00000000000E+00 0. -1.
         25    1    1    2    0    0 -0.12513090745E+03  0.25376950910E+02  0.24846959907E+02  0.18039984771E+03  0.12500000000E+03 0.  0.
         25    1    1    2    0    0 -0.82701250925E+01 -0.19277758826E+03  0.59180097058E+01  0.22998177394E+03  0.12500000000E+03 0.  0.
         25    1    1    2    0    0  0.13340103254E+03  0.16740063735E+03  0.10139720618E+03  0.26781561248E+03  0.12500000000E+03 0.  0.
</event>
<event>
 5    0  0.5597833E-005  0.3683898E+03  0.7546771E-02  0.1055310E+00
         21   -1    0    0  502  501  0.00000000000E+00  0.00000000000E+00  0.91811921547E+03  0.91811921547E+03  0.00000000000E+00 0.  1.
         21   -1    0    0  501  502 -0.00000000000E+00 -0.00000000000E+00 -0.14781417572E+03  0.14781417572E+03  0.00000000000E+00 0.  1.
         25    1    1    2    0    0 -0.19120552169E+03  0.17654767826E+02  0.62328795610E+03  0.66406635103E+03  0.12500000000E+03 0.  0.
         25    1    1    2    0    0 -0.66034494031E+01  0.31260726336E+02  0.86310719185E+02  0.15522686237E+03  0.12500000000E+03 0.  0.
         25    1    1    2    0    0  0.19780897109E+03 -0.48915494162E+02  0.60706364467E+02  0.24664017779E+03  0.12500000000E+03 0.  0.
</event>
<event>
 5    0  0.5597833E-005  0.2258490E+03  0.7546771E-02  0.1129596E+00
         21   -1    0    0  502  501  0.00000000000E+00  0.00000000000E+00  0.50552629060E+03  0.50552629060E+03  0.00000000000E+00 0. -1.
         21   -1    0    0  501  502 -0.00000000000E+00 -0.00000000000E+00 -0.10090033548E+03  0.10090033548E+03  0.00000000000E+00 0. -1.
         25    1    1    2    0    0 -0.60604806916E+02 -0.89320526912E+02  0.10161932367E+03  0.19391386256E+03  0.12500000000E+03 0.  0.
         25    1    1    2    0    0  0.30245504113E+02  0.22920575925E+02  0.18086262066E+03  0.22310632190E+03  0.12500000000E+03 0.  0.
         25    1    1    2    0    0  0.30359302804E+02  0.66399950987E+02  0.12214401079E+03  0.18940644162E+03  0.12500000000E+03 0.  0.
</event>
<event>
 5    0  0.5597833E-005  0.3277635E+03  0.7546771E-02  0.1072131E+00
         21   -1    0    0  502  501  0.00000000000E+00  0.00000000000E+00  0.50765655672E+03  0.50765655672E+03  0.00000000000E+00 0.  1.
         21   -1    0    0  501  502 -0.00000000000E+00 -0.00000000000E+00 -0.21161726988E+03  0.21161726988E+03  0.00000000000E+00 0.  1.
         25    1    1    2    0    0 -0.18781737579E+03 -0.11335477582E+03  0.75916404552E+02  0.26365312881E+03  0.12500000000E+03 0.  0.
         25    1    1    2    0    0  0.16874064436E+03  0.68620813516E+02  0.23274512795E+03  0.32090109955E+03  0.12500000000E+03 0.  0.
         25    1    1    2    0    0  0.19076731425E+02  0.44733962307E+02 -0.12622245666E+02  0.13471959824E+03  0.12500000000E+03 0.  0.
</event>
<event>
 5    0  0.5597833E-005  0.3279366E+03  0.7546771E-02  0.1072054E+00
         21   -1    0    0  502  501  0.00000000000E+00  0.00000000000E+00  0.29224878923E+03  0.29224878923E+03  0.00000000000E+00 0.  1.
         21   -1    0    0  501  502 -0.00000000000E+00 -0.00000000000E+00 -0.36798250620E+03  0.36798250620E+03  0.00000000000E+00 0.  1.
         25    1    1    2    0    0 -0.40757205911E+02 -0.13096782141E+03  0.16880078503E+02  0.18634284834E+03  0.12500000000E+03 0.  0.
         25    1    1    2    0    0 -0.27855412324E+02 -0.10710262236E+03 -0.10303822702E+03  0.19618555487E+03  0.12500000000E+03 0.  0.
         25    1    1    2    0    0  0.68612618235E+02  0.23807044376E+03  0.10424431554E+02  0.27770289222E+03  0.12500000000E+03 0.  0.
</event>
<event>
 5    0  0.5597833E-005  0.2194356E+03  0.7546771E-02  0.1134305E+00
         21   -1    0    0  502  501  0.00000000000E+00  0.00000000000E+00  0.94253562400E+02  0.94253562400E+02  0.00000000000E+00 0. -1.
         21   -1    0    0  501  502 -0.00000000000E+00 -0.00000000000E+00 -0.51087718974E+03  0.51087718974E+03  0.00000000000E+00 0. -1.
         25    1    1    2    0    0 -0.30725896752E+02  0.47047359515E+02 -0.22646461606E+03  0.26470503791E+03  0.12500000000E+03 0.  0.
         25    1    1    2    0    0 -0.35207718673E+02 -0.54508975213E+02 -0.95748959077E+02  0.17030465348E+03  0.12500000000E+03 0.  0.
         25    1    1    2    0    0  0.65933615425E+02  0.74616156978E+01 -0.94410052197E+02  0.17012106074E+03  0.12500000000E+03 0.  0.
</event>
<event>
 5    0  0.5597833E-005  0.2628302E+03  0.7546771E-02  0.1105455E+00
         21   -1    0    0  502  501  0.00000000000E+00  0.00000000000E+00  0.12227897332E+03  0.12227897332E+03  0.00000000000E+00 0.  1.
         21   -1    0    0  501  502 -0.00000000000E+00 -0.00000000000E+00 -0.56493548620E+03  0.56493548620E+03  0.00000000000E+00 0.  1.
         25    1    1    2    0    0  0.65380200701E+02  0.59299443033E+02 -0.83195012123E+02  0.17417636071E+03  0.12500000000E+03 0.  0.
         25    1    1    2    0    0 -0.34842927019E+02 -0.24274520794E+02 -0.35594051777E+03  0.37963394752E+03  0.12500000000E+03 0.  0.
         25    1    1    2    0    0 -0.30537273682E+02 -0.35024922238E+02 -0.35209829921E+01  0.13340415130E+03  0.12500000000E+03 0.  0.
</event>
<event>
 5    0  0.5597833E-005  0.3452847E+03  0.7546771E-02  0.1064567E+00
         21   -1    0    0  502  501  0.00000000000E+00  0.00000000000E+00  0.46256200569E+02  0.46256200569E+02  0.00000000000E+00 0. -1.
         21   -1    0    0  501  502 -0.00000000000E+00 -0.00000000000E+00 -0.25774178633E+04  0.25774178633E+04  0.00000000000E+00 0. -1.
         25    1    1    2    0    0 -0.16490769789E+03 -0.28658288621E+02 -0.63036082262E+03  0.66407500557E+03  0.12500000000E+03 0.  0.
         25    1    1    2    0    0  0.22527958059E+03 -0.67627496533E+02 -0.15177800295E+04  0.15409755305E+04  0.12500000000E+03 0.  0.
         25    1    1    2    0    0 -0.60371882703E+02  0.96285785154E+02 -0.38302081057E+03  0.41862352774E+03  0.12500000000E+03 0.  0.
</event>
<event>
 5    0  0.5597833E-005  0.2755889E+03  0.7546771E-02  0.1098123E+00
         21   -1    0    0  502  501  0.00000000000E+00  0.00000000000E+00  0.20108432774E+03  0.20108432774E+03  0.00000000000E+00 0.  1.
         21   -1    0    0  501  502 -0.00000000000E+00 -0.00000000000E+00 -0.37769835952E+03  0.37769835952E+03  0.00000000000E+00 0.  1.
         25    1    1    2    0    0  0.48455451192E+02  0.48548682429E+02 -0.10650434422E+03  0.17796932504E+03  0.12500000000E+03 0.  0.
         25    1    1    2    0    0  0.25565241214E+01 -0.14831600973E+03  0.42612872096E+02  0.19860773254E+03  0.12500000000E+03 0.  0.
         25    1    1    2    0    0 -0.51011975313E+02  0.99767327298E+02 -0.11272255965E+03  0.20220562968E+03  0.12500000000E+03 0.  0.
</event>
<event>
 5    0  0.5597833E-005  0.5313175E+03  0.7546771E-02  0.1005913E+00
         21   -1    0    0  502  501  0.00000000000E+00  0.00000000000E+00  0.15443903387E+03  0.15443903387E+03  0.00000000000E+00 0.  1.
         21   -1    0    0  501  502 -0.00000000000E+00 -0.00000000000E+00 -0.18278943491E+04  0.18278943491E+04  0.00000000000E+00 0.  1.
         25    1    1    2    0    0  0.39848936338E+02 -0.28672009789E+03 -0.37817066744E+03  0.49237628494E+03  0.12500000000E+03 0.  0.
         25    1    1    2    0    0  0.12510012140E+03 -0.16049631986E+03 -0.34643714321E+03  0.42077642907E+03  0.12500000000E+03 0.  0.
         25    1    1    2    0    0 -0.16494905773E+03  0.44721641774E+03 -0.94884750461E+03  0.10691806690E+04  0.12500000000E+03 0.  0.
</event>
<event>
 5    0  0.5597833E-005  0.2583356E+03  0.7546771E-02  0.1108147E+00
         21   -1    0    0  502  501  0.00000000000E+00  0.00000000000E+00  0.10765988785E+04  0.10765988785E+04  0.00000000000E+00 0. -1.
         21   -1    0    0  501  502 -0.00000000000E+00 -0.00000000000E+00 -0.61989005178E+02  0.61989005178E+02  0.00000000000E+00 0. -1.
         25    1    1    2    0    0 -0.30473708196E+02  0.60429980376E+01  0.53265396468E+03  0.54800584924E+03  0.12500000000E+03 0.  0.
         25    1    1    2    0    0  0.81689509634E+02 -0.95868228394E+02  0.22266922769E+03  0.28472878000E+03  0.12500000000E+03 0.  0.
         25    1    1    2    0    0 -0.51215801438E+02  0.89825230357E+02  0.25928668091E+03  0.30585325439E+03  0.12500000000E+03 0.  0.
</event>
<event>
 5    0  0.5597833E-005  0.5984496E+03  0.7546771E-02  0.9908628E-01
         21   -1    0    0  502  501  0.00000000000E+00  0.00000000000E+00  0.14219802507E+03  0.14219802507E+03  0.00000000000E+00 0.  1.
         21   -1    0    0  501  502 -0.00000000000E+00 -0.00000000000E+00 -0.25186141868E+04  0.25186141868E+04  0.00000000000E+00 0.  1.
         25    1    1    2    0    0  0.15002362392E+03 -0.45550351445E+03 -0.83511899308E+03  0.97110209145E+03  0.12500000000E+03 0.  0.
         25    1    1    2    0    0  0.11314062136E+03  0.21447720350E+03 -0.37560491472E+03  0.46422550876E+03  0.12500000000E+03 0.  0.
         25    1    1    2    0    0 -0.26316424527E+03  0.24102631095E+03 -0.11656922539E+04  0.12254846117E+04  0.12500000000E+03 0.  0.
</event>
<event>
 5    0  0.5597833E-005  0.2801431E+03  0.7546771E-02  0.1095611E+00
         21   -1    0    0  502  501  0.00000000000E+00  0.00000000000E+00  0.64395986081E+03  0.64395986081E+03  0.00000000000E+00 0.  1.
         21   -1    0    0  501  502 -0.00000000000E+00 -0.00000000000E+00 -0.12187123590E+03  0.12187123590E+03  0.00000000000E+00 0.  1.
         25    1    1    2    0    0 -0.54773465423E+02 -0.13865021543E+03  0.13669225677E+03  0.23776834906E+03  0.12500000000E+03 0.  0.
         25    1    1    2    0    0  0.31822329051E+02 -0.44211449014E+02  0.17351750286E+03  0.22068220737E+03  0.12500000000E+03 0.  0.
         25    1    1    2    0    0  0.22951136372E+02  0.18286166445E+03  0.21187886528E+03  0.30738054027E+03  0.12500000000E+03 0.  0.
</event>
<event>
 5    0  0.5597833E-005  0.3091726E+03  0.7546771E-02  0.1080743E+00
         21   -1    0    0  502  501  0.00000000000E+00  0.00000000000E+00  0.66716622706E+03  0.66716622706E+03  0.00000000000E+00 0.  1.
         21   -1    0    0  501  502 -0.00000000000E+00 -0.00000000000E+00 -0.14327422480E+03  0.14327422480E+03  0.00000000000E+00 0.  1.
         25    1    1    2    0    0  0.22726148861E+03  0.32079758757E+01  0.20548902650E+03  0.33092116180E+03  0.12500000000E+03 0.  0.
         25    1    1    2    0    0 -0.56501528323E+02 -0.40712589989E+02  0.14023995042E+03  0.20035513814E+03  0.12500000000E+03 0.  0.
         25    1    1    2    0    0 -0.17075996029E+03  0.37504614114E+02  0.17816302534E+03  0.27916415192E+03  0.12500000000E+03 0.  0.
</event>
<event>
 5    0  0.5597833E-005  0.2622193E+03  0.7546771E-02  0.1105817E+00
         21   -1    0    0  502  501  0.00000000000E+00  0.00000000000E+00  0.40464304443E+03  0.40464304443E+03  0.00000000000E+00 0. -1.
         21   -1    0    0  501  502 -0.00000000000E+00 -0.00000000000E+00 -0.16992494223E+03  0.16992494223E+03  0.00000000000E+00 0. -1.
         25    1    1    2    0    0  0.58329532616E+02  0.77991366068E+02  0.10108628989E+03  0.18795857405E+03  0.12500000000E+03 0.  0.
         25    1    1    2    0    0  0.64268069822E+02  0.48836523461E+01 -0.16402015932E+02  0.14159188178E+03  0.12500000000E+03 0.  0.
         25    1    1    2    0    0 -0.12259760244E+03 -0.82875018414E+02  0.15003382824E+03  0.24501753083E+03  0.12500000000E+03 0.  0.
</event>
<event>
 5    0  0.5614520E-005  0.3446504E+03  0.7546771E-02  0.1064832E+00
         21   -1    0    0  502  501  0.00000000000E+00  0.00000000000E+00  0.25266699370E+03  0.25266699370E+03  0.00000000000E+00 0.  1.
         21   -1    0    0  501  502 -0.00000000000E+00 -0.00000000000E+00 -0.47012038111E+03  0.47012038111E+03  0.00000000000E+00 0.  1.
         25    1    1    2    0    0 -0.11022509146E+03 -0.85358465321E+02 -0.24246673703E+03  0.30635070908E+03  0.12500000000E+03 0.  0.
         25    1    1    2    0    0  0.10333596727E+03  0.17568552419E+03 -0.50821692366E+02  0.24444134257E+03  0.12500000000E+03 0.  0.
         25    1    1    2    0    0  0.68891241870E+01 -0.90327058872E+02  0.75835041982E+02  0.17199532316E+03  0.12500000000E+03 0.  0.
</event>
<event>
 5    0  0.5597833E-005  0.5121048E+03  0.7546771E-02  0.1010667E+00
         21   -1    0    0  502  501  0.00000000000E+00  0.00000000000E+00  0.70648493458E+03  0.70648493458E+03  0.00000000000E+00 0.  1.
         21   -1    0    0  501  502 -0.00000000000E+00 -0.00000000000E+00 -0.37120578443E+03  0.37120578443E+03  0.00000000000E+00 0.  1.
         25    1    1    2    0    0 -0.78410505189E+02 -0.11013338218E+03  0.19777549771E+03  0.27021790594E+03  0.12500000000E+03 0.  0.
         25    1    1    2    0    0 -0.22303984851E+03  0.26452984615E+03  0.23117378684E+03  0.43449871490E+03  0.12500000000E+03 0.  0.
         25    1    1    2    0    0  0.30145035370E+03 -0.15439646397E+03 -0.93670134405E+02  0.37297409817E+03  0.12500000000E+03 0.  0.
</event>
<event>
 5    0  0.5597833E-005  0.4381503E+03  0.7546771E-02  0.1031316E+00
         21   -1    0    0  502  501  0.00000000000E+00  0.00000000000E+00  0.52177740867E+03  0.52177740867E+03  0.00000000000E+00 0.  1.
         21   -1    0    0  501  502 -0.00000000000E+00 -0.00000000000E+00 -0.36792633926E+03  0.36792633926E+03  0.00000000000E+00 0.  1.
         25    1    1    2    0    0  0.46261928120E+02 -0.19713506485E+02  0.21665475922E+02  0.13646677683E+03  0.12500000000E+03 0.  0.
         25    1    1    2    0    0 -0.29023878409E+03  0.20027999973E+03 -0.50565971304E+02  0.37753482956E+03  0.12500000000E+03 0.  0.
         25    1    1    2    0    0  0.24397685597E+03 -0.18056649324E+03  0.18275156479E+03  0.37570214155E+03  0.12500000000E+03 0.  0.
</event>
<event>
 5    0  0.5597833E-005  0.2853173E+03  0.7546771E-02  0.1092820E+00
         21   -1    0    0  502  501  0.00000000000E+00  0.00000000000E+00  0.21067094865E+04  0.21067094865E+04  0.00000000000E+00 0.  1.
         21   -1    0    0  501  502 -0.00000000000E+00 -0.00000000000E+00 -0.38641286837E+02  0.38641286837E+02  0.00000000000E+00 0.  1.
         25    1    1    2    0    0  0.23417792751E+02  0.10273827013E+03  0.39201733092E+03  0.42474243125E+03  0.12500000000E+03 0.  0.
         25    1    1    2    0    0  0.31247077571E+02 -0.17680531528E+03  0.73602857599E+03  0.76785386894E+03  0.12500000000E+03 0.  0.
         25    1    1    2    0    0 -0.54664870321E+02  0.74067045157E+02  0.94002229278E+03  0.95275447317E+03  0.12500000000E+03 0.  0.
</event>
<event>
 5    0  0.5597833E-005  0.4737404E+03  0.7546771E-02  0.1020870E+00
         21   -1    0    0  502  501  0.00000000000E+00  0.00000000000E+00  0.71202638209E+03  0.71202638209E+03  0.00000000000E+00 0. -1.
         21   -1    0    0  501  502 -0.00000000000E+00 -0.00000000000E+00 -0.31519893440E+03  0.31519893440E+03  0.00000000000E+00 0. -1.
         25    1    1    2    0    0 -0.24312097746E+03  0.17973514741E+03 -0.11214863050E+03  0.34585379602E+03  0.12500000000E+03 0.  0.
         25    1    1    2    0    0  0.26087640092E+03 -0.12890927372E+03  0.34661324568E+03  0.46951021234E+03  0.12500000000E+03 0.  0.
         25    1    1    2    0    0 -0.17755423463E+02 -0.50825873692E+02  0.16236283251E+03  0.21186130813E+03  0.12500000000E+03 0.  0.
</event>
<event>
 5    0  0.5597833E-005  0.4500829E+03  0.7546771E-02  0.1027697E+00
         21   -1    0    0  502  501  0.00000000000E+00  0.00000000000E+00  0.12484209266E+03  0.12484209266E+03  0.00000000000E+00 0. -1.
         21   -1    0    0  501  502 -0.00000000000E+00 -0.00000000000E+00 -0.16226467191E+04  0.16226467191E+04  0.00000000000E+00 0. -1.
         25    1    1    2    0    0 -0.16271570229E+02 -0.14720547037E+03  0.59082870657E+01  0.19389203790E+03  0.12500000000E+03 0.  0.
         25    1    1    2    0    0 -0.19405355370E+02 -0.59488635307E+02 -0.69095174499E+03  0.70495019643E+03  0.12500000000E+03 0.  0.
         25    1    1    2    0    0  0.35676925599E+02  0.20669410568E+03 -0.81276116850E+03  0.84864657742E+03  0.12500000000E+03 0.  0.
</event>
<event>
 5    0  0.5597833E-005  0.5768325E+03  0.7546771E-02  0.9954672E-01
         21   -1    0    0  502  501  0.00000000000E+00  0.00000000000E+00  0.63442684540E+03  0.63442684540E+03  0.00000000000E+00 0. -1.
         21   -1    0    0  501  502 -0.00000000000E+00 -0.00000000000E+00 -0.52446658751E+03  0.52446658751E+03  0.00000000000E+00 0. -1.
         25    1    1    2    0    0  0.32917157193E+03  0.32067501172E+03 -0.59233017962E+02  0.47991659413E+03  0.12500000000E+03 0.  0.
         25    1    1    2    0    0 -0.35451817773E+03 -0.26411031587E+03 -0.33610188246E+00  0.45941540054E+03  0.12500000000E+03 0.  0.
         25    1    1    2    0    0  0.25346605799E+02 -0.56564695856E+02  0.16952937774E+03  0.21956143823E+03  0.12500000000E+03 0.  0.
</event>
<event>
 5    0  0.5597833E-005  0.3664975E+03  0.7546771E-02  0.1056040E+00
         21   -1    0    0  502  501  0.00000000000E+00  0.00000000000E+00  0.18898016258E+03  0.18898016258E+03  0.00000000000E+00 0. -1.
         21   -1    0    0  501  502 -0.00000000000E+00 -0.00000000000E+00 -0.71076448141E+03  0.71076448141E+03  0.00000000000E+00 0. -1.
         25    1    1    2    0    0 -0.85119304844E+02 -0.40684487581E+02 -0.68475731128E+02  0.17092234886E+03  0.12500000000E+03 0.  0.
         25    1    1    2    0    0 -0.11200439391E+03  0.11853035477E+03 -0.43620222415E+03  0.48217404494E+03  0.12500000000E+03 0.  0.
         25    1    1    2    0    0  0.19712369875E+03 -0.77845867186E+02 -0.17106363544E+02  0.24664825019E+03  0.12500000000E+03 0.  0.
</event>
<event>
 5    0  0.5597833E-005  0.4677243E+03  0.7546771E-02  0.1022564E+00
         21   -1    0    0  502  501  0.00000000000E+00  0.00000000000E+00  0.39493841436E+03  0.39493841436E+03  0.00000000000E+00 0.  1.
         21   -1    0    0  501  502 -0.00000000000E+00 -0.00000000000E+00 -0.55392443762E+03  0.55392443762E+03  0.00000000000E+00 0.  1.
         25    1    1    2    0    0 -0.18088889970E+03 -0.90164950940E+02 -0.14865820176E+03  0.28031192155E+03  0.12500000000E+03 0.  0.
         25    1    1    2    0    0  0.75165939690E+02  0.20617116012E+03 -0.25041869784E+03  0.35565571833E+03  0.12500000000E+03 0.  0.
         25    1    1    2    0    0  0.10572296001E+03 -0.11600620918E+03  0.24009087635E+03  0.31289521209E+03  0.12500000000E+03 0.  0.
</event>
<event>
 5    0  0.5597833E-005  0.4033399E+03  0.7546771E-02  0.1042629E+00
         21   -1    0    0  502  501  0.00000000000E+00  0.00000000000E+00  0.35371906321E+03  0.35371906321E+03  0.00000000000E+00 0. -1.
         21   -1    0    0  501  502 -0.00000000000E+00 -0.00000000000E+00 -0.45992179846E+03  0.45992179846E+03  0.00000000000E+00 0. -1.
         25    1    1    2    0    0  0.15778170862E+03  0.50110642050E+02  0.20741624938E+03  0.29334731042E+03  0.12500000000E+03 0.  0.
         25    1    1    2    0    0 -0.31536334914E+02 -0.15235619405E+03 -0.21319682389E+03  0.29203567591E+03  0.12500000000E+03 0.  0.
         25    1    1    2    0    0 -0.12624537371E+03  0.10224555200E+03 -0.10042216074E+03  0.22825787534E+03  0.12500000000E+03 0.  0.
</event>
<event>
 5    0  0.5597833E-005  0.4760043E+03  0.7546771E-02  0.1020239E+00
         21   -1    0    0  502  501  0.00000000000E+00  0.00000000000E+00  0.17557974885E+04  0.17557974885E+04  0.00000000000E+00 0.  1.
         21   -1    0    0  501  502 -0.00000000000E+00 -0.00000000000E+00 -0.12904684563E+03  0.12904684563E+03  0.00000000000E+00 0.  1.
         25    1    1    2    0    0 -0.21941896249E+03  0.38894656999E+02  0.22624034961E+03  0.34127286917E+03  0.12500000000E+03 0.  0.
         25    1    1    2    0    0  0.26395474831E+03 -0.15805646470E+03  0.12937972171E+04  0.13357358250E+04  0.12500000000E+03 0.  0.
         25    1    1    2    0    0 -0.44535785825E+02  0.11916180770E+03  0.10671307624E+03  0.20783564005E+03  0.12500000000E+03 0.  0.
</event>
<event>
 5    0  0.5703772E-005  0.3247807E+03  0.7546771E-02  0.1073470E+00
         21   -1    0    0  502  501  0.00000000000E+00  0.00000000000E+00  0.10205084537E+03  0.10205084537E+03  0.00000000000E+00 0. -1.
         21   -1    0    0  501  502 -0.00000000000E+00 -0.00000000000E+00 -0.10336271349E+04  0.10336271349E+04  0.00000000000E+00 0. -1.
         25    1    1    2    0    0 -0.19805260744E+03 -0.16653520482E+01 -0.47098083612E+03  0.52599957861E+03  0.12500000000E+03 0.  0.
         25    1    1    2    0    0  0.66685571840E+02  0.32154080125E+02 -0.40062100894E+02  0.15070110248E+03  0.12500000000E+03 0.  0.
         25    1    1    2    0    0  0.13136703560E+03 -0.30488728077E+02 -0.42053335254E+03  0.45897729919E+03  0.12500000000E+03 0.  0.
</event>
<event>
 5    0  0.5597833E-005  0.4166355E+03  0.7546771E-02  0.1038167E+00
         21   -1    0    0  502  501  0.00000000000E+00  0.00000000000E+00  0.64993183872E+03  0.64993183872E+03  0.00000000000E+00 0.  1.
         21   -1    0    0  501  502 -0.00000000000E+00 -0.00000000000E+00 -0.26708207723E+03  0.26708207723E+03  0.00000000000E+00 0.  1.
         25    1    1    2    0    0 -0.22315999997E+02 -0.64224968140E+02  0.21938390866E+03  0.26149024794E+03  0.12500000000E+03 0.  0.
         25    1    1    2    0    0 -0.16101938533E+02  0.21718392248E+03 -0.14294345849E+03  0.28893937242E+03  0.12500000000E+03 0.  0.
         25    1    1    2    0    0  0.38417938530E+02 -0.15295895434E+03  0.30640931132E+03  0.36658429560E+03  0.12500000000E+03 0.  0.
</event>
<event>
 5    0  0.5597833E-005  0.3640995E+03  0.7546771E-02  0.1056972E+00
         21   -1    0    0  502  501  0.00000000000E+00  0.00000000000E+00  0.68117268035E+03  0.68117268035E+03  0.00000000000E+00 0.  1.
         21   -1    0    0  501  502 -0.00000000000E+00 -0.00000000000E+00 -0.19461794158E+03  0.19461794158E+03  0.00000000000E+00 0.  1.
         25    1    1    2    0    0 -0.20138790348E+03  0.19001472446E+03  0.13529348545E+03  0.33255377066E+03  0.12500000000E+03 0.  0.
         25    1    1    2    0    0  0.79371644101E+02 -0.18735013146E+03  0.18511706047E+03  0.30214773824E+03  0.12500000000E+03 0.  0.
         25    1    1    2    0    0  0.12201625938E+03 -0.26645929960E+01  0.16614419284E+03  0.24108911303E+03  0.12500000000E+03 0.  0.
</event>
<event>
 5    0  0.5597833E-005  0.2676816E+03  0.7546771E-02  0.1102614E+00
         21   -1    0    0  502  501  0.00000000000E+00  0.00000000000E+00  0.66942479883E+03  0.66942479883E+03  0.00000000000E+00 0.  1.
         21   -1    0    0  501  502 -0.00000000000E+00 -0.00000000000E+00 -0.10703735942E+03  0.10703735942E+03  0.00000000000E+00 0.  1.
         25    1    1    2    0    0 -0.10553516628E+02  0.86365108110E+02  0.41371828676E+03  0.44086066893E+03  0.12500000000E+03 0.  0.
         25    1    1    2    0    0 -0.72325896740E+01 -0.81286599869E+02  0.12451379591E+02  0.14979939428E+03  0.12500000000E+03 0.  0.
         25    1    1    2    0    0  0.17786106302E+02 -0.50785082408E+01  0.13621777307E+03  0.18580209504E+03  0.12500000000E+03 0.  0.
</event>
<event>
 5    0  0.5597833E-005  0.2832245E+03  0.7546771E-02  0.1093941E+00
         21   -1    0    0  502  501  0.00000000000E+00  0.00000000000E+00  0.10324206030E+04  0.10324206030E+04  0.00000000000E+00 0.  1.
         21   -1    0    0  501  502 -0.00000000000E+00 -0.00000000000E+00 -0.77697102482E+02  0.77697102482E+02  0.00000000000E+00 0.  1.
         25    1    1    2    0    0  0.10908222215E+02  0.68966032430E+02  0.48561344819E+03  0.50628126966E+03  0.12500000000E+03 0.  0.
         25    1    1    2    0    0 -0.77021804369E+01  0.45343807604E+02  0.34816845580E+02  0.13766843214E+03  0.12500000000E+03 0.  0.
         25    1    1    2    0    0 -0.32060417784E+01 -0.11430984003E+03  0.43429320674E+03  0.46616800367E+03  0.12500000000E+03 0.  0.
</event>
<event>
 5    0  0.5597833E-005  0.2287046E+03  0.7546771E-02  0.1127555E+00
         21   -1    0    0  502  501  0.00000000000E+00  0.00000000000E+00  0.28902839432E+03  0.28902839432E+03  0.00000000000E+00 0.  1.
         21   -1    0    0  501  502 -0.00000000000E+00 -0.00000000000E+00 -0.18097107215E+03  0.18097107215E+03  0.00000000000E+00 0.  1.
         25    1    1    2    0    0  0.32369640159E+02  0.48036077166E+02  0.23252725349E+02  0.13971738456E+03  0.12500000000E+03 0.  0.
         25    1    1    2    0    0 -0.84035390238E+02 -0.23252155152E+02 -0.24832634344E+02  0.15441589704E+03  0.12500000000E+03 0.  0.
         25    1    1    2    0    0  0.51665750079E+02 -0.24783922014E+02  0.10963723117E+03  0.17586618487E+03  0.12500000000E+03 0.  0.
</event>
<event>
 5    0  0.5597833E-005  0.2770319E+03  0.7546771E-02  0.1097321E+00
         21   -1    0    0  502  501  0.00000000000E+00  0.00000000000E+00  0.17946189718E+03  0.17946189718E+03  0.00000000000E+00 0. -1.
         21   -1    0    0  501  502 -0.00000000000E+00 -0.00000000000E+00 -0.42764877410E+03  0.42764877410E+03  0.00000000000E+00 0. -1.
         25    1    1    2    0    0  0.16092267415E+03 -0.29704355107E+02 -0.76647528671E+02  0.21972323368E+03  0.12500000000E+03 0.  0.
         25    1    1    2    0    0  0.17505235900E+02 -0.65436884218E+01 -0.58056760334E+02  0.13908573098E+03  0.12500000000E+03 0.  0.
         25    1    1    2    0    0 -0.17842791005E+03  0.36248043528E+02 -0.11348258792E+03  0.24830170662E+03  0.12500000000E+03 0.  0.
</event>
<event>
 5    0  0.5597833E-005  0.3592852E+03  0.7546771E-02  0.1058867E+00
         21   -1    0    0  502  501  0.00000000000E+00  0.00000000000E+00  0.19134943994E+03  0.19134943994E+03  0.00000000000E+00 0.  1.
         21   -1    0    0  501  502 -0.00000000000E+00 -0.00000000000E+00 -0.67460789426E+03  0.67460789426E+03  0.00000000000E+00 0.  1.
         25    1    1    2    0    0 -0.18297526519E+03  0.74328115128E+02 -0.95412727246E+02  0.25245436199E+03  0.12500000000E+03 0.  0.
         25    1    1    2    0    0  0.81275546391E+02  0.88880781498E+01 -0.40467505402E+03  0.43136018791E+03  0.12500000000E+03 0.  0.
         25    1    1    2    0    0  0.10169971879E+03 -0.83216193278E+02  0.16829326937E+02  0.18214278430E+03  0.12500000000E+03 0.  0.
</event>
<event>
 5    0  0.5597833E-005  0.2165877E+03  0.7546771E-02  0.1136453E+00
         21   -1    0    0  502  501  0.00000000000E+00  0.00000000000E+00  0.21299248105E+04  0.21299248105E+04  0.00000000000E+00 0.  1.
         21   -1    0    0  501  502 -0.00000000000E+00 -0.00000000000E+00 -0.22024355003E+02  0.22024355003E+02  0.00000000000E+00 0.  1.
         25    1    1    2    0    0 -0.30255042113E+02 -0.43340410069E+01  0.46911267264E+03  0.48644203264E+03  0.12500000000E+03 0.  0.
         25    1    1    2    0    0  0.26801757172E+02 -0.75470101612E+02  0.78014547760E+03  0.79414484614E+03  0.12500000000E+03 0.  0.
         25    1    1    2    0    0  0.34532849406E+01  0.79804142619E+02  0.85864230522E+03  0.87136228669E+03  0.12500000000E+03 0.  0.
</event>
<event>
 5    0  0.5597833E-005  0.3027135E+03  0.7546771E-02  0.1083892E+00
         21   -1    0    0  502  501  0.00000000000E+00  0.00000000000E+00  0.10312043275E+03  0.10312043275E+03  0.00000000000E+00 0.  1.
         21   -1    0    0  501  502 -0.00000000000E+00 -0.00000000000E+00 -0.88862581528E+03  0.88862581528E+03  0.00000000000E+00 0.  1.
         25    1    1    2    0    0  0.33484189867E+02 -0.16995297096E+03 -0.29522009397E+03  0.36439690886E+03  0.12500000000E+03 0.  0.
         25    1    1    2    0    0 -0.88672236559E+01  0.13575918286E+03 -0.45458309402E+03  0.49069335919E+03  0.12500000000E+03 0.  0.
         25    1    1    2    0    0 -0.24616966212E+02  0.34193788092E+02 -0.35702194545E+02  0.13665597998E+03  0.12500000000E+03 0.  0.
</event>
<event>
 5    0  0.5597833E-005  0.2761904E+03  0.7546771E-02  0.1097788E+00
         21   -1    0    0  502  501  0.00000000000E+00  0.00000000000E+00  0.33907767883E+03  0.33907767883E+03  0.00000000000E+00 0. -1.
         21   -1    0    0  501  502 -0.00000000000E+00 -0.00000000000E+00 -0.22496661000E+03  0.22496661000E+03  0.00000000000E+00 0. -1.
         25    1    1    2    0    0  0.12034322757E+03  0.10077848607E+03  0.40065937299E+01  0.20069840176E+03  0.12500000000E+03 0.  0.
         25    1    1    2    0    0 -0.31968335615E+02  0.23968912598E+02 -0.11002568515E+02  0.13169107702E+03  0.12500000000E+03 0.  0.
         25    1    1    2    0    0 -0.88374891955E+02 -0.12474739867E+03  0.12110704361E+03  0.23165481004E+03  0.12500000000E+03 0.  0.
</event>
<event>
 5    0  0.5597833E-005  0.3620482E+03  0.7546771E-02  0.1057776E+00
         21   -1    0    0  502  501  0.00000000000E+00  0.00000000000E+00  0.64194549560E+03  0.64194549560E+03  0.00000000000E+00 0.  1.
         21   -1    0    0  501  502 -0.00000000000E+00 -0.00000000000E+00 -0.20419009268E+03  0.20419009268E+03  0.00000000000E+00 0.  1.
         25    1    1    2    0    0  0.86971387597E+02 -0.64853391156E+02  0.47244573388E+02  0.17212505431E+03  0.12500000000E+03 0.  0.
         25    1    1    2    0    0 -0.47215030147E+02  0.24732398894E+03  0.82943433530E+02  0.29309218301E+03  0.12500000000E+03 0.  0.
         25    1    1    2    0    0 -0.39756357450E+02 -0.18247059778E+03  0.30756739600E+03  0.38091835096E+03  0.12500000000E+03 0.  0.
</event>
<event>
 5    0  0.5597833E-005  0.2517463E+03  0.7546771E-02  0.1112206E+00
         21   -1    0    0  502  501  0.00000000000E+00  0.00000000000E+00  0.58704312514E+03  0.58704312514E+03  0.00000000000E+00 0.  1.
         21   -1    0    0  501  502 -0.00000000000E+00 -0.00000000000E+00 -0.10795835283E+03  0.10795835283E+03  0.00000000000E+00 0.  1.
         25    1    1    2    0    0 -0.47079400928E+02 -0.18171791105E+02  0.30453907760E+03  0.33304013837E+03  0.12500000000E+03 0.  0.
         25    1    1    2    0    0  0.17908335523E+02  0.92125577895E+02  0.38846383173E+02  0.16106480705E+03  0.12500000000E+03 0.  0.
         25    1    1    2    0    0  0.29171065405E+02 -0.73953786790E+02  0.13569931154E+03  0.20089653255E+03  0.12500000000E+03 0.  0.
</event>
<event>
 5    0  0.5597833E-005  0.3746498E+03  0.7546771E-02  0.1052929E+00
         21   -1    0    0  502  501  0.00000000000E+00  0.00000000000E+00  0.32187315864E+03  0.32187315864E+03  0.00000000000E+00 0.  1.
         21   -1    0    0  501  502 -0.00000000000E+00 -0.00000000000E+00 -0.43608012249E+03  0.43608012249E+03  0.00000000000E+00 0.  1.
         25    1    1    2    0    0  0.43298396485E+02  0.98197579335E+02 -0.24623759701E+03  0.29626925238E+03  0.12500000000E+03 0.  0.
         25    1    1    2    0    0 -0.37627895629E+02  0.11545906379E+03 -0.12957493406E+02  0.17475568825E+03  0.12500000000E+03 0.  0.
         25    1    1    2    0    0 -0.56705008568E+01 -0.21365664313E+03  0.14498812657E+03  0.28692834049E+03  0.12500000000E+03 0.  0.
</event>
<event>
 5    0  0.5597833E-005  0.2950066E+03  0.7546771E-02  0.1087764E+00
         21   -1    0    0  502  501  0.00000000000E+00  0.00000000000E+00  0.99588474743E+02  0.99588474743E+02  0.00000000000E+00 0.  1.
         21   -1    0    0  501  502 -0.00000000000E+00 -0.00000000000E+00 -0.87388520960E+03  0.87388520960E+03  0.00000000000E+00 0.  1.
         25    1    1    2    0    0 -0.22730755290E+02 -0.25890978996E+02 -0.48616383496E+03  0.50315733568E+03  0.12500000000E+03 0.  0.
         25    1    1    2    0    0  0.13781471575E+03  0.63253789394E+02 -0.17189609430E+03  0.26108850030E+03  0.12500000000E+03 0.  0.
         25    1    1    2    0    0 -0.11508396046E+03 -0.37362810397E+02 -0.11623680559E+03  0.20922784836E+03  0.12500000000E+03 0.  0.
</event>
<event>
 5    0  0.5597833E-005  0.3948637E+03  0.7546771E-02  0.1045573E+00
         21   -1    0    0  502  501  0.00000000000E+00  0.00000000000E+00  0.17312916884E+03  0.17312916884E+03  0.00000000000E+00 0.  1.
         21   -1    0    0  501  502 -0.00000000000E+00 -0.00000000000E+00 -0.90058396800E+03  0.90058396800E+03  0.00000000000E+00 0.  1.
         25    1    1    2    0    0  0.10993146547E+03  0.26602569613E+03 -0.22870018479E+03  0.38830834735E+03  0.12500000000E+03 0.  0.
         25    1    1    2    0    0 -0.17429996925E+02 -0.14222887993E+03 -0.53088878375E+02  0.19742413248E+03  0.12500000000E+03 0.  0.
         25    1    1    2    0    0 -0.92501468542E+02 -0.12379681620E+03 -0.44566573599E+03  0.48798065701E+03  0.12500000000E+03 0.  0.
</event>
<event>
 5    0  0.5597833E-005  0.3809744E+03  0.7546771E-02  0.1050574E+00
         21   -1    0    0  502  501  0.00000000000E+00  0.00000000000E+00  0.12571554600E+04  0.12571554600E+04  0.00000000000E+00 0. -1.
         21   -1    0    0  501  502 -0.00000000000E+00 -0.00000000000E+00 -0.11545231125E+03  0.11545231125E+03  0.00000000000E+00 0. -1.
         25    1    1    2    0    0  0.21057763191E+03  0.11457585817E+03  0.77583997714E+03  0.82159797740E+03  0.12500000000E+03 0.  0.
         25    1    1    2    0    0 -0.12062614274E+03 -0.16438843811E+03  0.27843664745E+03  0.36705066617E+03  0.12500000000E+03 0.  0.
         25    1    1    2    0    0 -0.89951489164E+02  0.49812579933E+02  0.87426524114E+02  0.18395912764E+03  0.12500000000E+03 0.  0.
</event>
<event>
 5    0  0.5597833E-005  0.4279101E+03  0.7546771E-02  0.1034522E+00
         21   -1    0    0  502  501  0.00000000000E+00  0.00000000000E+00  0.29453199790E+03  0.29453199790E+03  0.00000000000E+00 0. -1.
         21   -1    0    0  501  502 -0.00000000000E+00 -0.00000000000E+00 -0.62168827786E+03  0.62168827786E+03  0.00000000000E+00 0. -1.
         25    1    1    2    0    0 -0.10947900683E+03  0.32197194766E+03 -0.20790603216E+03  0.41773377434E+03  0.12500000000E+03 0.  0.
         25    1    1    2    0    0  0.16309923106E+03 -0.11924194035E+03 -0.83093254929E+02  0.25169324291E+03  0.12500000000E+03 0.  0.
         25    1    1    2    0    0 -0.53620224232E+02 -0.20273000731E+03 -0.36156992878E+02  0.24679325851E+03  0.12500000000E+03 0.  0.
</event>
<event>
 5    0  0.5597833E-005  0.2454530E+03  0.7546771E-02  0.1116213E+00
         21   -1    0    0  502  501  0.00000000000E+00  0.00000000000E+00  0.10175116404E+03  0.10175116404E+03  0.00000000000E+00 0. -1.
         21   -1    0    0  501  502 -0.00000000000E+00 -0.00000000000E+00 -0.59210315289E+03  0.59210315289E+03  0.00000000000E+00 0. -1.
         25    1    1    2    0    0 -0.47337633996E+02  0.97941256250E+02 -0.82767374342E+02  0.18522629274E+03  0.12500000000E+03 0.  0.
         25    1    1    2    0    0 -0.17820884791E+02 -0.33992517407E+02 -0.10114552706E+03  0.16531331713E+03  0.12500000000E+03 0.  0.
         25    1    1    2    0    0  0.65158518787E+02 -0.63948738842E+02 -0.30643908744E+03  0.34331470706E+03  0.12500000000E+03 0.  0.
</event>
<event>
 5    0  0.5597833E-005  0.2553924E+03  0.7546771E-02  0.1109944E+00
         21   -1    0    0  502  501  0.00000000000E+00  0.00000000000E+00  0.34628198685E+03  0.34628198685E+03  0.00000000000E+00 0.  1.
         21   -1    0    0  501  502 -0.00000000000E+00 -0.00000000000E+00 -0.18835891167E+03  0.18835891167E+03  0.00000000000E+00 0.  1.
         25    1    1    2    0    0 -0.70756583620E+01 -0.74833553214E+01 -0.47225801999E+02  0.13401993106E+03  0.12500000000E+03 0.  0.
         25    1    1    2    0    0 -0.51135220126E+02  0.10699081312E+03  0.12350803870E+03  0.21199311417E+03  0.12500000000E+03 0.  0.
         25    1    1    2    0    0  0.58210878488E+02 -0.99507457798E+02  0.81640838477E+02  0.18862785330E+03  0.12500000000E+03 0.  0.
</event>
<event>
 5    0  0.5597833E-005  0.3156064E+03  0.7546771E-02  0.1077689E+00
         21   -1    0    0  502  501  0.00000000000E+00  0.00000000000E+00  0.21703372733E+03  0.21703372733E+03  0.00000000000E+00 0.  1.
         21   -1    0    0  501  502 -0.00000000000E+00 -0.00000000000E+00 -0.45894905435E+03  0.45894905435E+03  0.00000000000E+00 0.  1.
         25    1    1    2    0    0  0.13356928474E+03 -0.10446846135E+03 -0.14244574211E+03  0.25430336743E+03  0.12500000000E+03 0.  0.
         25    1    1    2    0    0  0.10774326676E+02 -0.60403810931E+02  0.23190494309E+02  0.14116481685E+03  0.12500000000E+03 0.  0.
         25    1    1    2    0    0 -0.14434361141E+03  0.16487227228E+03 -0.12266007921E+03  0.28051459740E+03  0.12500000000E+03 0.  0.
</event>
<event>
 5    0  0.5597833E-005  0.5207378E+03  0.7546771E-02  0.1008503E+00
         21   -1    0    0  502  501  0.00000000000E+00  0.00000000000E+00  0.25232935592E+03  0.25232935592E+03  0.00000000000E+00 0.  1.
         21   -1    0    0  501  502 -0.00000000000E+00 -0.00000000000E+00 -0.10746582014E+04  0.10746582014E+04  0.00000000000E+00 0.  1.
         25    1    1    2    0    0 -0.18483622503E+03  0.16963759304E+03  0.56970025724E+02  0.28602784285E+03  0.12500000000E+03 0.  0.
         25    1    1    2    0    0 -0.11043820874E+03 -0.16743440044E+03 -0.36028832848E+03  0.43088694113E+03  0.12500000000E+03 0.  0.
         25    1    1    2    0    0  0.29527443378E+03 -0.22031925922E+01 -0.51901054270E+03  0.61007277331E+03  0.12500000000E+03 0.  0.
</event>
<event>
 5    0  0.5597833E-005  0.2275014E+03  0.7546771E-02  0.1128411E+00
         21   -1    0    0  502  501  0.00000000000E+00  0.00000000000E+00  0.45719932307E+03  0.45719932307E+03  0.00000000000E+00 0. -1.
         21   -1    0    0  501  502 -0.00000000000E+00 -0.00000000000E+00 -0.11320423184E+03  0.11320423184E+03  0.00000000000E+00 0. -1.
         25    1    1    2    0    0 -0.41349495899E+02 -0.71054125070E+02  0.15748627615E+03  0.21722199860E+03  0.12500000000E+03 0.  0.
         25    1    1    2    0    0  0.77655121692E+02  0.17096556987E+02  0.14251360210E+03  0.20556686739E+03  0.12500000000E+03 0.  0.
         25    1    1    2    0    0 -0.36305625793E+02  0.53957568083E+02  0.43995212978E+02  0.14761468891E+03  0.12500000000E+03 0.  0.
</event>
<event>
 5    0  0.5597833E-005  0.2598998E+03  0.7546771E-02  0.1107203E+00
         21   -1    0    0  502  501  0.00000000000E+00  0.00000000000E+00  0.64242634118E+03  0.64242634118E+03  0.00000000000E+00 0.  1.
         21   -1    0    0  501  502 -0.00000000000E+00 -0.00000000000E+00 -0.10514497651E+03  0.10514497651E+03  0.00000000000E+00 0.  1.
         25    1    1    2    0    0 -0.12441351444E+03 -0.40770691605E+02  0.35364007679E+03  0.39727481141E+03  0.12500000000E+03 0.  0.
         25    1    1    2    0    0  0.77933137815E+02  0.67415769599E+02  0.10770368207E+03  0.19453416947E+03  0.12500000000E+03 0.  0.
         25    1    1    2    0    0  0.46480376627E+02 -0.26645077994E+02  0.75937605805E+02  0.15576233681E+03  0.12500000000E+03 0.  0.
</event>
<event>
 5    0  0.5597833E-005  0.2273477E+03  0.7546771E-02  0.1128521E+00
         21   -1    0    0  502  501  0.00000000000E+00  0.00000000000E+00  0.20798165561E+03  0.20798165561E+03  0.00000000000E+00 0.  1.
         21   -1    0    0  501  502 -0.00000000000E+00 -0.00000000000E+00 -0.24851705986E+03  0.24851705986E+03  0.00000000000E+00 0.  1.
         25    1    1    2    0    0 -0.12352861917E+02  0.40586347641E+02  0.14173639813E+02  0.13276195569E+03  0.12500000000E+03 0.  0.
         25    1    1    2    0    0 -0.49118012657E+02 -0.13889961711E+02  0.53608757005E+02  0.14527356618E+03  0.12500000000E+03 0.  0.
         25    1    1    2    0    0  0.61470874574E+02 -0.26696385930E+02 -0.10831780107E+03  0.17846319360E+03  0.12500000000E+03 0.  0.
</event>
<event>
 5    0  0.5597833E-005  0.4484228E+03  0.7546771E-02  0.1028193E+00
         21   -1    0    0  502  501  0.00000000000E+00  0.00000000000E+00  0.19196180989E+04  0.19196180989E+04  0.00000000000E+00 0.  1.
         21   -1    0    0  501  502 -0.00000000000E+00 -0.00000000000E+00 -0.10475155508E+03  0.10475155508E+03  0.00000000000E+00 0.  1.
         25    1    1    2    0    0  0.33898275205E+03 -0.91513115911E+02  0.70066150517E+03  0.79362176217E+03  0.12500000000E+03 0.  0.
         25    1    1    2    0    0 -0.46199855873E+01 -0.84219154618E+01  0.13754789022E+03  0.18610936309E+03  0.12500000000E+03 0.  0.
         25    1    1    2    0    0 -0.33436276646E+03  0.99935031372E+02  0.97665714843E+03  0.10446385287E+04  0.12500000000E+03 0.  0.
</event>
<event>
 5    0  0.5597833E-005  0.3025510E+03  0.7546771E-02  0.1083972E+00
         21   -1    0    0  502  501  0.00000000000E+00  0.00000000000E+00  0.17772023717E+04  0.17772023717E+04  0.00000000000E+00 0.  1.
         21   -1    0    0  501  502 -0.00000000000E+00 -0.00000000000E+00 -0.51506289663E+02  0.51506289663E+02  0.00000000000E+00 0.  1.
         25    1    1    2    0    0 -0.32822420116E+02  0.94331658392E+02  0.70932019060E+03  0.72714228720E+03  0.12500000000E+03 0.  0.
         25    1    1    2    0    0  0.13990138918E+03 -0.12841534867E+03  0.37503337246E+03  0.43856348563E+03  0.12500000000E+03 0.  0.
         25    1    1    2    0    0 -0.10707896906E+03  0.34083690279E+02  0.64134251897E+03  0.66300288853E+03  0.12500000000E+03 0.  0.
</event>
<event>
 5    0  0.5597833E-005  0.3089275E+03  0.7546771E-02  0.1080861E+00
         21   -1    0    0  502  501  0.00000000000E+00  0.00000000000E+00  0.62516887288E+02  0.62516887288E+02  0.00000000000E+00 0. -1.
         21   -1    0    0  501  502 -0.00000000000E+00 -0.00000000000E+00 -0.15265666647E+04  0.15265666647E+04  0.00000000000E+00 0. -1.
         25    1    1    2    0    0 -0.19222282048E+03  0.47474635417E+01 -0.64463319167E+03  0.68421422298E+03  0.12500000000E+03 0.  0.
         25    1    1    2    0    0 -0.48898995456E+01  0.55882609675E+02 -0.37492076274E+03  0.39917083500E+03  0.12500000000E+03 0.  0.
         25    1    1    2    0    0  0.19711272003E+03 -0.60630073217E+02 -0.44449582300E+03  0.50569849400E+03  0.12500000000E+03 0.  0.
</event>
<event>
 5    0  0.5597833E-005  0.2877433E+03  0.7546771E-02  0.1091533E+00
         21   -1    0    0  502  501  0.00000000000E+00  0.00000000000E+00  0.62239050151E+02  0.62239050151E+02  0.00000000000E+00 0. -1.
         21   -1    0    0  501  502 -0.00000000000E+00 -0.00000000000E+00 -0.13302934974E+04  0.13302934974E+04  0.00000000000E+00 0. -1.
         25    1    1    2    0    0  0.43293597971E+02 -0.26664631206E+02 -0.36343212884E+03  0.38767673448E+03  0.12500000000E+03 0.  0.
         25    1    1    2    0    0 -0.89149296784E+02  0.16591528855E+03 -0.63051837571E+03  0.66981631975E+03  0.12500000000E+03 0.  0.
         25    1    1    2    0    0  0.45855698813E+02 -0.13925065734E+03 -0.27410394269E+03  0.33503949332E+03  0.12500000000E+03 0.  0.
</event>
<event>
 5    0  0.5597833E-005  0.6545778E+03  0.7546771E-02  0.9798227E-01
         21   -1    0    0  502  501  0.00000000000E+00  0.00000000000E+00  0.31012192704E+03  0.31012192704E+03  0.00000000000E+00 0.  1.
         21   -1    0    0  501  502 -0.00000000000E+00 -0.00000000000E+00 -0.13816248500E+04  0.13816248500E+04  0.00000000000E+00 0.  1.
         25    1    1    2    0    0 -0.88969279029E+02  0.22432357054E+03  0.21854293160E+03  0.34874433309E+03  0.12500000000E+03 0.  0.
         25    1    1    2    0    0  0.25735415424E+02 -0.18299796207E+03 -0.67768302946E+03  0.71346328157E+03  0.12500000000E+03 0.  0.
         25    1    1    2    0    0  0.63233863604E+02 -0.41325608467E+02 -0.61236282508E+03  0.62953916237E+03  0.12500000000E+03 0.  0.
</event>
<event>
 5    0  0.5597833E-005  0.2982639E+03  0.7546771E-02  0.1086112E+00
         21   -1    0    0  502  501  0.00000000000E+00  0.00000000000E+00  0.31916705437E+03  0.31916705437E+03  0.00000000000E+00 0.  1.
         21   -1    0    0  501  502 -0.00000000000E+00 -0.00000000000E+00 -0.27872980537E+03  0.27872980537E+03  0.00000000000E+00 0.  1.
         25    1    1    2    0    0 -0.14101089302E+03  0.13832892805E+03  0.74767546957E+02  0.24542646631E+03  0.12500000000E+03 0.  0.
         25    1    1    2    0    0  0.86537007696E+02 -0.12077423225E+03 -0.76465171759E+02  0.20867915893E+03  0.12500000000E+03 0.  0.
         25    1    1    2    0    0  0.54473885328E+02 -0.17554695798E+02  0.42134873802E+02  0.14379123450E+03  0.12500000000E+03 0.  0.
</event>
<event>
 5    0  0.5597833E-005  0.2938329E+03  0.7546771E-02  0.1088365E+00
         21   -1    0    0  502  501  0.00000000000E+00  0.00000000000E+00  0.38779726947E+02  0.38779726947E+02  0.00000000000E+00 0.  1.
         21   -1    0    0  501  502 -0.00000000000E+00 -0.00000000000E+00 -0.22263640009E+04  0.22263640009E+04  0.00000000000E+00 0.  1.
         25    1    1    2    0    0  0.96386977720E+02  0.60431738729E+01 -0.10200307299E+04  0.10321892556E+04  0.12500000000E+03 0.  0.
         25    1    1    2    0    0  0.43515418726E+02 -0.60376367124E+02 -0.83258981854E+03  0.84520394185E+03  0.12500000000E+03 0.  0.
         25    1    1    2    0    0 -0.13990239645E+03  0.54333193251E+02 -0.33496372550E+03  0.38775053040E+03  0.12500000000E+03 0.  0.
</event>
<event>
 5    0  0.5597833E-005  0.3462234E+03  0.7546771E-02  0.1064176E+00
         21   -1    0    0  502  501  0.00000000000E+00  0.00000000000E+00  0.13205156294E+04  0.13205156294E+04  0.00000000000E+00 0. -1.
         21   -1    0    0  501  502 -0.00000000000E+00 -0.00000000000E+00 -0.90775649874E+02  0.90775649874E+02  0.00000000000E+00 0. -1.
         25    1    1    2    0    0 -0.16497689996E+03  0.84366796603E+02  0.16321924065E+03  0.27676823229E+03  0.12500000000E+03 0.  0.
         25    1    1    2    0    0  0.56892610330E+02  0.72926802275E+02  0.50591903794E+03  0.52927701683E+03  0.12500000000E+03 0.  0.
         25    1    1    2    0    0  0.10808428963E+03 -0.15729359888E+03  0.56060170095E+03  0.60524603016E+03  0.12500000000E+03 0.  0.
</event>
<event>
 5    0  0.5597833E-005  0.2912874E+03  0.7546771E-02  0.1089679E+00
         21   -1    0    0  502  501  0.00000000000E+00  0.00000000000E+00  0.36236162036E+03  0.36236162036E+03  0.00000000000E+00 0. -1.
         21   -1    0    0  501  502 -0.00000000000E+00 -0.00000000000E+00 -0.23415377849E+03  0.23415377849E+03  0.00000000000E+00 0. -1.
         25    1    1    2    0    0 -0.16228442481E+03  0.28068215237E+02 -0.17013062627E+02  0.20745723304E+03  0.12500000000E+03 0.  0.
         25    1    1    2    0    0  0.97592546690E+02 -0.46100494487E+02  0.17863375477E+03  0.24327880941E+03  0.12500000000E+03 0.  0.
         25    1    1    2    0    0  0.64691878117E+02  0.18032279249E+02 -0.33412850273E+02  0.14577935640E+03  0.12500000000E+03 0.  0.
</event>
<event>
 5    0  0.5597833E-005  0.2207713E+03  0.7546771E-02  0.1133309E+00
         21   -1    0    0  502  501  0.00000000000E+00  0.00000000000E+00  0.27453018052E+03  0.27453018052E+03  0.00000000000E+00 0.  1.
         21   -1    0    0  501  502 -0.00000000000E+00 -0.00000000000E+00 -0.17753950117E+03  0.17753950117E+03  0.00000000000E+00 0.  1.
         25    1    1    2    0    0 -0.65027074331E+01  0.39327578430E+02  0.50374190259E+02  0.14054003940E+03  0.12500000000E+03 0.  0.
         25    1    1    2    0    0 -0.43286996163E+02 -0.85087723370E+02  0.60965306473E+02  0.16868744262E+03  0.12500000000E+03 0.  0.
         25    1    1    2    0    0  0.49789703596E+02  0.45760144940E+02 -0.14348817383E+02  0.14284219968E+03  0.12500000000E+03 0.  0.
</event>
<event>
 5    0  0.5597833E-005  0.3591753E+03  0.7546771E-02  0.1058911E+00
         21   -1    0    0  502  501  0.00000000000E+00  0.00000000000E+00  0.59782673967E+03  0.59782673967E+03  0.00000000000E+00 0.  1.
         21   -1    0    0  501  502 -0.00000000000E+00 -0.00000000000E+00 -0.21579316593E+03  0.21579316593E+03  0.00000000000E+00 0.  1.
         25    1    1    2    0    0  0.11639774287E+03  0.16847883886E+03  0.27608068700E+03  0.36575825270E+03  0.12500000000E+03 0.  0.
         25    1    1    2    0    0 -0.20893172414E+03 -0.12488463212E+03  0.66730014742E+02  0.28164966103E+03  0.12500000000E+03 0.  0.
         25    1    1    2    0    0  0.92533981275E+02 -0.43594206739E+02  0.39222871997E+02  0.16621199186E+03  0.12500000000E+03 0.  0.
</event>
<event>
 5    0  0.5597833E-005  0.3641915E+03  0.7546771E-02  0.1056936E+00
         21   -1    0    0  502  501  0.00000000000E+00  0.00000000000E+00  0.11448313106E+04  0.11448313106E+04  0.00000000000E+00 0. -1.
         21   -1    0    0  501  502 -0.00000000000E+00 -0.00000000000E+00 -0.11585588062E+03  0.11585588062E+03  0.00000000000E+00 0. -1.
         25    1    1    2    0    0 -0.10309052433E+03 -0.10078857638E+03  0.88819403873E+03  0.90846003972E+03  0.12500000000E+03 0.  0.
         25    1    1    2    0    0  0.11686500966E+03  0.85466527748E+02  0.11422321107E+03  0.22278666880E+03  0.12500000000E+03 0.  0.
         25    1    1    2    0    0 -0.13774485323E+02  0.15322048630E+02  0.26558180153E+02  0.12944048267E+03  0.12500000000E+03 0.  0.
</event>
<event>
 5    0  0.5597833E-005  0.3245319E+03  0.7546771E-02  0.1073582E+00
         21   -1    0    0  502  501  0.00000000000E+00  0.00000000000E+00  0.12777740285E+03  0.12777740285E+03  0.00000000000E+00 0.  1.
         21   -1    0    0  501  502 -0.00000000000E+00 -0.00000000000E+00 -0.82425357098E+03  0.82425357098E+03  0.00000000000E+00 0.  1.
         25    1    1    2    0    0  0.18436031557E+03 -0.75558182901E+02 -0.21408466060E+03  0.31804874920E+03  0.12500000000E+03 0.  0.
         25    1    1    2    0    0 -0.62434682143E+02  0.15501068317E+03 -0.32306104393E+03  0.38460348352E+03  0.12500000000E+03 0.  0.
         25    1    1    2    0    0 -0.12192563343E+03 -0.79452500273E+02 -0.15933046360E+03  0.24937874111E+03  0.12500000000E+03 0.  0.
</event>
<event>
 5    0  0.5597833E-005  0.3862921E+03  0.7546771E-02  0.1048632E+00
         21   -1    0    0  502  501  0.00000000000E+00  0.00000000000E+00  0.84265039891E+03  0.84265039891E+03  0.00000000000E+00 0. -1.
         21   -1    0    0  501  502 -0.00000000000E+00 -0.00000000000E+00 -0.17708596827E+03  0.17708596827E+03  0.00000000000E+00 0. -1.
         25    1    1    2    0    0  0.11064575555E+03  0.12635963487E+03  0.17597864910E+03  0.27350086926E+03  0.12500000000E+03 0.  0.
         25    1    1    2    0    0  0.11109511561E+03  0.10582389109E+03  0.28028056843E+03  0.34310788052E+03  0.12500000000E+03 0.  0.
         25    1    1    2    0    0 -0.22174087116E+03 -0.23218352596E+03  0.20930521311E+03  0.40312761739E+03  0.12500000000E+03 0.  0.
</event>
<event>
 5    0  0.5597833E-005  0.2543754E+03  0.7546771E-02  0.1110570E+00
         21   -1    0    0  502  501  0.00000000000E+00  0.00000000000E+00  0.42527940139E+03  0.42527940139E+03  0.00000000000E+00 0. -1.
         21   -1    0    0  501  502 -0.00000000000E+00 -0.00000000000E+00 -0.15215141123E+03  0.15215141123E+03  0.00000000000E+00 0. -1.
         25    1    1    2    0    0 -0.38477338452E+02 -0.21997902750E+02  0.47921505798E+02  0.14101731815E+03  0.12500000000E+03 0.  0.
         25    1    1    2    0    0  0.33281006775E+02 -0.94411984292E+02  0.84131686198E+01  0.16036530047E+03  0.12500000000E+03 0.  0.
         25    1    1    2    0    0  0.51963316768E+01  0.11640988704E+03  0.21679331574E+03  0.27604819400E+03  0.12500000000E+03 0.  0.
</event>
<event>
 5    0  0.5597833E-005  0.3509744E+03  0.7546771E-02  0.1062216E+00
         21   -1    0    0  502  501  0.00000000000E+00  0.00000000000E+00  0.83663877354E+03  0.83663877354E+03  0.00000000000E+00 0.  1.
         21   -1    0    0  501  502 -0.00000000000E+00 -0.00000000000E+00 -0.14723562454E+03  0.14723562454E+03  0.00000000000E+00 0.  1.
         25    1    1    2    0    0 -0.99898544506E+02  0.39298254686E+02  0.52372368400E+02  0.17289284828E+03  0.12500000000E+03 0.  0.
         25    1    1    2    0    0  0.86722233451E+02  0.17904542558E+03  0.20975692514E+03  0.31496186728E+03  0.12500000000E+03 0.  0.
         25    1    1    2    0    0  0.13176311055E+02 -0.21834368027E+03  0.42727385546E+03  0.49601968252E+03  0.12500000000E+03 0.  0.
</event>
<event>
 5    0  0.5597833E-005  0.3683282E+03  0.7546771E-02  0.1055334E+00
         21   -1    0    0  502  501  0.00000000000E+00  0.00000000000E+00  0.23717777586E+03  0.23717777586E+03  0.00000000000E+00 0.  1.
         21   -1    0    0  501  502 -0.00000000000E+00 -0.00000000000E+00 -0.57199997436E+03  0.57199997436E+03  0.00000000000E+00 0.  1.
         25    1    1    2    0    0  0.73145097613E+01  0.25998308280E+03 -0.51109688462E+02  0.29305614761E+03  0.12500000000E+03 0.  0.
         25    1    1    2    0    0 -0.76053703737E+02 -0.24739818640E+03 -0.17740165269E+03  0.33776674624E+03  0.12500000000E+03 0.  0.
         25    1    1    2    0    0  0.68739193976E+02 -0.12584896401E+02 -0.10631085735E+03  0.17835485638E+03  0.12500000000E+03 0.  0.
</event>
<event>
 5    0  0.5597833E-005  0.4150563E+03  0.7546771E-02  0.1038687E+00
         21   -1    0    0  502  501  0.00000000000E+00  0.00000000000E+00  0.67947544544E+03  0.67947544544E+03  0.00000000000E+00 0. -1.
         21   -1    0    0  501  502 -0.00000000000E+00 -0.00000000000E+00 -0.25353639849E+03  0.25353639849E+03  0.00000000000E+00 0. -1.
         25    1    1    2    0    0 -0.12823401079E+03  0.20051811945E+03  0.33480061279E+03  0.42938086599E+03  0.12500000000E+03 0.  0.
         25    1    1    2    0    0  0.12018675427E+02 -0.27491447613E+03  0.15403923852E+02  0.30262963935E+03  0.12500000000E+03 0.  0.
         25    1    1    2    0    0  0.11621533536E+03  0.74396356676E+02  0.75734510304E+02  0.20100133858E+03  0.12500000000E+03 0.  0.
</event>
<event>
 5    0  0.5597833E-005  0.5047226E+03  0.7546771E-02  0.1012554E+00
         21   -1    0    0  502  501  0.00000000000E+00  0.00000000000E+00  0.38818921258E+04  0.38818921258E+04  0.00000000000E+00 0. -1.
         21   -1    0    0  501  502 -0.00000000000E+00 -0.00000000000E+00 -0.65623896825E+02  0.65623896825E+02  0.00000000000E+00 0. -1.
         25    1    1    2    0    0 -0.65276081078E+02  0.26093617671E+03  0.17382134667E+04  0.17633376622E+04  0.12500000000E+03 0.  0.
         25    1    1    2    0    0  0.65492558836E+02 -0.80139938179E+02  0.18839881019E+04  0.18909647942E+04  0.12500000000E+03 0.  0.
         25    1    1    2    0    0 -0.21647775803E+00 -0.18079623854E+03  0.19406666037E+03  0.29321356619E+03  0.12500000000E+03 0.  0.
</event>
<event>
 5    0  0.5597833E-005  0.2487519E+03  0.7546771E-02  0.1114096E+00
         21   -1    0    0  502  501  0.00000000000E+00  0.00000000000E+00  0.10842502679E+03  0.10842502679E+03  0.00000000000E+00 0.  1.
         21   -1    0    0  501  502 -0.00000000000E+00 -0.00000000000E+00 -0.57069398638E+03  0.57069398638E+03  0.00000000000E+00 0.  1.
         25    1    1    2    0    0  0.11752570480E+03 -0.54293246922E+02 -0.16748273024E+03  0.24583635386E+03  0.12500000000E+03 0.  0.
         25    1    1    2    0    0 -0.36997734929E+02  0.84994330676E+02 -0.94911281560E+02  0.18228005926E+03  0.12500000000E+03 0.  0.
         25    1    1    2    0    0 -0.80527969872E+02 -0.30701083754E+02 -0.19987494778E+03  0.25100260004E+03  0.12500000000E+03 0.  0.
</event>
<event>
 5    0  0.5597833E-005  0.2440144E+03  0.7546771E-02  0.1117147E+00
         21   -1    0    0  502  501  0.00000000000E+00  0.00000000000E+00  0.44310506736E+02  0.44310506736E+02  0.00000000000E+00 0. -1.
         21   -1    0    0  501  502 -0.00000000000E+00 -0.00000000000E+00 -0.13437678503E+04  0.13437678503E+04  0.00000000000E+00 0. -1.
         25    1    1    2    0    0 -0.13222649079E+03 -0.12330952146E+02 -0.54209342469E+03  0.57194945435E+03  0.12500000000E+03 0.  0.
         25    1    1    2    0    0  0.30333214786E+02 -0.16289917844E+02 -0.23133954844E+03  0.26519512065E+03  0.12500000000E+03 0.  0.
         25    1    1    2    0    0  0.10189327600E+03  0.28620869990E+02 -0.52602437040E+03  0.55093378200E+03  0.12500000000E+03 0.  0.
</event>
<event>
 5    0  0.5597833E-005  0.3365742E+03  0.7546771E-02  0.1068264E+00
         21   -1    0    0  502  501  0.00000000000E+00  0.00000000000E+00  0.32621450502E+03  0.32621450502E+03  0.00000000000E+00 0. -1.
         21   -1    0    0  501  502 -0.00000000000E+00 -0.00000000000E+00 -0.34726295670E+03  0.34726295670E+03  0.00000000000E+00 0. -1.
         25    1    1    2    0    0  0.15645684863E+03  0.10610215942E+03 -0.69905611060E+02  0.23716704698E+03  0.12500000000E+03 0.  0.
         25    1    1    2    0    0  0.93112455705E+01 -0.19043624622E+02  0.14403673130E+03  0.19188782894E+03  0.12500000000E+03 0.  0.
         25    1    1    2    0    0 -0.16576809420E+03 -0.87058534794E+02 -0.95179571912E+02  0.24442258579E+03  0.12500000000E+03 0.  0.
</event>
<event>
 5    0  0.5597833E-005  0.4541470E+03  0.7546771E-02  0.1026493E+00
         21   -1    0    0  502  501  0.00000000000E+00  0.00000000000E+00  0.10314606795E+04  0.10314606795E+04  0.00000000000E+00 0. -1.
         21   -1    0    0  501  502 -0.00000000000E+00 -0.00000000000E+00 -0.19995868673E+03  0.19995868673E+03  0.00000000000E+00 0. -1.
         25    1    1    2    0    0  0.14443221572E+00 -0.95804544018E+02 -0.85246586578E+02  0.17908241689E+03  0.12500000000E+03 0.  0.
         25    1    1    2    0    0  0.22132060746E+02 -0.87985713499E+02  0.57960834363E+02  0.16497203464E+03  0.12500000000E+03 0.  0.
         25    1    1    2    0    0 -0.22276492962E+02  0.18379025752E+03  0.85878774503E+03  0.88736491474E+03  0.12500000000E+03 0.  0.
</event>
<event>
 5    0  0.5597833E-005  0.3454704E+03  0.7546771E-02  0.1064490E+00
         21   -1    0    0  502  501  0.00000000000E+00  0.00000000000E+00  0.30099131252E+03  0.30099131252E+03  0.00000000000E+00 0.  1.
         21   -1    0    0  501  502 -0.00000000000E+00 -0.00000000000E+00 -0.39652236278E+03  0.39652236278E+03  0.00000000000E+00 0.  1.
         25    1    1    2    0    0  0.13342740171E+03 -0.40884459932E+02 -0.18705440348E+03  0.26474281945E+03  0.12500000000E+03 0.  0.
         25    1    1    2    0    0 -0.19483530474E+03  0.19457261013E+02  0.15391780469E+03  0.27866659574E+03  0.12500000000E+03 0.  0.
         25    1    1    2    0    0  0.61407903032E+02  0.21427198919E+02 -0.62394451464E+02  0.15410426010E+03  0.12500000000E+03 0.  0.
</event>
<event>
 5    0  0.5597833E-005  0.2435715E+03  0.7546771E-02  0.1117436E+00
         21   -1    0    0  502  501  0.00000000000E+00  0.00000000000E+00  0.39016790477E+03  0.39016790477E+03  0.00000000000E+00 0.  1.
         21   -1    0    0  501  502 -0.00000000000E+00 -0.00000000000E+00 -0.15205519919E+03  0.15205519919E+03  0.00000000000E+00 0.  1.
         25    1    1    2    0    0 -0.26162599103E+02  0.32811814874E+02  0.21726489386E+03  0.25414588506E+03  0.12500000000E+03 0.  0.
         25    1    1    2    0    0  0.72519428489E+01  0.37034775579E+02 -0.31727565627E+02  0.13437188582E+03  0.12500000000E+03 0.  0.
         25    1    1    2    0    0  0.18910656254E+02 -0.69846590453E+02  0.52575377345E+02  0.15370533309E+03  0.12500000000E+03 0.  0.
</event>
<event>
 5    0  0.5597833E-005  0.2457414E+03  0.7546771E-02  0.1116026E+00
         21   -1    0    0  502  501  0.00000000000E+00  0.00000000000E+00  0.64815674499E+02  0.64815674499E+02  0.00000000000E+00 0.  1.
         21   -1    0    0  501  502 -0.00000000000E+00 -0.00000000000E+00 -0.93170118184E+03  0.93170118184E+03  0.00000000000E+00 0.  1.
         25    1    1    2    0    0  0.93366215499E+01  0.55630922109E+02 -0.19902935750E+03  0.24170158697E+03  0.12500000000E+03 0.  0.
         25    1    1    2    0    0  0.58499582806E+02  0.42132298507E+02 -0.14647900363E+03  0.20561719352E+03  0.12500000000E+03 0.  0.
         25    1    1    2    0    0 -0.67836204356E+02 -0.97763220617E+02 -0.52137714621E+03  0.54919807585E+03  0.12500000000E+03 0.  0.
</event>
<event>
 5    0  0.5597833E-005  0.2208362E+03  0.7546771E-02  0.1133261E+00
         21   -1    0    0  502  501  0.00000000000E+00  0.00000000000E+00  0.19808698988E+03  0.19808698988E+03  0.00000000000E+00 0.  1.
         21   -1    0    0  501  502 -0.00000000000E+00 -0.00000000000E+00 -0.24619802805E+03  0.24619802805E+03  0.00000000000E+00 0.  1.
         25    1    1    2    0    0  0.18517728179E+02  0.22744879727E+02 -0.15224882538E+02  0.12929436515E+03  0.12500000000E+03 0.  0.
         25    1    1    2    0    0  0.72571482087E+01  0.53234123675E+02 -0.81626854596E+02  0.15866468263E+03  0.12500000000E+03 0.  0.
         25    1    1    2    0    0 -0.25774876388E+02 -0.75979003401E+02  0.48740698964E+02  0.15632597016E+03  0.12500000000E+03 0.  0.
</event>
<event>
 5    0  0.5597833E-005  0.3457789E+03  0.7546771E-02  0.1064361E+00
         21   -1    0    0  502  501  0.00000000000E+00  0.00000000000E+00  0.78234847669E+03  0.78234847669E+03  0.00000000000E+00 0.  1.
         21   -1    0    0  501  502 -0.00000000000E+00 -0.00000000000E+00 -0.15282578288E+03  0.15282578288E+03  0.00000000000E+00 0.  1.
         25    1    1    2    0    0 -0.32420676493E+02 -0.26836860798E+03  0.20779277705E+03  0.36314686865E+03  0.12500000000E+03 0.  0.
         25    1    1    2    0    0  0.92280950075E+01  0.71707585983E+02  0.21881348465E+03  0.26216688709E+03  0.12500000000E+03 0.  0.
         25    1    1    2    0    0  0.23192581485E+02  0.19666102200E+03  0.20291643211E+03  0.30986050382E+03  0.12500000000E+03 0.  0.
</event>
<event>
 5    0  0.5597833E-005  0.2289576E+03  0.7546771E-02  0.1127376E+00
         21   -1    0    0  502  501  0.00000000000E+00  0.00000000000E+00  0.11598354214E+03  0.11598354214E+03  0.00000000000E+00 0.  1.
         21   -1    0    0  501  502 -0.00000000000E+00 -0.00000000000E+00 -0.45197427007E+03  0.45197427007E+03  0.00000000000E+00 0.  1.
         25    1    1    2    0    0  0.65911080992E+02 -0.22006412484E+02 -0.11638339096E+03  0.18438721886E+03  0.12500000000E+03 0.  0.
         25    1    1    2    0    0  0.41529625739E+02  0.59001137856E+02 -0.11809947238E+03  0.18648948887E+03  0.12500000000E+03 0.  0.
         25    1    1    2    0    0 -0.10744070673E+03 -0.36994725372E+02 -0.10150786458E+03  0.19708110447E+03  0.12500000000E+03 0.  0.
</event>
<event>
 5    0  0.5597833E-005  0.4003657E+03  0.7546771E-02  0.1043653E+00
         21   -1    0    0  502  501  0.00000000000E+00  0.00000000000E+00  0.27774065410E+03  0.27774065410E+03  0.00000000000E+00 0. -1.
         21   -1    0    0  501  502 -0.00000000000E+00 -0.00000000000E+00 -0.57713089995E+03  0.57713089995E+03  0.00000000000E+00 0. -1.
         25    1    1    2    0    0  0.18696248176E+03  0.24572196885E+03 -0.13644570708E+03  0.35996761874E+03  0.12500000000E+03 0.  0.
         25    1    1    2    0    0 -0.57536677904E+02 -0.24211992543E+03 -0.51472433717E+02  0.28320829618E+03  0.12500000000E+03 0.  0.
         25    1    1    2    0    0 -0.12942580386E+03 -0.36020434253E+01 -0.11147210505E+03  0.21169563912E+03  0.12500000000E+03 0.  0.
</event>
<event>
 5    0  0.5597833E-005  0.2666110E+03  0.7546771E-02  0.1103235E+00
         21   -1    0    0  502  501  0.00000000000E+00  0.00000000000E+00  0.44805121200E+02  0.44805121200E+02  0.00000000000E+00 0.  1.
         21   -1    0    0  501  502 -0.00000000000E+00 -0.00000000000E+00 -0.15864573538E+04  0.15864573538E+04  0.00000000000E+00 0.  1.
         25    1    1    2    0    0 -0.54947684643E+02 -0.12977257430E+03 -0.86719320213E+03  0.88741716172E+03  0.12500000000E+03 0.  0.
         25    1    1    2    0    0  0.72180011392E+01  0.96978391786E+02 -0.23568784941E+03  0.28395540209E+03  0.12500000000E+03 0.  0.
         25    1    1    2    0    0  0.47729683504E+02  0.32794182516E+02 -0.43877118109E+03  0.45988991122E+03  0.12500000000E+03 0.  0.
</event>
<event>
 5    0  0.5597833E-005  0.2588147E+03  0.7546771E-02  0.1107857E+00
         21   -1    0    0  502  501  0.00000000000E+00  0.00000000000E+00  0.24377943067E+03  0.24377943067E+03  0.00000000000E+00 0.  1.
         21   -1    0    0  501  502 -0.00000000000E+00 -0.00000000000E+00 -0.27477731711E+03  0.27477731711E+03  0.00000000000E+00 0.  1.
         25    1    1    2    0    0  0.20192602345E+02 -0.33713891511E+02  0.10985678446E+03  0.17099087918E+03  0.12500000000E+03 0.  0.
         25    1    1    2    0    0 -0.38497331808E+02  0.76178566446E+02  0.30917235317E+01  0.15139279143E+03  0.12500000000E+03 0.  0.
         25    1    1    2    0    0  0.18304729463E+02 -0.42464674935E+02 -0.14394639443E+03  0.19617307717E+03  0.12500000000E+03 0.  0.
</event>
<event>
 5    0  0.5597833E-005  0.4478352E+03  0.7546771E-02  0.1028370E+00
         21   -1    0    0  502  501  0.00000000000E+00  0.00000000000E+00  0.94639888683E+03  0.94639888683E+03  0.00000000000E+00 0.  1.
         21   -1    0    0  501  502 -0.00000000000E+00 -0.00000000000E+00 -0.21191525728E+03  0.21191525728E+03  0.00000000000E+00 0.  1.
         25    1    1    2    0    0 -0.18800054195E+03  0.24219633808E+03  0.50835332628E+02  0.33498134425E+03  0.12500000000E+03 0.  0.
         25    1    1    2    0    0  0.20205700025E+02 -0.19253178208E+03  0.25455035791E+03  0.34336226080E+03  0.12500000000E+03 0.  0.
         25    1    1    2    0    0  0.16779484192E+03 -0.49664555995E+02  0.42909793901E+03  0.47997053906E+03  0.12500000000E+03 0.  0.
</event>
<event>
 5    0  0.5597833E-005  0.3236946E+03  0.7546771E-02  0.1073961E+00
         21   -1    0    0  502  501  0.00000000000E+00  0.00000000000E+00  0.21148532771E+03  0.21148532771E+03  0.00000000000E+00 0. -1.
         21   -1    0    0  501  502 -0.00000000000E+00 -0.00000000000E+00 -0.49543947644E+03  0.49543947644E+03  0.00000000000E+00 0. -1.
         25    1    1    2    0    0  0.14712970000E+01 -0.11992886263E+03  0.56810509184E+02  0.18231163090E+03  0.12500000000E+03 0.  0.
         25    1    1    2    0    0  0.98775821966E+02  0.50662177242E+02 -0.30292751777E+03  0.34599624309E+03  0.12500000000E+03 0.  0.
         25    1    1    2    0    0 -0.10024711897E+03  0.69266685392E+02 -0.37837140135E+02  0.17861693016E+03  0.12500000000E+03 0.  0.
</event>
<event>
 5    0  0.5597833E-005  0.4492501E+03  0.7546771E-02  0.1027946E+00
         21   -1    0    0  502  501  0.00000000000E+00  0.00000000000E+00  0.63449484309E+03  0.63449484309E+03  0.00000000000E+00 0. -1.
         21   -1    0    0  501  502 -0.00000000000E+00 -0.00000000000E+00 -0.31808877647E+03  0.31808877647E+03  0.00000000000E+00 0. -1.
         25    1    1    2    0    0  0.10598928216E+03  0.35223220274E+03  0.80657525496E+01  0.38857600150E+03  0.12500000000E+03 0.  0.
         25    1    1    2    0    0 -0.23835365345E+02 -0.26557647029E+03  0.15429536478E+03  0.33246209679E+03  0.12500000000E+03 0.  0.
         25    1    1    2    0    0 -0.82153916811E+02 -0.86655732456E+02  0.15404494929E+03  0.23154552126E+03  0.12500000000E+03 0.  0.
</event>
<event>
 5    0  0.5597833E-005  0.4089668E+03  0.7546771E-02  0.1040718E+00
         21   -1    0    0  502  501  0.00000000000E+00  0.00000000000E+00  0.15184854140E+03  0.15184854140E+03  0.00000000000E+00 0. -1.
         21   -1    0    0  501  502 -0.00000000000E+00 -0.00000000000E+00 -0.11014518264E+04  0.11014518264E+04  0.00000000000E+00 0. -1.
         25    1    1    2    0    0 -0.70454302422E+02 -0.22789088429E+03 -0.40777113761E+03  0.48867204190E+03  0.12500000000E+03 0.  0.
         25    1    1    2    0    0  0.18168374885E+03  0.12336624519E+03 -0.50392515686E+03  0.56373200970E+03  0.12500000000E+03 0.  0.
         25    1    1    2    0    0 -0.11122944643E+03  0.10452463909E+03 -0.37906990532E+02  0.20089631620E+03  0.12500000000E+03 0.  0.
</event>
<event>
 5    0  0.5597833E-005  0.6766506E+03  0.7546771E-02  0.9758018E-01
         21   -1    0    0  502  501  0.00000000000E+00  0.00000000000E+00  0.56868662812E+03  0.56868662812E+03  0.00000000000E+00 0.  1.
         21   -1    0    0  501  502 -0.00000000000E+00 -0.00000000000E+00 -0.80511119874E+03  0.80511119874E+03  0.00000000000E+00 0.  1.
         25    1    1    2    0    0  0.42780588906E+02 -0.27034972435E+03 -0.69709399731E+03  0.75926556180E+03  0.12500000000E+03 0.  0.
         25    1    1    2    0    0 -0.45628590974E+02  0.14650654165E+03  0.36252338294E+03  0.41303067470E+03  0.12500000000E+03 0.  0.
         25    1    1    2    0    0  0.28480020676E+01  0.12384318270E+03  0.98146043754E+02  0.20150159037E+03  0.12500000000E+03 0.  0.
</event>
<event>
 5    0  0.5597833E-005  0.3990397E+03  0.7546771E-02  0.1044113E+00
         21   -1    0    0  502  501  0.00000000000E+00  0.00000000000E+00  0.17788971385E+03  0.17788971385E+03  0.00000000000E+00 0.  1.
         21   -1    0    0  501  502 -0.00000000000E+00 -0.00000000000E+00 -0.89512007065E+03  0.89512007065E+03  0.00000000000E+00 0.  1.
         25    1    1    2    0    0  0.16114682505E+03 -0.32940970385E+02 -0.54353419651E+02  0.21361811950E+03  0.12500000000E+03 0.  0.
         25    1    1    2    0    0 -0.60357375451E+01 -0.14233425301E+03 -0.52953553498E+03  0.56243075353E+03  0.12500000000E+03 0.  0.
         25    1    1    2    0    0 -0.15511108750E+03  0.17527522340E+03 -0.13334140217E+03  0.29696091146E+03  0.12500000000E+03 0.  0.
</event>
<event>
 5    0  0.5597833E-005  0.3173077E+03  0.7546771E-02  0.1076895E+00
         21   -1    0    0  502  501  0.00000000000E+00  0.00000000000E+00  0.18023392283E+03  0.18023392283E+03  0.00000000000E+00 0.  1.
         21   -1    0    0  501  502 -0.00000000000E+00 -0.00000000000E+00 -0.55863062622E+03  0.55863062622E+03  0.00000000000E+00 0.  1.
         25    1    1    2    0    0  0.45609336625E+02  0.16771504190E+03  0.82965369801E+01  0.21424840581E+03  0.12500000000E+03 0.  0.
         25    1    1    2    0    0 -0.68283565203E+02 -0.22077089628E+02 -0.88070687698E+02  0.16891266736E+03  0.12500000000E+03 0.  0.
         25    1    1    2    0    0  0.22674228578E+02 -0.14563795228E+03 -0.29862255268E+03  0.35570347588E+03  0.12500000000E+03 0.  0.
</event>
<event>
 5    0  0.5597833E-005  0.2474028E+03  0.7546771E-02  0.1114957E+00
         21   -1    0    0  502  501  0.00000000000E+00  0.00000000000E+00  0.83645447629E+02  0.83645447629E+02  0.00000000000E+00 0.  1.
         21   -1    0    0  501  502 -0.00000000000E+00 -0.00000000000E+00 -0.73175677222E+03  0.73175677222E+03  0.00000000000E+00 0.  1.
         25    1    1    2    0    0 -0.25707436319E+02  0.20059957107E+02 -0.55481627231E+02  0.14059333242E+03  0.12500000000E+03 0.  0.
         25    1    1    2    0    0  0.69654127595E+02 -0.59251165524E+02 -0.45138861377E+03  0.47722015752E+03  0.12500000000E+03 0.  0.
         25    1    1    2    0    0 -0.43946691277E+02  0.39191208418E+02 -0.14124108359E+03  0.19758872991E+03  0.12500000000E+03 0.  0.
</event>
<event>
 5    0  0.5597833E-005  0.4049161E+03  0.7546771E-02  0.1042091E+00
         21   -1    0    0  502  501  0.00000000000E+00  0.00000000000E+00  0.17711317797E+03  0.17711317797E+03  0.00000000000E+00 0.  1.
         21   -1    0    0  501  502 -0.00000000000E+00 -0.00000000000E+00 -0.92571889345E+03  0.92571889345E+03  0.00000000000E+00 0.  1.
         25    1    1    2    0    0 -0.19216861170E+00  0.44540970488E+02 -0.37410842976E+02  0.13787133913E+03  0.12500000000E+03 0.  0.
         25    1    1    2    0    0 -0.13334137053E+03  0.23918159041E+03 -0.43393967715E+03  0.52812536172E+03  0.12500000000E+03 0.  0.
         25    1    1    2    0    0  0.13353353915E+03 -0.28372256090E+03 -0.27725519535E+03  0.43683537058E+03  0.12500000000E+03 0.  0.
</event>
<event>
 5    0  0.5597833E-005  0.2125303E+03  0.7546771E-02  0.1139578E+00
         21   -1    0    0  502  501  0.00000000000E+00  0.00000000000E+00  0.80569702465E+03  0.80569702465E+03  0.00000000000E+00 0.  1.
         21   -1    0    0  501  502 -0.00000000000E+00 -0.00000000000E+00 -0.56062156392E+02  0.56062156392E+02  0.00000000000E+00 0.  1.
         25    1    1    2    0    0  0.43672011947E+02  0.71388853836E+02  0.21258091709E+03  0.26042131132E+03  0.12500000000E+03 0.  0.
         25    1    1    2    0    0  0.51977289097E+01 -0.48129481720E+02  0.27950721849E+03  0.30998830395E+03  0.12500000000E+03 0.  0.
         25    1    1    2    0    0 -0.48869740857E+02 -0.23259372116E+02  0.25754673268E+03  0.29134956578E+03  0.12500000000E+03 0.  0.
</event>
<event>
 5    0  0.5597833E-005  0.4360177E+03  0.7546771E-02  0.1031976E+00
         21   -1    0    0  502  501  0.00000000000E+00  0.00000000000E+00  0.17797914721E+03  0.17797914721E+03  0.00000000000E+00 0. -1.
         21   -1    0    0  501  502 -0.00000000000E+00 -0.00000000000E+00 -0.10681669163E+04  0.10681669163E+04  0.00000000000E+00 0. -1.
         25    1    1    2    0    0 -0.23345335007E+02  0.12823757159E+03 -0.24438830488E+03  0.30387583484E+03  0.12500000000E+03 0.  0.
         25    1    1    2    0    0 -0.12569919623E+03 -0.20770503713E+01 -0.68460960588E+03  0.70719156848E+03  0.12500000000E+03 0.  0.
         25    1    1    2    0    0  0.14904453123E+03 -0.12616052122E+03  0.38810141620E+02  0.23507866024E+03  0.12500000000E+03 0.  0.
</event>
<event>
 5    0  0.5597833E-005  0.3334081E+03  0.7546771E-02  0.1069639E+00
         21   -1    0    0  502  501  0.00000000000E+00  0.00000000000E+00  0.84869899881E+02  0.84869899881E+02  0.00000000000E+00 0.  1.
         21   -1    0    0  501  502 -0.00000000000E+00 -0.00000000000E+00 -0.13097808377E+04  0.13097808377E+04  0.00000000000E+00 0.  1.
         25    1    1    2    0    0  0.94912936921E+02 -0.13005532076E+03 -0.37074365597E+03  0.42308239209E+03  0.12500000000E+03 0.  0.
         25    1    1    2    0    0  0.10767117214E+03 -0.30423794436E+01 -0.17927283126E+03  0.24365156558E+03  0.12500000000E+03 0.  0.
         25    1    1    2    0    0 -0.20258410906E+03  0.13309770020E+03 -0.67489445056E+03  0.72791677988E+03  0.12500000000E+03 0.  0.
</event>
<event>
 5    0  0.5597833E-005  0.3462319E+03  0.7546771E-02  0.1064172E+00
         21   -1    0    0  502  501  0.00000000000E+00  0.00000000000E+00  0.91861497815E+02  0.91861497815E+02  0.00000000000E+00 0.  1.
         21   -1    0    0  501  502 -0.00000000000E+00 -0.00000000000E+00 -0.13049706823E+04  0.13049706823E+04  0.00000000000E+00 0.  1.
         25    1    1    2    0    0 -0.14030511331E+03 -0.52369783783E+02 -0.46060913333E+03  0.50021384705E+03  0.12500000000E+03 0.  0.
         25    1    1    2    0    0  0.26306752871E+02  0.17537944701E+03 -0.59924195004E+03  0.63731147045E+03  0.12500000000E+03 0.  0.
         25    1    1    2    0    0  0.11399836044E+03 -0.12300966323E+03 -0.15325810107E+03  0.25930686257E+03  0.12500000000E+03 0.  0.
</event>
<event>
 5    0  0.5597833E-005  0.1928448E+03  0.7546771E-02  0.1155920E+00
         21   -1    0    0  502  501  0.00000000000E+00  0.00000000000E+00  0.87871023961E+02  0.87871023961E+02  0.00000000000E+00 0.  1.
         21   -1    0    0  501  502 -0.00000000000E+00 -0.00000000000E+00 -0.42322393872E+03  0.42322393872E+03  0.00000000000E+00 0.  1.
         25    1    1    2    0    0 -0.34648321954E+01  0.31057330678E+02 -0.11313490326E+03  0.17146739978E+03  0.12500000000E+03 0.  0.
         25    1    1    2    0    0 -0.20469667891E+02 -0.26881020836E+02 -0.11376767271E+03  0.17236496146E+03  0.12500000000E+03 0.  0.
         25    1    1    2    0    0  0.23934500086E+02 -0.41763098415E+01 -0.10845033879E+03  0.16726260144E+03  0.12500000000E+03 0.  0.
</event>
<event>
 5    0  0.5793029E-005  0.2824701E+03  0.7546771E-02  0.1094347E+00
         21   -1    0    0  502  501  0.00000000000E+00  0.00000000000E+00  0.80037248647E+02  0.80037248647E+02  0.00000000000E+00 0.  1.
         21   -1    0    0  501  502 -0.00000000000E+00 -0.00000000000E+00 -0.99690248195E+03  0.99690248195E+03  0.00000000000E+00 0.  1.
         25    1    1    2    0    0 -0.74421939777E+02  0.16975913741E+03 -0.32971930932E+03  0.39836743440E+03  0.12500000000E+03 0.  0.
         25    1    1    2    0    0 -0.11992902134E+02 -0.11996661100E+03 -0.23878044327E+03  0.29525737509E+03  0.12500000000E+03 0.  0.
         25    1    1    2    0    0  0.86414841911E+02 -0.49792526407E+02 -0.34836548071E+03  0.38331492111E+03  0.12500000000E+03 0.  0.
</event>
<event>
 5    0  0.5669754E-005  0.3034082E+03  0.7546771E-02  0.1083549E+00
         21   -1    0    0  502  501  0.00000000000E+00  0.00000000000E+00  0.47309127668E+03  0.47309127668E+03  0.00000000000E+00 0.  1.
         21   -1    0    0  501  502 -0.00000000000E+00 -0.00000000000E+00 -0.19458517322E+03  0.19458517322E+03  0.00000000000E+00 0.  1.
         25    1    1    2    0    0 -0.76694762978E+02  0.29650595045E+02  0.43277203976E+02  0.15575352593E+03  0.12500000000E+03 0.  0.
         25    1    1    2    0    0  0.61775705644E+02 -0.17220332091E+03  0.23327257281E+03  0.32173174348E+03  0.12500000000E+03 0.  0.
         25    1    1    2    0    0  0.14919057334E+02  0.14255272586E+03  0.19563266769E+01  0.19019118049E+03  0.12500000000E+03 0.  0.
</event>
<event>
 5    0  0.5597833E-005  0.3055715E+03  0.7546771E-02  0.1082488E+00
         21   -1    0    0  502  501  0.00000000000E+00  0.00000000000E+00  0.92960745781E+03  0.92960745781E+03  0.00000000000E+00 0. -1.
         21   -1    0    0  501  502 -0.00000000000E+00 -0.00000000000E+00 -0.10044450305E+03  0.10044450305E+03  0.00000000000E+00 0. -1.
         25    1    1    2    0    0  0.76636343958E+02  0.10977197898E+03  0.45688697862E+03  0.49223340787E+03  0.12500000000E+03 0.  0.
         25    1    1    2    0    0 -0.49427962257E+02  0.34653411733E+02  0.25718657681E+02  0.14117518107E+03  0.12500000000E+03 0.  0.
         25    1    1    2    0    0 -0.27208381701E+02 -0.14442539071E+03  0.34655731846E+03  0.39664337193E+03  0.12500000000E+03 0.  0.
</event>
<event>
 5    0  0.5597833E-005  0.2697552E+03  0.7546771E-02  0.1101420E+00
         21   -1    0    0  502  501  0.00000000000E+00  0.00000000000E+00  0.27520651613E+02  0.27520651613E+02  0.00000000000E+00 0.  1.
         21   -1    0    0  501  502 -0.00000000000E+00 -0.00000000000E+00 -0.26441193122E+04  0.26441193122E+04  0.00000000000E+00 0.  1.
         25    1    1    2    0    0 -0.16910418339E+01 -0.58841585552E+02 -0.84053427793E+03  0.85181457148E+03  0.12500000000E+03 0.  0.
         25    1    1    2    0    0 -0.47020809564E+02 -0.85059268782E+02 -0.40730237006E+03  0.43699686085E+03  0.12500000000E+03 0.  0.
         25    1    1    2    0    0  0.48711851398E+02  0.14390085433E+03 -0.13687620126E+04  0.13828285315E+04  0.12500000000E+03 0.  0.
</event>
<event>
 5    0  0.6219517E-005  0.6399037E+03  0.7546771E-02  0.9825911E-01
         21   -1    0    0  502  501  0.00000000000E+00  0.00000000000E+00  0.22576857063E+03  0.22576857063E+03  0.00000000000E+00 0. -1.
         21   -1    0    0  501  502 -0.00000000000E+00 -0.00000000000E+00 -0.18137015220E+04  0.18137015220E+04  0.00000000000E+00 0. -1.
         25    1    1    2    0    0  0.12630972899E+02  0.25352554545E+03 -0.88899153762E+03  0.93293391922E+03  0.12500000000E+03 0.  0.
         25    1    1    2    0    0  0.21777644856E+03 -0.30308984008E+03 -0.73850576963E+03  0.83684275971E+03  0.12500000000E+03 0.  0.
         25    1    1    2    0    0 -0.23040742146E+03  0.49564294621E+02  0.39564355841E+02  0.26969341374E+03  0.12500000000E+03 0.  0.
</event>
<event>
 5    0  0.5597833E-005  0.4054539E+03  0.7546771E-02  0.1041907E+00
         21   -1    0    0  502  501  0.00000000000E+00  0.00000000000E+00  0.19301666601E+03  0.19301666601E+03  0.00000000000E+00 0. -1.
         21   -1    0    0  501  502 -0.00000000000E+00 -0.00000000000E+00 -0.85170301465E+03  0.85170301465E+03  0.00000000000E+00 0. -1.
         25    1    1    2    0    0 -0.14193449462E+03  0.22365730804E+03 -0.36450472680E+03  0.46760740805E+03  0.12500000000E+03 0.  0.
         25    1    1    2    0    0 -0.26727364030E+02 -0.25401663917E+03 -0.17112980282E+03  0.33188735194E+03  0.12500000000E+03 0.  0.
         25    1    1    2    0    0  0.16866185865E+03  0.30359331128E+02 -0.12305181902E+03  0.24522492066E+03  0.12500000000E+03 0.  0.
</event>
<event>
 5    0  0.5597833E-005  0.3037180E+03  0.7546771E-02  0.1083397E+00
         21   -1    0    0  502  501  0.00000000000E+00  0.00000000000E+00  0.21490454037E+03  0.21490454037E+03  0.00000000000E+00 0.  1.
         21   -1    0    0  501  502 -0.00000000000E+00 -0.00000000000E+00 -0.42923537610E+03  0.42923537610E+03  0.00000000000E+00 0.  1.
         25    1    1    2    0    0  0.13104955698E+03  0.34033144236E+02 -0.41903943930E+02  0.18897931582E+03  0.12500000000E+03 0.  0.
         25    1    1    2    0    0 -0.49609997420E+02  0.81946445070E+02 -0.21000334386E+03  0.26249338304E+03  0.12500000000E+03 0.  0.
         25    1    1    2    0    0 -0.81439559555E+02 -0.11597958931E+03  0.37576452066E+02  0.19266721762E+03  0.12500000000E+03 0.  0.
</event>
<event>
 5    0  0.5858462E-005  0.4551916E+03  0.7546771E-02  0.1026185E+00
         21   -1    0    0  502  501  0.00000000000E+00  0.00000000000E+00  0.61933425758E+03  0.61933425758E+03  0.00000000000E+00 0.  1.
         21   -1    0    0  501  502 -0.00000000000E+00 -0.00000000000E+00 -0.33455175386E+03  0.33455175386E+03  0.00000000000E+00 0.  1.
         25    1    1    2    0    0  0.24128044028E+03 -0.90647874362E+02  0.78368439633E+02  0.29698468027E+03  0.12500000000E+03 0.  0.
         25    1    1    2    0    0 -0.10215910559E+03  0.26810796574E+03 -0.20246198322E+02  0.31361325338E+03  0.12500000000E+03 0.  0.
         25    1    1    2    0    0 -0.13912133469E+03 -0.17746009138E+03  0.22666026242E+03  0.34328807779E+03  0.12500000000E+03 0.  0.
</event>
<event>
 5    0  0.5688663E-005  0.6489705E+03  0.7546771E-02  0.9808713E-01
         21   -1    0    0  502  501  0.00000000000E+00  0.00000000000E+00  0.81286668724E+03  0.81286668724E+03  0.00000000000E+00 0.  1.
         21   -1    0    0  501  502 -0.00000000000E+00 -0.00000000000E+00 -0.51812028917E+03  0.51812028917E+03  0.00000000000E+00 0.  1.
         25    1    1    2    0    0  0.18566175188E+03  0.16512224519E+03  0.18999235705E+03  0.33683488196E+03  0.12500000000E+03 0.  0.
         25    1    1    2    0    0 -0.45048781135E+03  0.13958627809E+03  0.24877937754E+03  0.54766757791E+03  0.12500000000E+03 0.  0.
         25    1    1    2    0    0  0.26482605947E+03 -0.30470852329E+03 -0.14402533653E+03  0.44648451653E+03  0.12500000000E+03 0.  0.
</event>
<event>
 5    0  0.5597833E-005  0.4845722E+03  0.7546771E-02  0.1017886E+00
         21   -1    0    0  502  501  0.00000000000E+00  0.00000000000E+00  0.18921304696E+04  0.18921304696E+04  0.00000000000E+00 0. -1.
         21   -1    0    0  501  502 -0.00000000000E+00 -0.00000000000E+00 -0.12409833225E+03  0.12409833225E+03  0.00000000000E+00 0. -1.
         25    1    1    2    0    0 -0.74360234702E+02 -0.22174486006E+03  0.13214148770E+04  0.13477620356E+04  0.12500000000E+03 0.  0.
         25    1    1    2    0    0 -0.72883916934E+02 -0.47969438426E+02  0.21627197768E+03  0.26459724243E+03  0.12500000000E+03 0.  0.
         25    1    1    2    0    0  0.14724415164E+03  0.26971429849E+03  0.23034528262E+03  0.40386952377E+03  0.12500000000E+03 0.  0.
</event>
<event>
 5    0  0.5597833E-005  0.4181215E+03  0.7546771E-02  0.1037679E+00
         21   -1    0    0  502  501  0.00000000000E+00  0.00000000000E+00  0.10818831396E+03  0.10818831396E+03  0.00000000000E+00 0.  1.
         21   -1    0    0  501  502 -0.00000000000E+00 -0.00000000000E+00 -0.16159376580E+04  0.16159376580E+04  0.00000000000E+00 0.  1.
         25    1    1    2    0    0 -0.18534124304E+03  0.21459159175E+03 -0.40443960101E+03  0.50950693664E+03  0.12500000000E+03 0.  0.
         25    1    1    2    0    0  0.79861255398E+02 -0.14773093219E+02 -0.10218481554E+03  0.18072852825E+03  0.12500000000E+03 0.  0.
         25    1    1    2    0    0  0.10547998764E+03 -0.19981849853E+03 -0.10011249275E+04  0.10338905071E+04  0.12500000000E+03 0.  0.
</event>
<event>
 5    0  0.5597833E-005  0.2548615E+03  0.7546771E-02  0.1110270E+00
         21   -1    0    0  502  501  0.00000000000E+00  0.00000000000E+00  0.75744368753E+03  0.75744368753E+03  0.00000000000E+00 0.  1.
         21   -1    0    0  501  502 -0.00000000000E+00 -0.00000000000E+00 -0.85754745860E+02  0.85754745860E+02  0.00000000000E+00 0.  1.
         25    1    1    2    0    0  0.99566271409E+02 -0.16362349383E+02  0.24001805295E+03  0.28881626447E+03  0.12500000000E+03 0.  0.
         25    1    1    2    0    0 -0.99452965165E+02 -0.54318204941E+02  0.35155646511E+03  0.38994654484E+03  0.12500000000E+03 0.  0.
         25    1    1    2    0    0 -0.11330624373E+00  0.70680554323E+02  0.80114423607E+02  0.16443562408E+03  0.12500000000E+03 0.  0.
</event>
<event>
 5    0  0.5597833E-005  0.4472856E+03  0.7546771E-02  0.1028535E+00
         21   -1    0    0  502  501  0.00000000000E+00  0.00000000000E+00  0.95559801498E+02  0.95559801498E+02  0.00000000000E+00 0.  1.
         21   -1    0    0  501  502 -0.00000000000E+00 -0.00000000000E+00 -0.20936039721E+04  0.20936039721E+04  0.00000000000E+00 0.  1.
         25    1    1    2    0    0 -0.23721098685E+03 -0.57188157402E+02 -0.13095515875E+04  0.13379424121E+04  0.12500000000E+03 0.  0.
         25    1    1    2    0    0  0.10671739124E+03  0.16443985899E+03 -0.15929913721E+03  0.28183378778E+03  0.12500000000E+03 0.  0.
         25    1    1    2    0    0  0.13049359561E+03 -0.10725170159E+03 -0.52919344583E+03  0.56938757371E+03  0.12500000000E+03 0.  0.
</event>
<event>
 5    0  0.5597833E-005  0.4040922E+03  0.7546771E-02  0.1042372E+00
         21   -1    0    0  502  501  0.00000000000E+00  0.00000000000E+00  0.14111841577E+03  0.14111841577E+03  0.00000000000E+00 0. -1.
         21   -1    0    0  501  502 -0.00000000000E+00 -0.00000000000E+00 -0.11571167137E+04  0.11571167137E+04  0.00000000000E+00 0. -1.
         25    1    1    2    0    0  0.13743257967E+03 -0.19170585936E+03 -0.48852250414E+03  0.55670287184E+03  0.12500000000E+03 0.  0.
         25    1    1    2    0    0 -0.68308975534E+02  0.19613862105E+03 -0.55888024583E+02  0.24876685088E+03  0.12500000000E+03 0.  0.
         25    1    1    2    0    0 -0.69123604140E+02 -0.44327616867E+01 -0.47158776918E+03  0.49276540673E+03  0.12500000000E+03 0.  0.
</event>
<event>
 5    0  0.5597833E-005  0.4750202E+03  0.7546771E-02  0.1020513E+00
         21   -1    0    0  502  501  0.00000000000E+00  0.00000000000E+00  0.53909443488E+03  0.53909443488E+03  0.00000000000E+00 0.  1.
         21   -1    0    0  501  502 -0.00000000000E+00 -0.00000000000E+00 -0.41856153949E+03  0.41856153949E+03  0.00000000000E+00 0.  1.
         25    1    1    2    0    0 -0.27155790099E+03  0.20490603467E+02  0.26064771098E+03  0.39714706050E+03  0.12500000000E+03 0.  0.
         25    1    1    2    0    0 -0.25377295730E+02 -0.64599854588E+02  0.83771432495E+02  0.16570999141E+03  0.12500000000E+03 0.  0.
         25    1    1    2    0    0  0.29693519672E+03  0.44109251121E+02 -0.22388624809E+03  0.39479892246E+03  0.12500000000E+03 0.  0.
</event>
<event>
 5    0  0.5597833E-005  0.2606939E+03  0.7546771E-02  0.1106727E+00
         21   -1    0    0  502  501  0.00000000000E+00  0.00000000000E+00  0.51905078148E+03  0.51905078148E+03  0.00000000000E+00 0. -1.
         21   -1    0    0  501  502 -0.00000000000E+00 -0.00000000000E+00 -0.13093382226E+03  0.13093382226E+03  0.00000000000E+00 0. -1.
         25    1    1    2    0    0  0.11356733658E+03 -0.47490037784E+02  0.72014015539E+02  0.18964140387E+03  0.12500000000E+03 0.  0.
         25    1    1    2    0    0 -0.15167659617E+03  0.15529178052E+02  0.15733750279E+03  0.25224399890E+03  0.12500000000E+03 0.  0.
         25    1    1    2    0    0  0.38109259590E+02  0.31960859732E+02  0.15876544089E+03  0.20809920097E+03  0.12500000000E+03 0.  0.
</event>
<event>
 5    0  0.5597833E-005  0.2560143E+03  0.7546771E-02  0.1109562E+00
         21   -1    0    0  502  501  0.00000000000E+00  0.00000000000E+00  0.19310984401E+04  0.19310984401E+04  0.00000000000E+00 0.  1.
         21   -1    0    0  501  502 -0.00000000000E+00 -0.00000000000E+00 -0.33940963793E+02  0.33940963793E+02  0.00000000000E+00 0.  1.
         25    1    1    2    0    0  0.30937832507E+02  0.77655590438E+01  0.82525787787E+03  0.83528020351E+03  0.12500000000E+03 0.  0.
         25    1    1    2    0    0  0.10256599763E+02 -0.12758366639E+03  0.53107391525E+03  0.56039922664E+03  0.12500000000E+03 0.  0.
         25    1    1    2    0    0 -0.41194432270E+02  0.11981810735E+03  0.54082568319E+03  0.56935997374E+03  0.12500000000E+03 0.  0.
</event>
<event>
 5    0  0.5597833E-005  0.2107698E+03  0.7546771E-02  0.1140958E+00
         21   -1    0    0  502  501  0.00000000000E+00  0.00000000000E+00  0.97357636520E+02  0.97357636520E+02  0.00000000000E+00 0.  1.
         21   -1    0    0  501  502 -0.00000000000E+00 -0.00000000000E+00 -0.45629610118E+03  0.45629610118E+03  0.00000000000E+00 0.  1.
         25    1    1    2    0    0 -0.57125474838E+02  0.54334868444E+02 -0.17440905953E+03  0.22860253247E+03  0.12500000000E+03 0.  0.
         25    1    1    2    0    0  0.25293589736E+02 -0.26392676451E+02 -0.12409528910E+03  0.17989157798E+03  0.12500000000E+03 0.  0.
         25    1    1    2    0    0  0.31831885103E+02 -0.27942191993E+02 -0.60434116025E+02  0.14515962725E+03  0.12500000000E+03 0.  0.
</event>
<event>
 5    0  0.5597833E-005  0.4674604E+03  0.7546771E-02  0.1022639E+00
         21   -1    0    0  502  501  0.00000000000E+00  0.00000000000E+00  0.12671580945E+04  0.12671580945E+04  0.00000000000E+00 0. -1.
         21   -1    0    0  501  502 -0.00000000000E+00 -0.00000000000E+00 -0.17244830919E+03  0.17244830919E+03  0.00000000000E+00 0. -1.
         25    1    1    2    0    0  0.10059529372E+03  0.29976644982E+03  0.50156150219E+03  0.60594412122E+03  0.12500000000E+03 0.  0.
         25    1    1    2    0    0 -0.24688100819E+03 -0.10155702888E+03  0.39874364442E+03  0.49586848688E+03  0.12500000000E+03 0.  0.
         25    1    1    2    0    0  0.14628571446E+03 -0.19820942094E+03  0.19440463872E+03  0.33779379562E+03  0.12500000000E+03 0.  0.
</event>
<event>
 5    0  0.5597833E-005  0.2619196E+03  0.7546771E-02  0.1105995E+00
         21   -1    0    0  502  501  0.00000000000E+00  0.00000000000E+00  0.34476484471E+03  0.34476484471E+03  0.00000000000E+00 0.  1.
         21   -1    0    0  501  502 -0.00000000000E+00 -0.00000000000E+00 -0.19898169319E+03  0.19898169319E+03  0.00000000000E+00 0.  1.
         25    1    1    2    0    0  0.10298538348E+03 -0.19834069458E+02  0.10912922417E+03  0.19629968693E+03  0.12500000000E+03 0.  0.
         25    1    1    2    0    0 -0.75384413820E+02 -0.87522471467E+01 -0.84498590988E+02  0.16889175100E+03  0.12500000000E+03 0.  0.
         25    1    1    2    0    0 -0.27600969662E+02  0.28586316605E+02  0.12115251835E+03  0.17855509997E+03  0.12500000000E+03 0.  0.
</event>
<event>
 5    0  0.5597833E-005  0.4201915E+03  0.7546771E-02  0.1037004E+00
         21   -1    0    0  502  501  0.00000000000E+00  0.00000000000E+00  0.21768272795E+03  0.21768272795E+03  0.00000000000E+00 0.  1.
         21   -1    0    0  501  502 -0.00000000000E+00 -0.00000000000E+00 -0.81109262634E+03  0.81109262634E+03  0.00000000000E+00 0.  1.
         25    1    1    2    0    0 -0.23997039158E+03  0.43561128932E+02 -0.11213293683E+03  0.29611172944E+03  0.12500000000E+03 0.  0.
         25    1    1    2    0    0  0.11268887194E+03 -0.92584436863E+02  0.24942558806E+02  0.19369509815E+03  0.12500000000E+03 0.  0.
         25    1    1    2    0    0  0.12728151965E+03  0.49023307932E+02 -0.50621952037E+03  0.53896852670E+03  0.12500000000E+03 0.  0.
</event>
<event>
 5    0  0.5597833E-005  0.2559440E+03  0.7546771E-02  0.1109605E+00
         21   -1    0    0  502  501  0.00000000000E+00  0.00000000000E+00  0.37473263727E+03  0.37473263727E+03  0.00000000000E+00 0.  1.
         21   -1    0    0  501  502 -0.00000000000E+00 -0.00000000000E+00 -0.17481087425E+03  0.17481087425E+03  0.00000000000E+00 0.  1.
         25    1    1    2    0    0  0.16307303005E+01  0.91766462147E+02  0.25967456486E+01  0.15509831058E+03  0.12500000000E+03 0.  0.
         25    1    1    2    0    0  0.64561921942E+02 -0.79535736117E+02  0.13497699736E+02  0.16217694960E+03  0.12500000000E+03 0.  0.
         25    1    1    2    0    0 -0.66192652243E+02 -0.12230726030E+02  0.18382731764E+03  0.23226825134E+03  0.12500000000E+03 0.  0.
</event>
<event>
 5    0  0.5597833E-005  0.2964596E+03  0.7546771E-02  0.1087024E+00
         21   -1    0    0  502  501  0.00000000000E+00  0.00000000000E+00  0.34799578613E+03  0.34799578613E+03  0.00000000000E+00 0.  1.
         21   -1    0    0  501  502 -0.00000000000E+00 -0.00000000000E+00 -0.25255568598E+03  0.25255568598E+03  0.00000000000E+00 0.  1.
         25    1    1    2    0    0 -0.12405109808E+03  0.47919302427E+02 -0.11491929407E+03  0.21567656022E+03  0.12500000000E+03 0.  0.
         25    1    1    2    0    0  0.14000693995E+03 -0.50018253529E+01  0.10512589681E+03  0.21518228475E+03  0.12500000000E+03 0.  0.
         25    1    1    2    0    0 -0.15955841875E+02 -0.42917477074E+02  0.10523349741E+03  0.16969262714E+03  0.12500000000E+03 0.  0.
</event>
<event>
 5    0  0.5597833E-005  0.3291798E+03  0.7546771E-02  0.1071500E+00
         21   -1    0    0  502  501  0.00000000000E+00  0.00000000000E+00  0.18842439766E+03  0.18842439766E+03  0.00000000000E+00 0.  1.
         21   -1    0    0  501  502 -0.00000000000E+00 -0.00000000000E+00 -0.57508120713E+03  0.57508120713E+03  0.00000000000E+00 0.  1.
         25    1    1    2    0    0 -0.11872596182E+03 -0.16030866538E+03 -0.21465319412E+03  0.31858392294E+03  0.12500000000E+03 0.  0.
         25    1    1    2    0    0  0.14910473867E+01 -0.48253590055E+02 -0.94855651782E+02  0.16417437940E+03  0.12500000000E+03 0.  0.
         25    1    1    2    0    0  0.11723491444E+03  0.20856225544E+03 -0.77147963563E+02  0.28074730246E+03  0.12500000000E+03 0.  0.
</event>
<event>
 5    0  0.5597833E-005  0.3173878E+03  0.7546771E-02  0.1076858E+00
         21   -1    0    0  502  501  0.00000000000E+00  0.00000000000E+00  0.16907666901E+03  0.16907666901E+03  0.00000000000E+00 0. -1.
         21   -1    0    0  501  502 -0.00000000000E+00 -0.00000000000E+00 -0.59579495941E+03  0.59579495941E+03  0.00000000000E+00 0. -1.
         25    1    1    2    0    0  0.43919449740E+02  0.13393684971E+03 -0.17341904948E+02  0.18919233453E+03  0.12500000000E+03 0.  0.
         25    1    1    2    0    0  0.11322687555E+03 -0.11251850307E+02 -0.18382196145E+03  0.24972473445E+03  0.12500000000E+03 0.  0.
         25    1    1    2    0    0 -0.15714632529E+03 -0.12268499941E+03 -0.22555442401E+03  0.32595455944E+03  0.12500000000E+03 0.  0.
</event>
<event>
 5    0  0.5597833E-005  0.3076380E+03  0.7546771E-02  0.1081484E+00
         21   -1    0    0  502  501  0.00000000000E+00  0.00000000000E+00  0.71378042905E+03  0.71378042905E+03  0.00000000000E+00 0.  1.
         21   -1    0    0  501  502 -0.00000000000E+00 -0.00000000000E+00 -0.13259143154E+03  0.13259143154E+03  0.00000000000E+00 0.  1.
         25    1    1    2    0    0  0.11560442084E+03  0.13087061950E+03  0.13583225543E+03  0.25410018257E+03  0.12500000000E+03 0.  0.
         25    1    1    2    0    0 -0.17477206497E+03 -0.12957829508E+03  0.30908279623E+03  0.39811177347E+03  0.12500000000E+03 0.  0.
         25    1    1    2    0    0  0.59167644128E+02 -0.12923244244E+01  0.13627394585E+03  0.19415990454E+03  0.12500000000E+03 0.  0.
</event>
<event>
 5    0  0.5597833E-005  0.2874936E+03  0.7546771E-02  0.1091665E+00
         21   -1    0    0  502  501  0.00000000000E+00  0.00000000000E+00  0.11405258902E+04  0.11405258902E+04  0.00000000000E+00 0.  1.
         21   -1    0    0  501  502 -0.00000000000E+00 -0.00000000000E+00 -0.72468809623E+02  0.72468809623E+02  0.00000000000E+00 0.  1.
         25    1    1    2    0    0 -0.18041526319E+02 -0.15470447283E+03  0.31902633893E+03  0.37637982878E+03  0.12500000000E+03 0.  0.
         25    1    1    2    0    0  0.82108360852E+02  0.16303237451E+02  0.48021541516E+03  0.50322899701E+03  0.12500000000E+03 0.  0.
         25    1    1    2    0    0 -0.64066834533E+02  0.13840123538E+03  0.26881532646E+03  0.33338587400E+03  0.12500000000E+03 0.  0.
</event>
<event>
 5    0  0.5597833E-005  0.2866456E+03  0.7546771E-02  0.1092114E+00
         21   -1    0    0  502  501  0.00000000000E+00  0.00000000000E+00  0.12584352887E+03  0.12584352887E+03  0.00000000000E+00 0. -1.
         21   -1    0    0  501  502 -0.00000000000E+00 -0.00000000000E+00 -0.65291958052E+03  0.65291958052E+03  0.00000000000E+00 0. -1.
         25    1    1    2    0    0  0.12008217538E+03 -0.76298630010E+01 -0.26890960257E+02  0.17557353843E+03  0.12500000000E+03 0.  0.
         25    1    1    2    0    0 -0.15420764087E+03  0.32785553578E+02 -0.25586905744E+03  0.32549787031E+03  0.12500000000E+03 0.  0.
         25    1    1    2    0    0  0.34125465493E+02 -0.25155690577E+02 -0.24431603395E+03  0.27769170065E+03  0.12500000000E+03 0.  0.
</event>
<event>
 5    0  0.5597833E-005  0.3413008E+03  0.7546771E-02  0.1066243E+00
         21   -1    0    0  502  501  0.00000000000E+00  0.00000000000E+00  0.66652500820E+03  0.66652500820E+03  0.00000000000E+00 0. -1.
         21   -1    0    0  501  502 -0.00000000000E+00 -0.00000000000E+00 -0.17476644773E+03  0.17476644773E+03  0.00000000000E+00 0. -1.
         25    1    1    2    0    0 -0.15091617247E+03 -0.15518384094E+03  0.67500258736E+02  0.25891890725E+03  0.12500000000E+03 0.  0.
         25    1    1    2    0    0  0.54427065283E+02 -0.26854915883E+02  0.74597166526E+02  0.15771248903E+03  0.12500000000E+03 0.  0.
         25    1    1    2    0    0  0.96489107187E+02  0.18203875682E+03  0.34966113521E+03  0.42466005966E+03  0.12500000000E+03 0.  0.
</event>
<event>
 5    0  0.5597833E-005  0.3603588E+03  0.7546771E-02  0.1058442E+00
         21   -1    0    0  502  501  0.00000000000E+00  0.00000000000E+00  0.41946621131E+03  0.41946621131E+03  0.00000000000E+00 0. -1.
         21   -1    0    0  501  502 -0.00000000000E+00 -0.00000000000E+00 -0.30958022219E+03  0.30958022219E+03  0.00000000000E+00 0. -1.
         25    1    1    2    0    0 -0.14487618404E+03 -0.85168283487E+02  0.37572537002E+02  0.21278966317E+03  0.12500000000E+03 0.  0.
         25    1    1    2    0    0  0.12967496556E+03  0.78441607815E+02 -0.15904632690E+03  0.25276355875E+03  0.12500000000E+03 0.  0.
         25    1    1    2    0    0  0.15201218474E+02  0.67266756720E+01  0.23135977901E+03  0.26349321159E+03  0.12500000000E+03 0.  0.
</event>
<event>
 5    0  0.5597833E-005  0.2744451E+03  0.7546771E-02  0.1098762E+00
         21   -1    0    0  502  501  0.00000000000E+00  0.00000000000E+00  0.56159753686E+03  0.56159753686E+03  0.00000000000E+00 0.  1.
         21   -1    0    0  501  502 -0.00000000000E+00 -0.00000000000E+00 -0.13411762409E+03  0.13411762409E+03  0.00000000000E+00 0.  1.
         25    1    1    2    0    0  0.20407921627E+02  0.71966442257E+02  0.11215373538E+03  0.18384534924E+03  0.12500000000E+03 0.  0.
         25    1    1    2    0    0 -0.11181483728E+03 -0.12617435448E+03  0.26938372854E+03  0.34148955880E+03  0.12500000000E+03 0.  0.
         25    1    1    2    0    0  0.91406915657E+02  0.54207912222E+02  0.45942448843E+02  0.17038025291E+03  0.12500000000E+03 0.  0.
</event>
<event>
 5    0  0.5597833E-005  0.4024182E+03  0.7546771E-02  0.1042946E+00
         21   -1    0    0  502  501  0.00000000000E+00  0.00000000000E+00  0.20437974200E+04  0.20437974200E+04  0.00000000000E+00 0.  1.
         21   -1    0    0  501  502 -0.00000000000E+00 -0.00000000000E+00 -0.79235073907E+02  0.79235073907E+02  0.00000000000E+00 0.  1.
         25    1    1    2    0    0  0.84097839036E+02  0.98557331964E+02  0.10916507793E+04  0.11063961398E+04  0.12500000000E+03 0.  0.
         25    1    1    2    0    0 -0.14703036849E+03 -0.41782471317E+02  0.86013567556E+02  0.21537650283E+03  0.12500000000E+03 0.  0.
         25    1    1    2    0    0  0.62932529455E+02 -0.56774860647E+02  0.78689799921E+03  0.80125985125E+03  0.12500000000E+03 0.  0.
</event>
<event>
 5    0  0.5597833E-005  0.3063879E+03  0.7546771E-02  0.1082090E+00
         21   -1    0    0  502  501  0.00000000000E+00  0.00000000000E+00  0.10581050799E+03  0.10581050799E+03  0.00000000000E+00 0. -1.
         21   -1    0    0  501  502 -0.00000000000E+00 -0.00000000000E+00 -0.88718564525E+03  0.88718564525E+03  0.00000000000E+00 0. -1.
         25    1    1    2    0    0  0.43602527406E+02  0.18952691442E+03 -0.15301984911E+03  0.27723943786E+03  0.12500000000E+03 0.  0.
         25    1    1    2    0    0 -0.79250280800E+02 -0.61947635922E+02 -0.30557517494E+03  0.34513664561E+03  0.12500000000E+03 0.  0.
         25    1    1    2    0    0  0.35647753394E+02 -0.12757927850E+03 -0.32278011322E+03  0.37062006977E+03  0.12500000000E+03 0.  0.
</event>
<event>
 5    0  0.5597833E-005  0.2115842E+03  0.7546771E-02  0.1140318E+00
         21   -1    0    0  502  501  0.00000000000E+00  0.00000000000E+00  0.70318174025E+02  0.70318174025E+02  0.00000000000E+00 0.  1.
         21   -1    0    0  501  502 -0.00000000000E+00 -0.00000000000E+00 -0.63664738499E+03  0.63664738499E+03  0.00000000000E+00 0.  1.
         25    1    1    2    0    0  0.15472980049E+02 -0.62454230967E+02 -0.24687942814E+03  0.28410279146E+03  0.12500000000E+03 0.  0.
         25    1    1    2    0    0  0.34100181374E+02  0.33909548467E+02 -0.11519334680E+03  0.17665556032E+03  0.12500000000E+03 0.  0.
         25    1    1    2    0    0 -0.49573161423E+02  0.28544682500E+02 -0.20425643603E+03  0.24620720723E+03  0.12500000000E+03 0.  0.
</event>
<event>
 5    0  0.5597833E-005  0.3312648E+03  0.7546771E-02  0.1070579E+00
         21   -1    0    0  502  501  0.00000000000E+00  0.00000000000E+00  0.86314567662E+03  0.86314567662E+03  0.00000000000E+00 0.  1.
         21   -1    0    0  501  502 -0.00000000000E+00 -0.00000000000E+00 -0.12713536866E+03  0.12713536866E+03  0.00000000000E+00 0.  1.
         25    1    1    2    0    0  0.11661625170E+03  0.17461441153E+02  0.34054631080E+02  0.17518267604E+03  0.12500000000E+03 0.  0.
         25    1    1    2    0    0 -0.14914973448E+02 -0.60449367713E+02  0.60767160864E+03  0.62351132021E+03  0.12500000000E+03 0.  0.
         25    1    1    2    0    0 -0.10170127825E+03  0.42987926559E+02  0.94284068241E+02  0.19158704902E+03  0.12500000000E+03 0.  0.
</event>
<event>
 5    0  0.5597833E-005  0.5171690E+03  0.7546771E-02  0.1009392E+00
         21   -1    0    0  502  501  0.00000000000E+00  0.00000000000E+00  0.12519817685E+04  0.12519817685E+04  0.00000000000E+00 0. -1.
         21   -1    0    0  501  502 -0.00000000000E+00 -0.00000000000E+00 -0.21363233282E+03  0.21363233282E+03  0.00000000000E+00 0. -1.
         25    1    1    2    0    0  0.33278374480E+03 -0.14749710913E+03  0.65301936395E+02  0.39037131158E+03  0.12500000000E+03 0.  0.
         25    1    1    2    0    0 -0.14584048794E+03  0.84368272705E+02  0.59452041436E+03  0.63044982073E+03  0.12500000000E+03 0.  0.
         25    1    1    2    0    0 -0.18694325686E+03  0.63128836430E+02  0.37852708494E+03  0.44479296904E+03  0.12500000000E+03 0.  0.
</event>
<event>
 5    0  0.5597833E-005  0.4316327E+03  0.7546771E-02  0.1033345E+00
         21   -1    0    0  502  501  0.00000000000E+00  0.00000000000E+00  0.38887055976E+03  0.38887055976E+03  0.00000000000E+00 0.  1.
         21   -1    0    0  501  502 -0.00000000000E+00 -0.00000000000E+00 -0.47909721261E+03  0.47909721261E+03  0.00000000000E+00 0.  1.
         25    1    1    2    0    0 -0.45642858727E+02  0.21961640210E+03  0.18278580788E+03  0.31519880423E+03  0.12500000000E+03 0.  0.
         25    1    1    2    0    0  0.74372390969E+02 -0.20427609642E+03 -0.32757803226E+03  0.41254374717E+03  0.12500000000E+03 0.  0.
         25    1    1    2    0    0 -0.28729532242E+02 -0.15340305678E+02  0.54565571526E+02  0.14022522097E+03  0.12500000000E+03 0.  0.
</event>
<event>
 5    0  0.5597833E-005  0.2507090E+03  0.7546771E-02  0.1112858E+00
         21   -1    0    0  502  501  0.00000000000E+00  0.00000000000E+00  0.79918806890E+03  0.79918806890E+03  0.00000000000E+00 0. -1.
         21   -1    0    0  501  502 -0.00000000000E+00 -0.00000000000E+00 -0.78648594029E+02  0.78648594029E+02  0.00000000000E+00 0.  1.
         25    1    1    2    0    0  0.57416788726E+02  0.47902178066E+02  0.23010769920E+03  0.27233409541E+03  0.12500000000E+03 0.  0.
         25    1    1    2    0    0  0.83423887066E+02 -0.18502842504E+02  0.13815479552E+03  0.20497230944E+03  0.12500000000E+03 0.  0.
         25    1    1    2    0    0 -0.14084067579E+03 -0.29399335561E+02  0.35227698016E+03  0.40053025808E+03  0.12500000000E+03 0.  0.
</event>
<event>
 5    0  0.5597833E-005  0.2991685E+03  0.7546771E-02  0.1085657E+00
         21   -1    0    0  502  501  0.00000000000E+00  0.00000000000E+00  0.18171549545E+03  0.18171549545E+03  0.00000000000E+00 0. -1.
         21   -1    0    0  501  502 -0.00000000000E+00 -0.00000000000E+00 -0.49253804548E+03  0.49253804548E+03  0.00000000000E+00 0. -1.
         25    1    1    2    0    0 -0.40380997591E+02 -0.95303148314E+02 -0.82503422416E+02  0.18205803952E+03  0.12500000000E+03 0.  0.
         25    1    1    2    0    0  0.13980716872E+01 -0.89948526771E+02 -0.21563978805E+03  0.26498718887E+03  0.12500000000E+03 0.  0.
         25    1    1    2    0    0  0.38982925903E+02  0.18525167508E+03 -0.12679339561E+02  0.22720831254E+03  0.12500000000E+03 0.  0.
</event>
<event>
 5    0  0.5597833E-005  0.2449260E+03  0.7546771E-02  0.1116554E+00
         21   -1    0    0  502  501  0.00000000000E+00  0.00000000000E+00  0.19931875948E+03  0.19931875948E+03  0.00000000000E+00 0.  1.
         21   -1    0    0  501  502 -0.00000000000E+00 -0.00000000000E+00 -0.30096879395E+03  0.30096879395E+03  0.00000000000E+00 0.  1.
         25    1    1    2    0    0 -0.33662228466E+02 -0.52861935417E+02  0.31363562736E+02  0.14330458091E+03  0.12500000000E+03 0.  0.
         25    1    1    2    0    0  0.44849377663E+02  0.14793420968E+02 -0.17417643871E+03  0.21952845779E+03  0.12500000000E+03 0.  0.
         25    1    1    2    0    0 -0.11187149198E+02  0.38068514448E+02  0.41162841507E+02  0.13745451473E+03  0.12500000000E+03 0.  0.
</event>
<event>
 5    0  0.5597833E-005  0.2777655E+03  0.7546771E-02  0.1096916E+00
         21   -1    0    0  502  501  0.00000000000E+00  0.00000000000E+00  0.90205603148E+03  0.90205603148E+03  0.00000000000E+00 0.  1.
         21   -1    0    0  501  502 -0.00000000000E+00 -0.00000000000E+00 -0.85530888853E+02  0.85530888853E+02  0.00000000000E+00 0.  1.
         25    1    1    2    0    0  0.46126657826E+02  0.74550258185E+02  0.24926630665E+03  0.29230822977E+03  0.12500000000E+03 0.  0.
         25    1    1    2    0    0  0.24955356234E+02 -0.13165850761E+03  0.48834032398E+03  0.52159179868E+03  0.12500000000E+03 0.  0.
         25    1    1    2    0    0 -0.71082014060E+02  0.57108249428E+02  0.78918511997E+02  0.17368689188E+03  0.12500000000E+03 0.  0.
</event>
<event>
 5    0  0.5597833E-005  0.3201243E+03  0.7546771E-02  0.1075592E+00
         21   -1    0    0  502  501  0.00000000000E+00  0.00000000000E+00  0.35286001637E+03  0.35286001637E+03  0.00000000000E+00 0.  1.
         21   -1    0    0  501  502 -0.00000000000E+00 -0.00000000000E+00 -0.29042554153E+03  0.29042554153E+03  0.00000000000E+00 0.  1.
         25    1    1    2    0    0 -0.21284585724E+02 -0.18836444135E+03  0.14608192040E+03  0.26999837744E+03  0.12500000000E+03 0.  0.
         25    1    1    2    0    0  0.10186760881E+03  0.81638788923E+02 -0.41535953616E+02  0.18545117154E+03  0.12500000000E+03 0.  0.
         25    1    1    2    0    0 -0.80583023090E+02  0.10672565242E+03 -0.42111491946E+02  0.18783600893E+03  0.12500000000E+03 0.  0.
</event>
<event>
 5    0  0.5597833E-005  0.3853695E+03  0.7546771E-02  0.1048967E+00
         21   -1    0    0  502  501  0.00000000000E+00  0.00000000000E+00  0.10566286020E+03  0.10566286020E+03  0.00000000000E+00 0. -1.
         21   -1    0    0  501  502 -0.00000000000E+00 -0.00000000000E+00 -0.14055045427E+04  0.14055045427E+04  0.00000000000E+00 0. -1.
         25    1    1    2    0    0 -0.37562812160E+02 -0.19448238518E+03 -0.70160823641E+03  0.73967119750E+03  0.12500000000E+03 0.  0.
         25    1    1    2    0    0 -0.46709267071E+02  0.20115005924E+03 -0.56859427685E+03  0.61771154565E+03  0.12500000000E+03 0.  0.
         25    1    1    2    0    0  0.84272079231E+02 -0.66676740581E+01 -0.29639169208E+02  0.15378465972E+03  0.12500000000E+03 0.  0.
</event>
<event>
 5    0  0.5597833E-005  0.3561048E+03  0.7546771E-02  0.1060137E+00
         21   -1    0    0  502  501  0.00000000000E+00  0.00000000000E+00  0.32495261505E+03  0.32495261505E+03  0.00000000000E+00 0.  1.
         21   -1    0    0  501  502 -0.00000000000E+00 -0.00000000000E+00 -0.39024354243E+03  0.39024354243E+03  0.00000000000E+00 0.  1.
         25    1    1    2    0    0  0.22232730825E+03  0.48090769658E+02 -0.55053945087E+02  0.26532638577E+03  0.12500000000E+03 0.  0.
         25    1    1    2    0    0 -0.14192017102E+03 -0.15415512267E+03  0.64821834691E+02  0.25245198957E+03  0.12500000000E+03 0.  0.
         25    1    1    2    0    0 -0.80407137223E+02  0.10606435301E+03 -0.75058816981E+02  0.19741778213E+03  0.12500000000E+03 0.  0.
</event>
<event>
 5    0  0.5597833E-005  0.4286775E+03  0.7546771E-02  0.1034279E+00
         21   -1    0    0  502  501  0.00000000000E+00  0.00000000000E+00  0.18142850878E+03  0.18142850878E+03  0.00000000000E+00 0. -1.
         21   -1    0    0  501  502 -0.00000000000E+00 -0.00000000000E+00 -0.10128752133E+04  0.10128752133E+04  0.00000000000E+00 0. -1.
         25    1    1    2    0    0 -0.79863595334E+02 -0.18802864058E+03 -0.15233365555E+03  0.28383711201E+03  0.12500000000E+03 0.  0.
         25    1    1    2    0    0 -0.16222085529E+03  0.12742919436E+03 -0.87968831132E+02  0.25674368681E+03  0.12500000000E+03 0.  0.
         25    1    1    2    0    0  0.24208445062E+03  0.60599446225E+02 -0.59114421782E+03  0.65372292324E+03  0.12500000000E+03 0.  0.
</event>
<event>
 5    0  0.5597833E-005  0.2687847E+03  0.7546771E-02  0.1101977E+00
         21   -1    0    0  502  501  0.00000000000E+00  0.00000000000E+00  0.17624128222E+03  0.17624128222E+03  0.00000000000E+00 0. -1.
         21   -1    0    0  501  502 -0.00000000000E+00 -0.00000000000E+00 -0.40992224335E+03  0.40992224335E+03  0.00000000000E+00 0. -1.
         25    1    1    2    0    0 -0.52807482582E+02 -0.56901088006E+02 -0.26246254439E+02  0.14946648422E+03  0.12500000000E+03 0.  0.
         25    1    1    2    0    0  0.10255499482E+03  0.15002737915E+03 -0.11431717111E+03  0.24843340570E+03  0.12500000000E+03 0.  0.
         25    1    1    2    0    0 -0.49747512236E+02 -0.93126291146E+02 -0.93117535584E+02  0.18826363565E+03  0.12500000000E+03 0.  0.
</event>
<event>
 5    0  0.5597833E-005  0.3590278E+03  0.7546771E-02  0.1058969E+00
         21   -1    0    0  502  501  0.00000000000E+00  0.00000000000E+00  0.68736442522E+03  0.68736442522E+03  0.00000000000E+00 0. -1.
         21   -1    0    0  501  502 -0.00000000000E+00 -0.00000000000E+00 -0.18752927509E+03  0.18752927509E+03  0.00000000000E+00 0. -1.
         25    1    1    2    0    0 -0.17514777109E+03  0.66409909780E+02  0.46959117590E+03  0.52079543999E+03  0.12500000000E+03 0.  0.
         25    1    1    2    0    0  0.11903473344E+03  0.42183195577E+02  0.22330481587E+02  0.17908752095E+03  0.12500000000E+03 0.  0.
         25    1    1    2    0    0  0.56113037659E+02 -0.10859310536E+03  0.79134926526E+01  0.17501073936E+03  0.12500000000E+03 0.  0.
</event>
<event>
 5    0  0.5597833E-005  0.3122291E+03  0.7546771E-02  0.1079282E+00
         21   -1    0    0  502  501  0.00000000000E+00  0.00000000000E+00  0.11693289881E+03  0.11693289881E+03  0.00000000000E+00 0.  1.
         21   -1    0    0  501  502 -0.00000000000E+00 -0.00000000000E+00 -0.83370054973E+03  0.83370054973E+03  0.00000000000E+00 0. -1.
         25    1    1    2    0    0  0.10065802496E+03 -0.11353568508E+03 -0.20316658516E+03  0.28270842064E+03  0.12500000000E+03 0.  0.
         25    1    1    2    0    0  0.85462755840E+02 -0.34955759812E+02 -0.15289014226E+03  0.21800500770E+03  0.12500000000E+03 0.  0.
         25    1    1    2    0    0 -0.18612078080E+03  0.14849144489E+03 -0.36071092350E+03  0.44992002020E+03  0.12500000000E+03 0.  0.
</event>
<event>
 5    0  0.5597833E-005  0.2311086E+03  0.7546771E-02  0.1125862E+00
         21   -1    0    0  502  501  0.00000000000E+00  0.00000000000E+00  0.15368998944E+03  0.15368998944E+03  0.00000000000E+00 0. -1.
         21   -1    0    0  501  502 -0.00000000000E+00 -0.00000000000E+00 -0.34752538498E+03  0.34752538498E+03  0.00000000000E+00 0. -1.
         25    1    1    2    0    0  0.36102783262E+02  0.71072707357E+02 -0.54606771562E+02  0.15799253207E+03  0.12500000000E+03 0.  0.
         25    1    1    2    0    0 -0.60657518100E+02 -0.48027480412E+02 -0.15402974492E+03  0.21292283977E+03  0.12500000000E+03 0.  0.
         25    1    1    2    0    0  0.24554734838E+02 -0.23045226945E+02  0.14801120941E+02  0.13030000257E+03  0.12500000000E+03 0.  0.
</event>
<event>
 5    0  0.5597833E-005  0.2325891E+03  0.7546771E-02  0.1124831E+00
         21   -1    0    0  502  501  0.00000000000E+00  0.00000000000E+00  0.10886903413E+04  0.10886903413E+04  0.00000000000E+00 0. -1.
         21   -1    0    0  501  502 -0.00000000000E+00 -0.00000000000E+00 -0.49690611919E+02  0.49690611919E+02  0.00000000000E+00 0. -1.
         25    1    1    2    0    0 -0.38035242302E+02  0.95639457488E+01  0.17277450480E+03  0.21682753105E+03  0.12500000000E+03 0.  0.
         25    1    1    2    0    0  0.92457703498E+02 -0.63210415576E+02  0.44770738938E+03  0.47813271179E+03  0.12500000000E+03 0.  0.
         25    1    1    2    0    0 -0.54422461197E+02  0.53646469827E+02  0.41851783516E+03  0.44342071033E+03  0.12500000000E+03 0.  0.
</event>
<event>
 5    0  0.5597833E-005  0.2826195E+03  0.7546771E-02  0.1094267E+00
         21   -1    0    0  502  501  0.00000000000E+00  0.00000000000E+00  0.76214584244E+03  0.76214584244E+03  0.00000000000E+00 0. -1.
         21   -1    0    0  501  502 -0.00000000000E+00 -0.00000000000E+00 -0.10480114856E+03  0.10480114856E+03  0.00000000000E+00 0. -1.
         25    1    1    2    0    0 -0.64944535102E+02 -0.36377381663E+02  0.61619648545E+01  0.14561619535E+03  0.12500000000E+03 0.  0.
         25    1    1    2    0    0 -0.32248877670E+02 -0.38003973194E+02  0.30863904922E+03  0.33670069022E+03  0.12500000000E+03 0.  0.
         25    1    1    2    0    0  0.97193412772E+02  0.74381354857E+02  0.34254367980E+03  0.38463010544E+03  0.12500000000E+03 0.  0.
</event>
<event>
 5    0  0.5597833E-005  0.5302657E+03  0.7546771E-02  0.1006168E+00
         21   -1    0    0  502  501  0.00000000000E+00  0.00000000000E+00  0.25375000776E+03  0.25375000776E+03  0.00000000000E+00 0.  1.
         21   -1    0    0  501  502 -0.00000000000E+00 -0.00000000000E+00 -0.11081053315E+04  0.11081053315E+04  0.00000000000E+00 0.  1.
         25    1    1    2    0    0 -0.19052448639E+02  0.12957334119E+03 -0.36696761356E+02  0.18472655153E+03  0.12500000000E+03 0.  0.
         25    1    1    2    0    0 -0.17903099762E+03  0.83972534571E+02 -0.82758320491E+03  0.86001304974E+03  0.12500000000E+03 0.  0.
         25    1    1    2    0    0  0.19808344626E+03 -0.21354587576E+03  0.99246425475E+01  0.31711573797E+03  0.12500000000E+03 0.  0.
</event>
<event>
 5    0  0.5597833E-005  0.2792257E+03  0.7546771E-02  0.1096113E+00
         21   -1    0    0  502  501  0.00000000000E+00  0.00000000000E+00  0.92835018796E+03  0.92835018796E+03  0.00000000000E+00 0.  1.
         21   -1    0    0  501  502 -0.00000000000E+00 -0.00000000000E+00 -0.83984444141E+02  0.83984444141E+02  0.00000000000E+00 0.  1.
         25    1    1    2    0    0  0.99999640878E+02 -0.50682006734E+02  0.18304904496E+03  0.24839594772E+03  0.12500000000E+03 0.  0.
         25    1    1    2    0    0 -0.28633846081E+02 -0.10135039790E+03  0.20740764754E+03  0.26407334692E+03  0.12500000000E+03 0.  0.
         25    1    1    2    0    0 -0.71365794797E+02  0.15203240464E+03  0.45390905132E+03  0.49986533746E+03  0.12500000000E+03 0.  0.
</event>
<event>
 5    0  0.5597833E-005  0.2918755E+03  0.7546771E-02  0.1089374E+00
         21   -1    0    0  502  501  0.00000000000E+00  0.00000000000E+00  0.10846819327E+03  0.10846819327E+03  0.00000000000E+00 0. -1.
         21   -1    0    0  501  502 -0.00000000000E+00 -0.00000000000E+00 -0.78540380702E+03  0.78540380702E+03  0.00000000000E+00 0. -1.
         25    1    1    2    0    0  0.11721317566E+03 -0.10880965782E+03 -0.17793035011E+03  0.26993087943E+03  0.12500000000E+03 0.  0.
         25    1    1    2    0    0 -0.13888212788E+03 -0.24664087369E+02 -0.28410760836E+03  0.34093796471E+03  0.12500000000E+03 0.  0.
         25    1    1    2    0    0  0.21668952220E+02  0.13347374519E+03 -0.21489765528E+03  0.28300315615E+03  0.12500000000E+03 0.  0.
</event>
<event>
 5    0  0.5597833E-005  0.3618969E+03  0.7546771E-02  0.1057835E+00
         21   -1    0    0  502  501  0.00000000000E+00  0.00000000000E+00  0.31119990818E+03  0.31119990818E+03  0.00000000000E+00 0.  1.
         21   -1    0    0  501  502 -0.00000000000E+00 -0.00000000000E+00 -0.42085275491E+03  0.42085275491E+03  0.00000000000E+00 0.  1.
         25    1    1    2    0    0 -0.90615704592E+01 -0.99428351595E+02 -0.56289231212E+02  0.16959241348E+03  0.12500000000E+03 0.  0.
         25    1    1    2    0    0 -0.22341248405E+03 -0.13338485525E+02 -0.93016845824E+02  0.27270531134E+03  0.12500000000E+03 0.  0.
         25    1    1    2    0    0  0.23247405451E+03  0.11276683712E+03  0.39653230308E+02  0.28975493827E+03  0.12500000000E+03 0.  0.
</event>
<event>
 5    0  0.6808437E-005  0.2814421E+03  0.7546771E-02  0.1094904E+00
         21   -1    0    0  502  501  0.00000000000E+00  0.00000000000E+00  0.44965929405E+03  0.44965929405E+03  0.00000000000E+00 0.  1.
         21   -1    0    0  501  502 -0.00000000000E+00 -0.00000000000E+00 -0.17615484025E+03  0.17615484025E+03  0.00000000000E+00 0.  1.
         25    1    1    2    0    0 -0.46079671240E+02 -0.16697782999E+03  0.21848932757E+03  0.30556098912E+03  0.12500000000E+03 0.  0.
         25    1    1    2    0    0  0.64045869198E+02  0.75934819176E+02  0.32725679593E+02  0.16298447849E+03  0.12500000000E+03 0.  0.
         25    1    1    2    0    0 -0.17966197958E+02  0.91043010816E+02  0.22289446632E+02  0.15726866668E+03  0.12500000000E+03 0.  0.
</event>
<event>
 5    0  0.5597833E-005  0.2926689E+03  0.7546771E-02  0.1088964E+00
         21   -1    0    0  502  501  0.00000000000E+00  0.00000000000E+00  0.13408948587E+03  0.13408948587E+03  0.00000000000E+00 0. -1.
         21   -1    0    0  501  502 -0.00000000000E+00 -0.00000000000E+00 -0.63879045291E+03  0.63879045291E+03  0.00000000000E+00 0. -1.
         25    1    1    2    0    0 -0.61684611734E+01  0.43540965784E+02 -0.11619933292E+03  0.17624173906E+03  0.12500000000E+03 0.  0.
         25    1    1    2    0    0 -0.68869997179E+02  0.76503339800E+02  0.30105536646E+01  0.16195647855E+03  0.12500000000E+03 0.  0.
         25    1    1    2    0    0  0.75038458352E+02 -0.12004430558E+03 -0.39151218779E+03  0.43468172117E+03  0.12500000000E+03 0.  0.
</event>
<event>
 5    0  0.5597833E-005  0.5190554E+03  0.7546771E-02  0.1008921E+00
         21   -1    0    0  502  501  0.00000000000E+00  0.00000000000E+00  0.11255857976E+04  0.11255857976E+04  0.00000000000E+00 0. -1.
         21   -1    0    0  501  502 -0.00000000000E+00 -0.00000000000E+00 -0.23935844395E+03  0.23935844395E+03  0.00000000000E+00 0. -1.
         25    1    1    2    0    0 -0.19822106710E+03  0.15207014029E+03  0.92552557884E+03  0.96676756053E+03  0.12500000000E+03 0.  0.
         25    1    1    2    0    0  0.12688732400E+03 -0.17441936928E+03 -0.92682097771E+01  0.24946624839E+03  0.12500000000E+03 0.  0.
         25    1    1    2    0    0  0.71333743099E+02  0.22349228984E+02 -0.30030015437E+02  0.14871043261E+03  0.12500000000E+03 0.  0.
</event>
<event>
 5    0  0.5597833E-005  0.3941778E+03  0.7546771E-02  0.1045815E+00
         21   -1    0    0  502  501  0.00000000000E+00  0.00000000000E+00  0.11376763835E+04  0.11376763835E+04  0.00000000000E+00 0.  1.
         21   -1    0    0  501  502 -0.00000000000E+00 -0.00000000000E+00 -0.13657324233E+03  0.13657324233E+03  0.00000000000E+00 0.  1.
         25    1    1    2    0    0  0.10254939468E+03  0.26932446710E+03  0.72017980681E+03  0.78570732532E+03  0.12500000000E+03 0.  0.
         25    1    1    2    0    0 -0.29443526827E+01 -0.67919322029E+02  0.10896376768E+03  0.17921999382E+03  0.12500000000E+03 0.  0.
         25    1    1    2    0    0 -0.99605042001E+02 -0.20140514507E+03  0.17195956671E+03  0.30932230672E+03  0.12500000000E+03 0.  0.
</event>
<event>
 5    0  0.5597833E-005  0.2290434E+03  0.7546771E-02  0.1127315E+00
         21   -1    0    0  502  501  0.00000000000E+00  0.00000000000E+00  0.22082999414E+04  0.22082999414E+04  0.00000000000E+00 0.  1.
         21   -1    0    0  501  502 -0.00000000000E+00 -0.00000000000E+00 -0.23756232624E+02  0.23756232624E+02  0.00000000000E+00 0.  1.
         25    1    1    2    0    0  0.59821328385E+02  0.15001384866E+02  0.44255706017E+03  0.46398856062E+03  0.12500000000E+03 0.  0.
         25    1    1    2    0    0 -0.38919582751E+02  0.64460733147E+02  0.10504279372E+04  0.10605158044E+04  0.12500000000E+03 0.  0.
         25    1    1    2    0    0 -0.20901745634E+02 -0.79462118013E+02  0.69155871140E+03  0.70755180905E+03  0.12500000000E+03 0.  0.
</event>
<event>
 5    0  0.5597833E-005  0.3224289E+03  0.7546771E-02  0.1074537E+00
         21   -1    0    0  502  501  0.00000000000E+00  0.00000000000E+00  0.89416202565E+02  0.89416202565E+02  0.00000000000E+00 0.  1.
         21   -1    0    0  501  502 -0.00000000000E+00 -0.00000000000E+00 -0.11626568891E+04  0.11626568891E+04  0.00000000000E+00 0.  1.
         25    1    1    2    0    0 -0.15799454316E+03  0.21784168592E+02 -0.74534332048E+03  0.77239788390E+03  0.12500000000E+03 0.  0.
         25    1    1    2    0    0  0.55080024895E+01 -0.51148668674E+02 -0.20479164422E+03  0.24537958746E+03  0.12500000000E+03 0.  0.
         25    1    1    2    0    0  0.15248654067E+03  0.29364500082E+02 -0.12310572185E+03  0.23429562033E+03  0.12500000000E+03 0.  0.
</event>
<event>
 5    0  0.5597833E-005  0.2201913E+03  0.7546771E-02  0.1133741E+00
         21   -1    0    0  502  501  0.00000000000E+00  0.00000000000E+00  0.70472760291E+02  0.70472760291E+02  0.00000000000E+00 0.  1.
         21   -1    0    0  501  502 -0.00000000000E+00 -0.00000000000E+00 -0.68798500060E+03  0.68798500060E+03  0.00000000000E+00 0.  1.
         25    1    1    2    0    0 -0.72572216334E+01 -0.96896118266E+02 -0.20797362745E+03  0.26138009625E+03  0.12500000000E+03 0.  0.
         25    1    1    2    0    0 -0.14446467199E+02  0.59588163451E+02 -0.14326117187E+03  0.19977040072E+03  0.12500000000E+03 0.  0.
         25    1    1    2    0    0  0.21703688832E+02  0.37307954815E+02 -0.26627744099E+03  0.29730726392E+03  0.12500000000E+03 0.  0.
</event>
<event>
 5    0  0.5597833E-005  0.2282660E+03  0.7546771E-02  0.1127866E+00
         21   -1    0    0  502  501  0.00000000000E+00  0.00000000000E+00  0.16793888625E+02  0.16793888625E+02  0.00000000000E+00 0.  1.
         21   -1    0    0  501  502 -0.00000000000E+00 -0.00000000000E+00 -0.31026378310E+04  0.31026378310E+04  0.00000000000E+00 0.  1.
         25    1    1    2    0    0 -0.18476291306E+02  0.26466263224E+01 -0.12984953973E+04  0.13046316242E+04  0.12500000000E+03 0.  0.
         25    1    1    2    0    0 -0.63829616186E+02  0.58602922655E+02 -0.80811645399E+03  0.82230512929E+03  0.12500000000E+03 0.  0.
         25    1    1    2    0    0  0.82305907492E+02 -0.61249548977E+02 -0.97923209113E+03  0.99249496621E+03  0.12500000000E+03 0.  0.
</event>
<event>
 5    0  0.5597833E-005  0.3922466E+03  0.7546771E-02  0.1046498E+00
         21   -1    0    0  502  501  0.00000000000E+00  0.00000000000E+00  0.13954940945E+04  0.13954940945E+04  0.00000000000E+00 0.  1.
         21   -1    0    0  501  502 -0.00000000000E+00 -0.00000000000E+00 -0.11025301358E+03  0.11025301358E+03  0.00000000000E+00 0.  1.
         25    1    1    2    0    0  0.87434234903E+02 -0.18682395465E+03  0.62835483944E+03  0.67305478210E+03  0.12500000000E+03 0.  0.
         25    1    1    2    0    0 -0.12660017153E+02 -0.44447392242E+01  0.55925066046E+03  0.57320705942E+03  0.12500000000E+03 0.  0.
         25    1    1    2    0    0 -0.74774217751E+02  0.19126869387E+03  0.97635581060E+02  0.25948526660E+03  0.12500000000E+03 0.  0.
</event>
