<event>
 6    0  0.1438923E+002  0.1066281E+03  0.7546771E-02  0.1266945E+00
         21   -1    0    0  506  501  0.00000000000E+00  0.00000000000E+00  0.12032689418E+03  0.12032689418E+03  0.00000000000E+00 0.  1.
         21   -1    0    0  505  502 -0.00000000000E+00 -0.00000000000E+00 -0.41164285094E+03  0.41164285094E+03  0.00000000000E+00 0.  1.
         21    1    1    2  503  501 -0.68563384227E+02  0.56597770729E+01  0.10623280216E+02  0.69611958856E+02  0.00000000000E+00 0.  1.
         21    1    1    2  504  502  0.34062231478E+02  0.34914695659E+02 -0.21456250509E+03  0.22003713363E+03  0.00000000000E+00 0.  1.
         21    1    1    2  505  503 -0.24672944784E+02 -0.12244685194E+03 -0.51760320973E+02  0.13520767945E+03  0.00000000000E+00 0.  1.
         21    1    1    2  506  504  0.59174097533E+02  0.81872379213E+02 -0.35616410920E+02  0.10711297318E+03  0.00000000000E+00 0.  1.
<scales pt_clust_3="64.33416" pt_clust_4="48.77778" pt_clust_5="106.62812" pt_clust_6="14000.00000"></scales>
<clustering>
<clus scale="   48.778">  2  4  1 -1</clus>
<clus scale="   64.334">  1  3  2 -1</clus>
<clus scale="  106.628">  2  5  1 -1</clus>
<clus scale="   64.334">  1  3  2 -1</clus>
</clustering>
</event>
<event>
 6    0  0.1438923E+002  0.1133908E+03  0.7546771E-02  0.1254417E+00
         21   -1    0    0  504  501  0.00000000000E+00  0.00000000000E+00  0.23535924354E+02  0.23535924354E+02  0.00000000000E+00 0. -1.
         21   -1    0    0  506  502 -0.00000000000E+00 -0.00000000000E+00 -0.25157711719E+04  0.25157711719E+04  0.00000000000E+00 0. -1.
         21    1    1    2  503  505  0.69120917896E+02 -0.51459761437E+02 -0.51735475182E+03  0.52448236154E+03  0.00000000000E+00 0. -1.
         21    1    1    2  504  502 -0.18354610935E+02  0.17636250241E+03 -0.15765592195E+04  0.15864991638E+04  0.00000000000E+00 0. -1.
         21    1    1    2  505  501 -0.38315480208E+02 -0.77056530785E+02 -0.13283298835E+03  0.15827314287E+03  0.00000000000E+00 0. -1.
         21    1    1    2  506  503 -0.12450826753E+02 -0.47846210191E+02 -0.26548828786E+03  0.27005242807E+03  0.00000000000E+00 0.  1.
<scales pt_clust_3="113.39076" pt_clust_4="14000.00000" pt_clust_5="89.19216" pt_clust_6="49.43969"></scales>
<clustering>
<clus scale="   49.440">  2  6  1 -1</clus>
<clus scale="   89.192">  1  5  2 -1</clus>
<clus scale="  113.391">  1  3  2 -1</clus>
<clus scale="   89.192">  1  3  2 -1</clus>
</clustering>
</event>
<event>
 6    0  0.1438923E+002  0.1180052E+03  0.7546771E-02  0.1246425E+00
         21   -1    0    0  505  501  0.00000000000E+00  0.00000000000E+00  0.11151554307E+04  0.11151554307E+04  0.00000000000E+00 0. -1.
         21   -1    0    0  503  502 -0.00000000000E+00 -0.00000000000E+00 -0.13901512910E+03  0.13901512910E+03  0.00000000000E+00 0. -1.
         21    1    1    2  503  504  0.58497020785E+02  0.10403865204E+03 -0.10338427460E+03  0.15790582888E+03  0.00000000000E+00 0. -1.
         21    1    1    2  504  501 -0.24347294054E+02 -0.73260319426E+02  0.84937723433E+03  0.85287839188E+03  0.00000000000E+00 0. -1.
         21    1    1    2  505  506  0.98185364612E+01 -0.29391388868E+02  0.13575451179E+03  0.13924634598E+03  0.00000000000E+00 0. -1.
         21    1    1    2  506  502 -0.43968263192E+02 -0.13869437477E+01  0.94392830062E+02  0.10413999303E+03  0.00000000000E+00 0. -1.
<scales pt_clust_3="118.00520" pt_clust_4="14000.00000" pt_clust_5="30.98802" pt_clust_6="43.19309"></scales>
<clustering>
<clus scale="   30.988">  1  5  2 -1</clus>
<clus scale="   43.193">  1  6  2 -1</clus>
<clus scale="  118.005">  2  3  1 -1</clus>
<clus scale="   30.988">  1  3  2 -1</clus>
</clustering>
</event>
<event>
 6    0  0.1438923E+002  0.1582290E+03  0.7546771E-02  0.1190711E+00
         21   -1    0    0  504  501  0.00000000000E+00  0.00000000000E+00  0.35208071781E+03  0.35208071781E+03  0.00000000000E+00 0.  1.
         21   -1    0    0  506  502 -0.00000000000E+00 -0.00000000000E+00 -0.28585340193E+03  0.28585340193E+03  0.00000000000E+00 0.  1.
         21    1    1    2  503  501 -0.19592963750E+02 -0.15144468999E+03  0.23111951126E+03  0.27701192545E+03  0.00000000000E+00 0.  1.
         21    1    1    2  504  505 -0.53374302256E+02  0.10655183458E+00  0.51172765753E+02  0.73942406300E+02  0.00000000000E+00 0.  1.
         21    1    1    2  505  502  0.38580776538E+02  0.12928850696E+03 -0.11257188658E+03  0.17571688592E+03  0.00000000000E+00 0.  1.
         21    1    1    2  506  503  0.34386489467E+02  0.22049631200E+02 -0.10349307455E+03  0.11126290206E+03  0.00000000000E+00 0.  1.
<scales pt_clust_3="158.22904" pt_clust_4="51.20317" pt_clust_5="14000.00000" pt_clust_6="40.84871"></scales>
<clustering>
<clus scale="   40.849">  2  6  1 -1</clus>
<clus scale="   51.203">  1  4  2 -1</clus>
<clus scale="  158.229">  1  3  2 -1</clus>
<clus scale="   51.203">  1  3  2 -1</clus>
</clustering>
</event>
<event>
 6    0  0.1438923E+002  0.9682855E+02  0.7546771E-02  0.1287110E+00
         21   -1    0    0  504  501  0.00000000000E+00  0.00000000000E+00  0.54870543466E+03  0.54870543466E+03  0.00000000000E+00 0. -1.
         21   -1    0    0  505  502 -0.00000000000E+00 -0.00000000000E+00 -0.20764376562E+03  0.20764376562E+03  0.00000000000E+00 0.  1.
         21    1    1    2  503  501 -0.22363538251E+02  0.58523492779E+02  0.21382613830E+03  0.22281549423E+03  0.00000000000E+00 0. -1.
         21    1    1    2  504  502 -0.62338854481E+02  0.47423578079E+02 -0.17829609796E+03  0.19474246349E+03  0.00000000000E+00 0.  1.
         21    1    1    2  505  506  0.16789800531E+02 -0.46409785648E+02  0.16069467660E+03  0.16810278014E+03  0.00000000000E+00 0. -1.
         21    1    1    2  506  503  0.67912592201E+02 -0.59537285209E+02  0.14483695211E+03  0.17068846243E+03  0.00000000000E+00 0. -1.
<scales pt_clust_3="62.65083" pt_clust_4="79.65624" pt_clust_5="40.69555" pt_clust_6="40.69555"></scales>
<clustering>
<clus scale="   40.696">  5  6 -1 -1</clus>
<clus scale="   62.651">  1  3  2 -1</clus>
<clus scale="   79.656">  2  4  1 -1</clus>
<clus scale="   62.651">  1  3  2 -1</clus>
</clustering>
</event>
<event>
 6    0  0.1438923E+002  0.1491203E+03  0.7546771E-02  0.1201558E+00
         21   -1    0    0  505  501  0.00000000000E+00  0.00000000000E+00  0.29791416539E+03  0.29791416539E+03  0.00000000000E+00 0. -1.
         21   -1    0    0  503  502 -0.00000000000E+00 -0.00000000000E+00 -0.21914197426E+03  0.21914197426E+03  0.00000000000E+00 0.  1.
         21    1    1    2  503  506 -0.19836616746E+02 -0.91000775026E+02  0.10643636046E+03  0.14143313349E+03  0.00000000000E+00 0. -1.
         21    1    1    2  504  502 -0.31541445909E+02 -0.14782348975E+02 -0.11315147496E+02  0.36625308382E+02  0.00000000000E+00 0. -1.
         21    1    1    2  505  504  0.56942870740E+02  0.15162195682E+03 -0.13552805755E+03  0.21118608548E+03  0.00000000000E+00 0.  1.
         21    1    1    2  506  501 -0.55648080848E+01 -0.45838832824E+02  0.11917903571E+03  0.12781161229E+03  0.00000000000E+00 0. -1.
<scales pt_clust_3="33.17648" pt_clust_4="34.83361" pt_clust_5="141.48059" pt_clust_6="33.17648"></scales>
<clustering>
<clus scale="   33.176">  3  6 -1 -1</clus>
<clus scale="   34.834">  2  4  1 -1</clus>
<clus scale="  141.481">  2  5  1 -1</clus>
<clus scale="  149.120">  1  3  2 -1</clus>
</clustering>
</event>
<event>
 6    0  0.1438923E+002  0.2021952E+03  0.7546771E-02  0.1147900E+00
         21   -1    0    0  505  501  0.00000000000E+00  0.00000000000E+00  0.22334657675E+04  0.22334657675E+04  0.00000000000E+00 0. -1.
         21   -1    0    0  504  502 -0.00000000000E+00 -0.00000000000E+00 -0.32331389973E+03  0.32331389973E+03  0.00000000000E+00 0.  1.
         21    1    1    2  503  501 -0.79669147502E+02  0.16157934537E+03  0.72800115008E+03  0.74996048725E+03  0.00000000000E+00 0. -1.
         21    1    1    2  504  503 -0.31359117720E+02 -0.74232077309E+01 -0.30435974794E+03  0.30606103058E+03  0.00000000000E+00 0.  1.
         21    1    1    2  505  506  0.57062593259E+02 -0.13095435088E+03  0.11850027412E+04  0.11935814501E+04  0.00000000000E+00 0. -1.
         21    1    1    2  506  502  0.53965671963E+02 -0.23201786760E+02  0.30150772447E+03  0.30717669927E+03  0.00000000000E+00 0.  1.
<scales pt_clust_3="185.50640" pt_clust_4="32.22574" pt_clust_5="50.01196" pt_clust_6="50.01196"></scales>
<clustering>
<clus scale="   32.226">  2  4  1 -1</clus>
<clus scale="   50.012">  5  6 -1 -1</clus>
<clus scale="  185.506">  2  3  1 -1</clus>
<clus scale="  202.195">  1  3  2 -1</clus>
</clustering>
</event>
<event>
 6    0  0.1438923E+002  0.7532940E+02  0.7546771E-02  0.1342854E+00
         21   -1    0    0  504  501  0.00000000000E+00  0.00000000000E+00  0.42275669084E+03  0.42275669084E+03  0.00000000000E+00 0.  1.
         21   -1    0    0  505  502 -0.00000000000E+00 -0.00000000000E+00 -0.62797261743E+02  0.62797261743E+02  0.00000000000E+00 0. -1.
         21    1    1    2  503  502  0.40850011525E+02  0.37118538644E+02 -0.12160007055E+02  0.56518803280E+02  0.00000000000E+00 0. -1.
         21    1    1    2  504  503 -0.41651979220E+02  0.46465547522E+02  0.14082926295E+03  0.15403511217E+03  0.00000000000E+00 0. -1.
         21    1    1    2  505  506 -0.26975846857E+02  0.17926887627E+02  0.17750646160E+02  0.36934469710E+02  0.00000000000E+00 0. -1.
         21    1    1    2  506  501  0.27777814553E+02 -0.10151097379E+03  0.21353952704E+03  0.23806556742E+03  0.00000000000E+00 0.  1.
<scales pt_clust_3="54.03707" pt_clust_4="75.32940" pt_clust_5="32.38934" pt_clust_6="14000.00000"></scales>
<clustering>
<clus scale="   32.389">  2  5  1 -1</clus>
<clus scale="   54.037">  2  3  1 -1</clus>
<clus scale="   75.329">  1  4  2 -1</clus>
<clus scale="   75.329">  1  3  2 -1</clus>
</clustering>
</event>
<event>
 6    0  0.1438923E+002  0.5476120E+03  0.7546771E-02  0.1002048E+00
         21   -1    0    0  504  501  0.00000000000E+00  0.00000000000E+00  0.92393841273E+03  0.92393841273E+03  0.00000000000E+00 0.  1.
         21   -1    0    0  505  502 -0.00000000000E+00 -0.00000000000E+00 -0.83864197700E+03  0.83864197700E+03  0.00000000000E+00 0. -1.
         21    1    1    2  503  501  0.27972385610E+03 -0.35514271972E+02  0.46567716518E+03  0.54439133108E+03  0.00000000000E+00 0.  1.
         21    1    1    2  504  502 -0.52671715472E+03  0.92677883500E+02 -0.65256101210E+03  0.84371560711E+03  0.00000000000E+00 0. -1.
         21    1    1    2  505  506  0.11875599770E+03 -0.15844854765E+02  0.10148684549E+03  0.15701473249E+03  0.00000000000E+00 0.  1.
         21    1    1    2  506  503  0.12823730092E+03 -0.41318756762E+02  0.17069343715E+03  0.21745871906E+03  0.00000000000E+00 0.  1.
<scales pt_clust_3="53.98401" pt_clust_4="534.80852" pt_clust_5="53.98401" pt_clust_6="38.56325"></scales>
<clustering>
<clus scale="   38.563">  3  6 -1 -1</clus>
<clus scale="   53.984">  3  5 -1 -1</clus>
<clus scale="  534.809">  2  4  1 -1</clus>
<clus scale="  547.612">  1  3  2 -1</clus>
</clustering>
</event>
<event>
 6    0  0.1438923E+002  0.1649541E+03  0.7546771E-02  0.1183214E+00
         21   -1    0    0  505  501  0.00000000000E+00  0.00000000000E+00  0.43567049097E+02  0.43567049097E+02  0.00000000000E+00 0.  1.
         21   -1    0    0  506  502 -0.00000000000E+00 -0.00000000000E+00 -0.19949600736E+04  0.19949600736E+04  0.00000000000E+00 0.  1.
         21    1    1    2  503  504  0.18626749918E+03 -0.49794928431E+02 -0.81098417826E+03  0.83358889960E+03  0.00000000000E+00 0.  1.
         21    1    1    2  504  502 -0.42166361104E+02  0.21003390016E+02 -0.82996598163E+03  0.83130179541E+03  0.00000000000E+00 0.  1.
         21    1    1    2  505  503 -0.16136912620E+03  0.59290277467E+02 -0.24348939859E+03  0.29806445463E+03  0.00000000000E+00 0.  1.
         21    1    1    2  506  501  0.17267988121E+02 -0.30498739052E+02 -0.66953466032E+02  0.75571973054E+02  0.00000000000E+00 0. -1.
<scales pt_clust_3="164.95407" pt_clust_4="46.61467" pt_clust_5="14000.00000" pt_clust_6="35.04792"></scales>
<clustering>
<clus scale="   35.048">  1  6  2 -1</clus>
<clus scale="   46.615">  2  4  1 -1</clus>
<clus scale="  164.954">  2  3  1 -1</clus>
<clus scale="   35.048">  1  3  2 -1</clus>
</clustering>
</event>
<event>
 6    0  0.1438923E+002  0.1439917E+03  0.7546771E-02  0.1208057E+00
         21   -1    0    0  505  501  0.00000000000E+00  0.00000000000E+00  0.15147686350E+04  0.15147686350E+04  0.00000000000E+00 0.  1.
         21   -1    0    0  506  502 -0.00000000000E+00 -0.00000000000E+00 -0.51165211965E+02  0.51165211965E+02  0.00000000000E+00 0.  1.
         21    1    1    2  503  502  0.42906866731E+02 -0.11170595289E+03  0.22203137734E+03  0.25222440732E+03  0.00000000000E+00 0.  1.
         21    1    1    2  504  503 -0.57256679803E+02 -0.12650312777E+03  0.65366187148E+03  0.66824786639E+03  0.00000000000E+00 0.  1.
         21    1    1    2  505  504  0.20646425743E+02  0.56693786092E+02  0.29270305592E+03  0.29885705483E+03  0.00000000000E+00 0.  1.
         21    1    1    2  506  501 -0.62966126708E+01  0.18151529457E+03  0.29520711828E+03  0.34660451841E+03  0.00000000000E+00 0.  1.
<scales pt_clust_3="143.99166" pt_clust_4="106.26486" pt_clust_5="60.33623" pt_clust_6="14000.00000"></scales>
<clustering>
<clus scale="   60.336">  1  5  2 -1</clus>
<clus scale="  106.265">  1  4  2 -1</clus>
<clus scale="  143.992">  2  3  1 -1</clus>
<clus scale="   60.336">  1  3  2 -1</clus>
</clustering>
</event>
<event>
 6    0  0.1438923E+002  0.7017461E+02  0.7546771E-02  0.1359500E+00
         21   -1    0    0  505  501  0.00000000000E+00  0.00000000000E+00  0.13421772966E+04  0.13421772966E+04  0.00000000000E+00 0. -1.
         21   -1    0    0  504  502 -0.00000000000E+00 -0.00000000000E+00 -0.64830107992E+03  0.64830107992E+03  0.00000000000E+00 0. -1.
         21    1    1    2  503  501 -0.16076315573E+02 -0.28606981329E+02  0.30071411576E+03  0.30249923425E+03  0.00000000000E+00 0. -1.
         21    1    1    2  504  503  0.58965658795E+02 -0.37403174009E+02 -0.62916215973E+03  0.63302525193E+03  0.00000000000E+00 0. -1.
         21    1    1    2  505  506  0.27841467096E+02 -0.37452872848E+02  0.78660016393E+03  0.78798330114E+03  0.00000000000E+00 0. -1.
         21    1    1    2  506  502 -0.70730810318E+02  0.10346302819E+03  0.23572409675E+03  0.26697058924E+03  0.00000000000E+00 0. -1.
<scales pt_clust_3="32.81474" pt_clust_4="14000.00000" pt_clust_5="61.14113" pt_clust_6="70.17461"></scales>
<clustering>
<clus scale="   32.815">  1  3  2 -1</clus>
<clus scale="   61.141">  1  5  2 -1</clus>
<clus scale="   70.175">  1  6  2 -1</clus>
<clus scale="   32.815">  1  3  2 -1</clus>
</clustering>
</event>
<event>
 6    0  0.1438923E+002  0.1082838E+03  0.7546771E-02  0.1263781E+00
         21   -1    0    0  503  501  0.00000000000E+00  0.00000000000E+00  0.70104695782E+03  0.70104695782E+03  0.00000000000E+00 0.  1.
         21   -1    0    0  506  502 -0.00000000000E+00 -0.00000000000E+00 -0.16904883732E+03  0.16904883732E+03  0.00000000000E+00 0. -1.
         21    1    1    2  503  505 -0.38296888281E+02  0.22994823816E+02  0.12245703117E+03  0.13035005968E+03  0.00000000000E+00 0.  1.
         21    1    1    2  504  501  0.40989733123E+02  0.21989606494E+02  0.14644830050E+03  0.15365808060E+03  0.00000000000E+00 0.  1.
         21    1    1    2  505  502 -0.49811351108E+02  0.41408106211E+02  0.40679542767E+03  0.41192028589E+03  0.00000000000E+00 0.  1.
         21    1    1    2  506  504  0.47118506266E+02 -0.86392536521E+02 -0.14370263885E+03  0.17416736896E+03  0.00000000000E+00 0. -1.
<scales pt_clust_3="37.49074" pt_clust_4="46.51560" pt_clust_5="37.49074" pt_clust_6="98.42371"></scales>
<clustering>
<clus scale="   37.491">  3  5 -1 -1</clus>
<clus scale="   46.516">  1  4  2 -1</clus>
<clus scale="   98.424">  2  6  1 -1</clus>
<clus scale="   46.516">  1  3  2 -1</clus>
</clustering>
</event>
<event>
 6    0  0.1438923E+002  0.1393188E+03  0.7546771E-02  0.1214248E+00
         21   -1    0    0  506  501  0.00000000000E+00  0.00000000000E+00  0.74333342024E+03  0.74333342024E+03  0.00000000000E+00 0.  1.
         21   -1    0    0  504  502 -0.00000000000E+00 -0.00000000000E+00 -0.36937077748E+03  0.36937077748E+03  0.00000000000E+00 0. -1.
         21    1    1    2  503  502 -0.13324400054E+03  0.64584579408E+02 -0.32820781945E+03  0.36006319491E+03  0.00000000000E+00 0. -1.
         21    1    1    2  504  501  0.50127186560E+02  0.23714861801E+02  0.34918366140E+02  0.65531838037E+02  0.00000000000E+00 0. -1.
         21    1    1    2  505  503  0.34872551470E+02 -0.61363338646E+02  0.13820375495E+03  0.15518322093E+03  0.00000000000E+00 0.  1.
         21    1    1    2  506  505  0.48244262510E+02 -0.26936102562E+02  0.52904834113E+03  0.53192594385E+03  0.00000000000E+00 0.  1.
<scales pt_clust_3="139.31884" pt_clust_4="63.91378" pt_clust_5="14000.00000" pt_clust_6="55.25452"></scales>
<clustering>
<clus scale="   55.255">  1  6  2 -1</clus>
<clus scale="   63.914">  1  4  2 -1</clus>
<clus scale="  139.319">  2  3  1 -1</clus>
<clus scale="   55.255">  1  3  2 -1</clus>
</clustering>
</event>
<event>
 6    0  0.1438923E+002  0.1236880E+03  0.7546771E-02  0.1237134E+00
         21   -1    0    0  506  501  0.00000000000E+00  0.00000000000E+00  0.31958378806E+03  0.31958378806E+03  0.00000000000E+00 0.  1.
         21   -1    0    0  504  502 -0.00000000000E+00 -0.00000000000E+00 -0.61656744628E+03  0.61656744628E+03  0.00000000000E+00 0. -1.
         21    1    1    2  503  501 -0.27539943407E+02  0.18959722691E+02  0.68375452498E+01  0.34127285161E+02  0.00000000000E+00 0. -1.
         21    1    1    2  504  503  0.10823729682E+03 -0.65611974725E+02  0.73515758408E+02  0.14637216396E+03  0.00000000000E+00 0. -1.
         21    1    1    2  505  502 -0.15903363926E+01 -0.33631250254E+02 -0.54914349353E+03  0.55017466922E+03  0.00000000000E+00 0. -1.
         21    1    1    2  506  505 -0.79107017016E+02  0.80283502288E+02  0.17180653165E+03  0.20547711600E+03  0.00000000000E+00 0.  1.
<scales pt_clust_3="33.43530" pt_clust_4="123.68802" pt_clust_5="33.63846" pt_clust_6="14000.00000"></scales>
<clustering>
<clus scale="   33.435">  1  3  2 -1</clus>
<clus scale="   33.638">  2  5  1 -1</clus>
<clus scale="  123.688">  2  4  1 -1</clus>
<clus scale="   33.435">  1  3  2 -1</clus>
</clustering>
</event>
<event>
 6    0  0.1438923E+002  0.9260861E+02  0.7546771E-02  0.1296655E+00
         21   -1    0    0  503  501  0.00000000000E+00  0.00000000000E+00  0.28256853892E+03  0.28256853892E+03  0.00000000000E+00 0.  1.
         21   -1    0    0  506  502 -0.00000000000E+00 -0.00000000000E+00 -0.10356669738E+03  0.10356669738E+03  0.00000000000E+00 0.  1.
         21    1    1    2  503  505 -0.41196235127E+02 -0.96040181411E+01  0.10074342847E+03  0.10926392512E+03  0.00000000000E+00 0. -1.
         21    1    1    2  504  501 -0.44568712811E+02 -0.10252937606E+00  0.26834440199E+02  0.52023723960E+02  0.00000000000E+00 0.  1.
         21    1    1    2  505  502  0.82057935157E+02  0.76792450515E+02 -0.32831074624E+02  0.11708315267E+03  0.00000000000E+00 0.  1.
         21    1    1    2  506  504  0.37070127808E+01 -0.67085902998E+02  0.84255047505E+02  0.10776443455E+03  0.00000000000E+00 0.  1.
<scales pt_clust_3="42.30091" pt_clust_4="53.76301" pt_clust_5="14000.00000" pt_clust_6="92.60861"></scales>
<clustering>
<clus scale="   42.301">  1  3  2 -1</clus>
<clus scale="   53.763">  1  4  2 -1</clus>
<clus scale="   92.609">  1  6  2 -1</clus>
<clus scale="   42.301">  1  3  2 -1</clus>
</clustering>
</event>
<event>
 6    0  0.1438923E+002  0.1187316E+03  0.7546771E-02  0.1245204E+00
         21   -1    0    0  503  501  0.00000000000E+00  0.00000000000E+00  0.98548681321E+02  0.98548681321E+02  0.00000000000E+00 0.  1.
         21   -1    0    0  505  502 -0.00000000000E+00 -0.00000000000E+00 -0.66748000164E+03  0.66748000164E+03  0.00000000000E+00 0.  1.
         21    1    1    2  503  506  0.95304866198E+02 -0.18192487089E+02 -0.34875388613E+02  0.10310323389E+03  0.00000000000E+00 0.  1.
         21    1    1    2  504  501  0.50205710007E+02 -0.12336349972E+02 -0.10633820152E+03  0.11823963782E+03  0.00000000000E+00 0.  1.
         21    1    1    2  505  504  0.59666323378E+01  0.32860770378E+02 -0.38614969703E+03  0.38759130466E+03  0.00000000000E+00 0.  1.
         21    1    1    2  506  502 -0.15147720854E+03 -0.23319333172E+01 -0.41568033148E+02  0.15709450659E+03  0.00000000000E+00 0.  1.
<scales pt_clust_3="14000.00000" pt_clust_4="52.59961" pt_clust_5="33.39807" pt_clust_6="118.73163"></scales>
<clustering>
<clus scale="   33.398">  2  5  1 -1</clus>
<clus scale="   52.600">  2  4  1 -1</clus>
<clus scale="  118.732">  2  6  1 -1</clus>
<clus scale="  118.732">  1  3  2 -1</clus>
</clustering>
</event>
<event>
 6    0  0.1438923E+002  0.1227011E+03  0.7546771E-02  0.1238707E+00
         21   -1    0    0  506  501  0.00000000000E+00  0.00000000000E+00  0.67519963235E+03  0.67519963235E+03  0.00000000000E+00 0.  1.
         21   -1    0    0  501  502 -0.00000000000E+00 -0.00000000000E+00 -0.51152386950E+03  0.51152386950E+03  0.00000000000E+00 0.  1.
         21    1    1    2  503  505  0.84324660087E+02 -0.59360146657E+02 -0.36202689732E+02  0.10929277219E+03  0.00000000000E+00 0.  1.
         21    1    1    2  504  503 -0.74642588317E+02  0.54945559646E+02  0.47468632302E+03  0.48365032387E+03  0.00000000000E+00 0.  1.
         21    1    1    2  505  502  0.38981581735E+02  0.16630536221E+02 -0.42927858742E+03  0.43136555735E+03  0.00000000000E+00 0.  1.
         21    1    1    2  506  504 -0.48663653505E+02 -0.12215949210E+02  0.15447071699E+03  0.16241484844E+03  0.00000000000E+00 0.  1.
<scales pt_clust_3="122.70106" pt_clust_4="14000.00000" pt_clust_5="42.38087" pt_clust_6="48.12709"></scales>
<clustering>
<clus scale="   42.381">  2  5  1 -1</clus>
<clus scale="   48.127">  1  6  2 -1</clus>
<clus scale="  122.701">  2  3  1 -1</clus>
<clus scale="   48.127">  1  3  2 -1</clus>
</clustering>
</event>
<event>
 6    0  0.1438923E+002  0.1658144E+03  0.7546771E-02  0.1182284E+00
         21   -1    0    0  504  501  0.00000000000E+00  0.00000000000E+00  0.18007208165E+03  0.18007208165E+03  0.00000000000E+00 0. -1.
         21   -1    0    0  505  502 -0.00000000000E+00 -0.00000000000E+00 -0.54573091515E+03  0.54573091515E+03  0.00000000000E+00 0.  1.
         21    1    1    2  503  501  0.69196908223E+02  0.14828096530E+02  0.52528096031E+02  0.88132204256E+02  0.00000000000E+00 0. -1.
         21    1    1    2  504  506 -0.17420952803E+03 -0.10281919640E+02 -0.29453359839E+02  0.17698072757E+03  0.00000000000E+00 0. -1.
         21    1    1    2  505  503  0.73582032924E+02 -0.11923356736E+02 -0.40474934557E+01  0.74651618926E+02  0.00000000000E+00 0.  1.
         21    1    1    2  506  502  0.31430586879E+02  0.73771798464E+01 -0.38468607624E+03  0.38603844605E+03  0.00000000000E+00 0.  1.
<scales pt_clust_3="58.37006" pt_clust_4="154.07947" pt_clust_5="58.37006" pt_clust_6="32.28474"></scales>
<clustering>
<clus scale="   32.285">  2  6  1 -1</clus>
<clus scale="   58.370">  3  5 -1 -1</clus>
<clus scale="  154.079">  2  4  1 -1</clus>
<clus scale="  165.814">  1  3  2 -1</clus>
</clustering>
</event>
<event>
 6    0  0.1438923E+002  0.1047430E+03  0.7546771E-02  0.1270627E+00
         21   -1    0    0  506  501  0.00000000000E+00  0.00000000000E+00  0.19643680994E+03  0.19643680994E+03  0.00000000000E+00 0. -1.
         21   -1    0    0  504  502 -0.00000000000E+00 -0.00000000000E+00 -0.45441718765E+03  0.45441718765E+03  0.00000000000E+00 0. -1.
         21    1    1    2  503  501 -0.73742389135E+02  0.55867861856E+02  0.89995463997E+02  0.12906719755E+03  0.00000000000E+00 0. -1.
         21    1    1    2  504  505 -0.25960843786E+02  0.17208573380E+02 -0.29092479756E+03  0.29258731730E+03  0.00000000000E+00 0. -1.
         21    1    1    2  505  503 -0.43419850608E+02 -0.96569107271E+01 -0.57446504382E+02  0.72654251199E+02  0.00000000000E+00 0. -1.
         21    1    1    2  506  502  0.14312308353E+03 -0.63419524508E+02  0.39546024772E+00  0.15654523154E+03  0.00000000000E+00 0. -1.
<scales pt_clust_3="14000.00000" pt_clust_4="31.14643" pt_clust_5="53.87346" pt_clust_6="104.74299"></scales>
<clustering>
<clus scale="   31.146">  2  4  1 -1</clus>
<clus scale="   53.873">  2  5  1 -1</clus>
<clus scale="  104.743">  2  6  1 -1</clus>
<clus scale="  104.743">  1  3  2 -1</clus>
</clustering>
</event>
<event>
 6    0  0.1438923E+002  0.1047330E+03  0.7546771E-02  0.1270647E+00
         21   -1    0    0  505  501  0.00000000000E+00  0.00000000000E+00  0.25524513656E+03  0.25524513656E+03  0.00000000000E+00 0. -1.
         21   -1    0    0  504  502 -0.00000000000E+00 -0.00000000000E+00 -0.27667018975E+03  0.27667018975E+03  0.00000000000E+00 0. -1.
         21    1    1    2  503  506 -0.51992886626E+02 -0.74753642031E-01 -0.19022926558E+02  0.55363684692E+02  0.00000000000E+00 0.  1.
         21    1    1    2  504  501  0.11410961361E+03  0.18447610262E+02 -0.15047086283E+02  0.11656643191E+03  0.00000000000E+00 0. -1.
         21    1    1    2  505  503 -0.10260275978E+03 -0.59561671080E+00  0.16888418176E+03  0.19760958459E+03  0.00000000000E+00 0. -1.
         21    1    1    2  506  502  0.40486032800E+02 -0.17777239909E+02 -0.15623922210E+03  0.16237562512E+03  0.00000000000E+00 0. -1.
<scales pt_clust_3="39.57637" pt_clust_4="104.73300" pt_clust_5="14000.00000" pt_clust_6="44.21707"></scales>
<clustering>
<clus scale="   44.217">  2  6  1 -1</clus>
<clus scale="   39.576">  2  3  1 -1</clus>
<clus scale="  104.733">  2  4  1 -1</clus>
<clus scale="  104.733">  1  3  2 -1</clus>
</clustering>
</event>
<event>
 6    0  0.1438923E+002  0.1092602E+03  0.7546771E-02  0.1261946E+00
         21   -1    0    0  503  501  0.00000000000E+00  0.00000000000E+00  0.56641942637E+03  0.56641942637E+03  0.00000000000E+00 0. -1.
         21   -1    0    0  506  502 -0.00000000000E+00 -0.00000000000E+00 -0.15732508931E+04  0.15732508931E+04  0.00000000000E+00 0.  1.
         21    1    1    2  503  505 -0.27551346253E+02  0.33260952732E+02  0.42749099631E+03  0.42966721958E+03  0.00000000000E+00 0. -1.
         21    1    1    2  504  502  0.12260641648E+03  0.11046535835E+02 -0.15301697407E+02  0.12405039807E+03  0.00000000000E+00 0.  1.
         21    1    1    2  505  504 -0.91093148882E+02 -0.51973179144E+01  0.58190895452E+02  0.10821808629E+03  0.00000000000E+00 0. -1.
         21    1    1    2  506  501 -0.39619213474E+01 -0.39110170653E+02 -0.14772116610E+04  0.14777346155E+04  0.00000000000E+00 0.  1.
<scales pt_clust_3="42.87762" pt_clust_4="14000.00000" pt_clust_5="109.26022" pt_clust_6="39.31033"></scales>
<clustering>
<clus scale="   39.310">  2  6  1 -1</clus>
<clus scale="   42.878">  1  3  2 -1</clus>
<clus scale="  109.260">  1  5  2 -1</clus>
<clus scale="   42.878">  1  3  2 -1</clus>
</clustering>
</event>
<event>
 6    0  0.1438923E+002  0.3988729E+03  0.7546771E-02  0.1044171E+00
         21   -1    0    0  505  501  0.00000000000E+00  0.00000000000E+00  0.47292496471E+03  0.47292496471E+03  0.00000000000E+00 0.  1.
         21   -1    0    0  506  502 -0.00000000000E+00 -0.00000000000E+00 -0.48512226069E+03  0.48512226069E+03  0.00000000000E+00 0.  1.
         21    1    1    2  503  501 -0.19235430004E+02 -0.29016145412E+03  0.11410870678E+03  0.31238512798E+03  0.00000000000E+00 0.  1.
         21    1    1    2  504  503 -0.59505130790E+02 -0.71243988841E+02  0.60918989225E+02  0.11103013007E+03  0.00000000000E+00 0. -1.
         21    1    1    2  505  502 -0.81028096491E+02  0.42130464427E+01  0.30691148695E+02  0.86748191852E+02  0.00000000000E+00 0.  1.
         21    1    1    2  506  504  0.15976865729E+03  0.35719239651E+03 -0.21791614067E+03  0.44788377549E+03  0.00000000000E+00 0.  1.
<scales pt_clust_3="61.45586" pt_clust_4="61.45586" pt_clust_5="81.13755" pt_clust_6="383.75481"></scales>
<clustering>
<clus scale="   61.456">  3  4 -1 -1</clus>
<clus scale="   81.138">  1  5  2 -1</clus>
<clus scale="  383.755">  2  6  1 -1</clus>
<clus scale="   81.138">  1  3  2 -1</clus>
</clustering>
</event>
<event>
 6    0  0.1438923E+002  0.1167555E+03  0.7546771E-02  0.1248547E+00
         21   -1    0    0  503  501  0.00000000000E+00  0.00000000000E+00  0.25811492824E+03  0.25811492824E+03  0.00000000000E+00 0.  1.
         21   -1    0    0  505  502 -0.00000000000E+00 -0.00000000000E+00 -0.11130343310E+04  0.11130343310E+04  0.00000000000E+00 0. -1.
         21    1    1    2  503  502 -0.13385667583E+02  0.35418379022E+02 -0.39280574253E+03  0.39462639171E+03  0.00000000000E+00 0. -1.
         21    1    1    2  504  501  0.16842693208E+02  0.25366079839E+02  0.55310436693E+02  0.63137617377E+02  0.00000000000E+00 0. -1.
         21    1    1    2  505  506  0.46926375862E+02 -0.14696235812E+03 -0.69378596019E+03  0.71073129804E+03  0.00000000000E+00 0. -1.
         21    1    1    2  506  504 -0.50383401487E+02  0.86177899254E+02  0.17636186330E+03  0.20265395207E+03  0.00000000000E+00 0.  1.
<scales pt_clust_3="37.94493" pt_clust_4="30.44855" pt_clust_5="116.75552" pt_clust_6="14000.00000"></scales>
<clustering>
<clus scale="   30.449">  1  4  2 -1</clus>
<clus scale="   37.945">  2  3  1 -1</clus>
<clus scale="  116.756">  2  5  1 -1</clus>
<clus scale="   30.449">  1  3  2 -1</clus>
</clustering>
</event>
<event>
 6    0  0.1438923E+002  0.2430529E+03  0.7546771E-02  0.1117776E+00
         21   -1    0    0  506  501  0.00000000000E+00  0.00000000000E+00  0.10955010516E+04  0.10955010516E+04  0.00000000000E+00 0.  1.
         21   -1    0    0  505  502 -0.00000000000E+00 -0.00000000000E+00 -0.14309871012E+04  0.14309871012E+04  0.00000000000E+00 0.  1.
         21    1    1    2  503  502 -0.10913786685E+02 -0.62864375711E+02 -0.13776197647E+04  0.13790965363E+04  0.00000000000E+00 0.  1.
         21    1    1    2  504  503 -0.18063715899E+03  0.26066245186E+02  0.32225458905E+03  0.37034747537E+03  0.00000000000E+00 0.  1.
         21    1    1    2  505  501  0.23508865086E+03  0.60082248320E+02  0.58014913066E+03  0.62884780681E+03  0.00000000000E+00 0.  1.
         21    1    1    2  506  504 -0.43537705185E+02 -0.23284117795E+02  0.13972999533E+03  0.14819633434E+03  0.00000000000E+00 0.  1.
<scales pt_clust_3="63.80471" pt_clust_4="37.49126" pt_clust_5="232.11830" pt_clust_6="37.49126"></scales>
<clustering>
<clus scale="   37.491">  4  6 -1 -1</clus>
<clus scale="   63.805">  2  3  1 -1</clus>
<clus scale="  232.118">  1  5  2 -1</clus>
<clus scale="  232.118">  1  3  2 -1</clus>
</clustering>
</event>
<event>
 6    0  0.1438923E+002  0.1221342E+03  0.7546771E-02  0.1239617E+00
         21   -1    0    0  504  501  0.00000000000E+00  0.00000000000E+00  0.41385277903E+03  0.41385277903E+03  0.00000000000E+00 0.  1.
         21   -1    0    0  506  502 -0.00000000000E+00 -0.00000000000E+00 -0.19173372548E+03  0.19173372548E+03  0.00000000000E+00 0. -1.
         21    1    1    2  503  505  0.82427837951E+01 -0.64072754412E+02  0.12809762140E+03  0.14346519421E+03  0.00000000000E+00 0.  1.
         21    1    1    2  504  502 -0.29011481846E+02  0.96723216225E+01  0.74724219863E+02  0.80739884311E+02  0.00000000000E+00 0.  1.
         21    1    1    2  505  501 -0.34701518590E+02 -0.38535403977E+02  0.18017286100E+03  0.18748715315E+03  0.00000000000E+00 0.  1.
         21    1    1    2  506  503  0.55470216641E+02  0.92935836767E+02 -0.16087564872E+03  0.19389427284E+03  0.00000000000E+00 0. -1.
<scales pt_clust_3="57.06702" pt_clust_4="30.58136" pt_clust_5="57.06702" pt_clust_6="107.91890"></scales>
<clustering>
<clus scale="   30.581">  1  4  2 -1</clus>
<clus scale="   57.067">  3  5 -1 -1</clus>
<clus scale="  107.919">  2  6  1 -1</clus>
<clus scale="   30.581">  1  3  2 -1</clus>
</clustering>
</event>
<event>
 6    0  0.1438923E+002  0.1601837E+03  0.7546771E-02  0.1188490E+00
         21   -1    0    0  505  501  0.00000000000E+00  0.00000000000E+00  0.27683534147E+03  0.27683534147E+03  0.00000000000E+00 0.  1.
         21   -1    0    0  504  502 -0.00000000000E+00 -0.00000000000E+00 -0.26554061675E+03  0.26554061675E+03  0.00000000000E+00 0.  1.
         21    1    1    2  503  501 -0.27652474042E+02  0.18301874697E+02  0.33266936352E+02  0.46971342245E+02  0.00000000000E+00 0.  1.
         21    1    1    2  504  503  0.24547115841E+02  0.18048495920E+03 -0.13817555727E+03  0.22862603968E+03  0.00000000000E+00 0.  1.
         21    1    1    2  505  506 -0.65143068325E+01 -0.68485466685E+02  0.11745229545E+03  0.13611663031E+03  0.00000000000E+00 0.  1.
         21    1    1    2  506  502  0.96196650335E+01 -0.13030136721E+03 -0.12489498154E+01  0.13066194598E+03  0.00000000000E+00 0.  1.
<scales pt_clust_3="33.16049" pt_clust_4="14000.00000" pt_clust_5="62.43757" pt_clust_6="160.18366"></scales>
<clustering>
<clus scale="   33.160">  1  3  2 -1</clus>
<clus scale="   62.438">  1  5  2 -1</clus>
<clus scale="  160.184">  1  6  2 -1</clus>
<clus scale="   33.160">  1  3  2 -1</clus>
</clustering>
</event>
<event>
 6    0  0.1438923E+002  0.5980653E+02  0.7546771E-02  0.1398645E+00
         21   -1    0    0  506  501  0.00000000000E+00  0.00000000000E+00  0.17569373518E+04  0.17569373518E+04  0.00000000000E+00 0.  1.
         21   -1    0    0  504  502 -0.00000000000E+00 -0.00000000000E+00 -0.33240551774E+03  0.33240551774E+03  0.00000000000E+00 0.  1.
         21    1    1    2  503  502  0.86034780294E+01 -0.52582996951E+02  0.67193942346E+02  0.85755567111E+02  0.00000000000E+00 0.  1.
         21    1    1    2  504  505  0.39651724221E+02 -0.44650153032E+02 -0.31259097415E+03  0.31824363704E+03  0.00000000000E+00 0.  1.
         21    1    1    2  505  501 -0.16926170297E+02  0.13245591347E+03  0.15603765819E+04  0.15660798644E+04  0.00000000000E+00 0.  1.
         21    1    1    2  506  503 -0.31329031953E+02 -0.35222763486E+02  0.10955228395E+03  0.11926380100E+03  0.00000000000E+00 0. -1.
<scales pt_clust_3="54.69164" pt_clust_4="14000.00000" pt_clust_5="59.80653" pt_clust_6="47.13970"></scales>
<clustering>
<clus scale="   47.140">  1  6  2 -1</clus>
<clus scale="   54.692">  1  3  2 -1</clus>
<clus scale="   59.807">  1  5  2 -1</clus>
<clus scale="   47.140">  1  3  2 -1</clus>
</clustering>
</event>
<event>
 6    0  0.1438923E+002  0.1598827E+03  0.7546771E-02  0.1188829E+00
         21   -1    0    0  505  501  0.00000000000E+00  0.00000000000E+00  0.49543384179E+03  0.49543384179E+03  0.00000000000E+00 0.  1.
         21   -1    0    0  506  502 -0.00000000000E+00 -0.00000000000E+00 -0.36393394885E+03  0.36393394885E+03  0.00000000000E+00 0. -1.
         21    1    1    2  503  501  0.36607236468E+02  0.82417010545E+02  0.15211285754E+03  0.17683601109E+03  0.00000000000E+00 0.  1.
         21    1    1    2  504  503 -0.68128961953E+02 -0.85417921634E+02  0.70300967936E+02  0.12992306526E+03  0.00000000000E+00 0.  1.
         21    1    1    2  505  502  0.16134973893E+03  0.22433101476E+02 -0.27909844005E+03  0.32316082921E+03  0.00000000000E+00 0. -1.
         21    1    1    2  506  504 -0.12982801344E+03 -0.19432190388E+02  0.18818450752E+03  0.22944788508E+03  0.00000000000E+00 0.  1.
<scales pt_clust_3="90.18123" pt_clust_4="83.15101" pt_clust_5="14000.00000" pt_clust_6="159.88272"></scales>
<clustering>
<clus scale="   90.181">  1  3  2 -1</clus>
<clus scale="   83.151">  1  4  2 -1</clus>
<clus scale="  159.883">  1  6  2 -1</clus>
<clus scale="   90.181">  1  3  2 -1</clus>
</clustering>
</event>
<event>
 6    0  0.1438923E+002  0.1558528E+03  0.7546771E-02  0.1193460E+00
         21   -1    0    0  506  501  0.00000000000E+00  0.00000000000E+00  0.14820246899E+04  0.14820246899E+04  0.00000000000E+00 0. -1.
         21   -1    0    0  503  502 -0.00000000000E+00 -0.00000000000E+00 -0.29853391146E+02  0.29853391146E+02  0.00000000000E+00 0. -1.
         21    1    1    2  503  504  0.84582701408E+02  0.14568534441E+03  0.42833310208E+03  0.46026915962E+03  0.00000000000E+00 0. -1.
         21    1    1    2  504  501 -0.80671989758E+00 -0.43319344350E+02  0.66184712591E+03  0.66326377443E+03  0.00000000000E+00 0. -1.
         21    1    1    2  505  502 -0.56929109504E+02 -0.48694455690E+02  0.14500252292E+03  0.16321092236E+03  0.00000000000E+00 0. -1.
         21    1    1    2  506  505 -0.26846872007E+02 -0.53671544373E+02  0.21698854781E+03  0.22513422461E+03  0.00000000000E+00 0. -1.
<scales pt_clust_3="148.36739" pt_clust_4="43.32686" pt_clust_5="42.71080" pt_clust_6="42.71080"></scales>
<clustering>
<clus scale="   42.711">  5  6 -1 -1</clus>
<clus scale="   43.327">  1  4  2 -1</clus>
<clus scale="  148.367">  1  3  2 -1</clus>
<clus scale="   43.327">  1  3  2 -1</clus>
</clustering>
</event>
<event>
 6    0  0.1438923E+002  0.9091914E+02  0.7546771E-02  0.1300641E+00
         21   -1    0    0  505  501  0.00000000000E+00  0.00000000000E+00  0.12401881724E+04  0.12401881724E+04  0.00000000000E+00 0. -1.
         21   -1    0    0  503  502 -0.00000000000E+00 -0.00000000000E+00 -0.25551444248E+04  0.25551444248E+04  0.00000000000E+00 0.  1.
         21    1    1    2  503  501 -0.10542040937E+02 -0.34273772647E+02  0.72348946395E+03  0.72437754697E+03  0.00000000000E+00 0. -1.
         21    1    1    2  504  506 -0.59100024148E+02  0.56487965242E+02  0.27409781732E+03  0.28603027205E+03  0.00000000000E+00 0. -1.
         21    1    1    2  505  504 -0.16936763789E+02 -0.50463271746E+02  0.23236669480E+03  0.23838556293E+03  0.00000000000E+00 0. -1.
         21    1    1    2  506  502  0.86578828873E+02  0.28249079151E+02 -0.25449102284E+04  0.25465392153E+04  0.00000000000E+00 0.  1.
<scales pt_clust_3="35.85842" pt_clust_4="90.91914" pt_clust_5="69.57455" pt_clust_6="14000.00000"></scales>
<clustering>
<clus scale="   35.858">  1  3  2 -1</clus>
<clus scale="   69.575">  1  5  2 -1</clus>
<clus scale="   90.919">  1  4  2 -1</clus>
<clus scale="   35.858">  1  3  2 -1</clus>
</clustering>
</event>
<event>
 6    0  0.1438923E+002  0.1713181E+03  0.7546771E-02  0.1176480E+00
         21   -1    0    0  505  501  0.00000000000E+00  0.00000000000E+00  0.66710088374E+03  0.66710088374E+03  0.00000000000E+00 0. -1.
         21   -1    0    0  504  502 -0.00000000000E+00 -0.00000000000E+00 -0.13317533609E+03  0.13317533609E+03  0.00000000000E+00 0. -1.
         21    1    1    2  503  506 -0.69265598996E+02 -0.15523428571E+02  0.58680261402E+02  0.92098171085E+02  0.00000000000E+00 0. -1.
         21    1    1    2  504  503 -0.11866215761E+03  0.28781319073E+02 -0.33160443907E+02  0.12652544020E+03  0.00000000000E+00 0. -1.
         21    1    1    2  505  502  0.23389206339E+03  0.20067714481E+01  0.41202187234E+03  0.47378428397E+03  0.00000000000E+00 0. -1.
         21    1    1    2  506  501 -0.45964306785E+02 -0.15264661950E+02  0.96383857818E+02  0.10786832459E+03  0.00000000000E+00 0. -1.
<scales pt_clust_3="34.21632" pt_clust_4="122.10271" pt_clust_5="166.23477" pt_clust_6="34.21632"></scales>
<clustering>
<clus scale="   34.216">  3  6 -1 -1</clus>
<clus scale="  122.103">  2  4  1 -1</clus>
<clus scale="  166.235">  2  5  1 -1</clus>
<clus scale="  171.318">  1  3  2 -1</clus>
</clustering>
</event>
<event>
 6    0  0.1438923E+002  0.2428748E+03  0.7546771E-02  0.1117892E+00
         21   -1    0    0  502  501  0.00000000000E+00  0.00000000000E+00  0.55235060555E+03  0.55235060555E+03  0.00000000000E+00 0.  1.
         21   -1    0    0  504  502 -0.00000000000E+00 -0.00000000000E+00 -0.22351231868E+03  0.22351231868E+03  0.00000000000E+00 0. -1.
         21    1    1    2  503  505  0.90673336315E+02 -0.13246141421E+02  0.18974556044E+03  0.21071424225E+03  0.00000000000E+00 0.  1.
         21    1    1    2  504  503 -0.17728487172E+03  0.16145543394E+03 -0.96718873260E+02  0.25855816239E+03  0.00000000000E+00 0. -1.
         21    1    1    2  505  506  0.95579654358E+02 -0.78612179034E+02  0.17087292648E+03  0.21098080961E+03  0.00000000000E+00 0.  1.
         21    1    1    2  506  501 -0.89681189515E+01 -0.69597113490E+02  0.64938673206E+02  0.95609709974E+02  0.00000000000E+00 0. -1.
<scales pt_clust_3="58.69654" pt_clust_4="233.09926" pt_clust_5="58.69654" pt_clust_6="70.17254"></scales>
<clustering>
<clus scale="   58.697">  3  5 -1 -1</clus>
<clus scale="   70.173">  1  6  2 -1</clus>
<clus scale="  233.099">  2  4  1 -1</clus>
<clus scale="   70.173">  1  3  2 -1</clus>
</clustering>
</event>
<event>
 6    0  0.1438923E+002  0.2441320E+03  0.7546771E-02  0.1117070E+00
         21   -1    0    0  504  501  0.00000000000E+00  0.00000000000E+00  0.13867873809E+03  0.13867873809E+03  0.00000000000E+00 0.  1.
         21   -1    0    0  505  502 -0.00000000000E+00 -0.00000000000E+00 -0.74364441383E+03  0.74364441383E+03  0.00000000000E+00 0.  1.
         21    1    1    2  503  502 -0.11563893330E+03 -0.20003175125E+02 -0.47496759094E+02  0.12660344401E+03  0.00000000000E+00 0.  1.
         21    1    1    2  504  503 -0.10551877482E+03  0.47537641158E+02  0.31061116812E+01  0.11577429377E+03  0.00000000000E+00 0.  1.
         21    1    1    2  505  506 -0.25483699318E+02 -0.16529932887E+02 -0.20395668777E+03  0.20620617861E+03  0.00000000000E+00 0.  1.
         21    1    1    2  506  501  0.24664140744E+03 -0.11004533145E+02 -0.35661834056E+03  0.43373923553E+03  0.00000000000E+00 0.  1.
<scales pt_clust_3="82.76975" pt_clust_4="82.76975" pt_clust_5="30.37528" pt_clust_6="229.11325"></scales>
<clustering>
<clus scale="   30.375">  2  5  1 -1</clus>
<clus scale="   82.770">  3  4 -1 -1</clus>
<clus scale="  229.113">  2  6  1 -1</clus>
<clus scale="  244.132">  1  3  2 -1</clus>
</clustering>
</event>
<event>
 6    0  0.1438923E+002  0.3427092E+03  0.7546771E-02  0.1065648E+00
         21   -1    0    0  503  501  0.00000000000E+00  0.00000000000E+00  0.95076564281E+03  0.95076564281E+03  0.00000000000E+00 0. -1.
         21   -1    0    0  506  502 -0.00000000000E+00 -0.00000000000E+00 -0.82607634988E+03  0.82607634988E+03  0.00000000000E+00 0. -1.
         21    1    1    2  503  505 -0.49756058923E+02 -0.88411100367E+02  0.46604679068E+03  0.47696100383E+03  0.00000000000E+00 0. -1.
         21    1    1    2  504  502  0.14193387143E+03  0.32400569956E+03 -0.73145080317E+03  0.81249319668E+03  0.00000000000E+00 0. -1.
         21    1    1    2  505  504 -0.46040083903E+02 -0.23704278779E+03  0.35527275840E+03  0.42956688121E+03  0.00000000000E+00 0. -1.
         21    1    1    2  506  501 -0.46137728607E+02  0.14481886011E+01  0.34820547017E+02  0.57820910973E+02  0.00000000000E+00 0. -1.
<scales pt_clust_3="114.59186" pt_clust_4="342.70918" pt_clust_5="14000.00000" pt_clust_6="46.16045"></scales>
<clustering>
<clus scale="   46.160">  1  6  2 -1</clus>
<clus scale="  114.592">  1  3  2 -1</clus>
<clus scale="  342.709">  2  4  1 -1</clus>
<clus scale="   46.160">  1  3  2 -1</clus>
</clustering>
</event>
<event>
 6    0  0.1438923E+002  0.1404793E+03  0.7546771E-02  0.1212685E+00
         21   -1    0    0  505  501  0.00000000000E+00  0.00000000000E+00  0.15599448909E+04  0.15599448909E+04  0.00000000000E+00 0. -1.
         21   -1    0    0  506  502 -0.00000000000E+00 -0.00000000000E+00 -0.17107148183E+03  0.17107148183E+03  0.00000000000E+00 0. -1.
         21    1    1    2  503  501  0.10935177421E+02 -0.43438286478E+02  0.59945023431E+03  0.60112149042E+03  0.00000000000E+00 0. -1.
         21    1    1    2  504  503  0.73756586295E+02 -0.55260879105E+02  0.83328189326E+03  0.83836299561E+03  0.00000000000E+00 0. -1.
         21    1    1    2  505  502 -0.12336109100E+03  0.14522745339E+03 -0.94444504695E+02  0.21267048799E+03  0.00000000000E+00 0. -1.
         21    1    1    2  506  504  0.38669327288E+02 -0.46528287811E+02  0.50585786199E+02  0.78861398700E+02  0.00000000000E+00 0. -1.
<scales pt_clust_3="34.71839" pt_clust_4="34.71839" pt_clust_5="131.35607" pt_clust_6="60.49957"></scales>
<clustering>
<clus scale="   34.718">  3  4 -1 -1</clus>
<clus scale="   60.500">  2  6  1 -1</clus>
<clus scale="  131.356">  2  5  1 -1</clus>
<clus scale="  140.479">  1  3  2 -1</clus>
</clustering>
</event>
<event>
 6    0  0.1438923E+002  0.2363684E+03  0.7546771E-02  0.1122236E+00
         21   -1    0    0  504  501  0.00000000000E+00  0.00000000000E+00  0.51840464743E+03  0.51840464743E+03  0.00000000000E+00 0.  1.
         21   -1    0    0  503  502 -0.00000000000E+00 -0.00000000000E+00 -0.12080508639E+03  0.12080508639E+03  0.00000000000E+00 0.  1.
         21    1    1    2  503  506 -0.47388996079E+02 -0.12791894936E+01  0.34862481938E+02  0.58845101088E+02  0.00000000000E+00 0.  1.
         21    1    1    2  504  502  0.18839333582E+03 -0.26414687137E+02  0.16749167173E+02  0.19097203795E+03  0.00000000000E+00 0.  1.
         21    1    1    2  505  501 -0.10200717260E+03  0.67608472292E+02  0.25049302830E+03  0.27878867627E+03  0.00000000000E+00 0.  1.
         21    1    1    2  506  505 -0.38997167145E+02 -0.39914595661E+02  0.95494883626E+02  0.11060391852E+03  0.00000000000E+00 0.  1.
<scales pt_clust_3="46.63868" pt_clust_4="190.23613" pt_clust_5="102.20346" pt_clust_6="102.20346"></scales>
<clustering>
<clus scale="   46.639">  3  6 -1 -1</clus>
<clus scale="  102.203">  3  5 -1 -1</clus>
<clus scale="  190.236">  2  4  1 -1</clus>
<clus scale="  236.368">  1  3  2 -1</clus>
</clustering>
</event>
<event>
 6    0  0.1438923E+002  0.1596864E+03  0.7546771E-02  0.1189051E+00
         21   -1    0    0  503  501  0.00000000000E+00  0.00000000000E+00  0.85438807421E+03  0.85438807421E+03  0.00000000000E+00 0.  1.
         21   -1    0    0  505  502 -0.00000000000E+00 -0.00000000000E+00 -0.13130919154E+03  0.13130919154E+03  0.00000000000E+00 0.  1.
         21    1    1    2  503  504 -0.23139094017E+02  0.80483918653E+02  0.26315708478E+03  0.27616069616E+03  0.00000000000E+00 0.  1.
         21    1    1    2  504  506 -0.33220759088E+02  0.96753339317E+02  0.47013011536E+03  0.48113111817E+03  0.00000000000E+00 0.  1.
         21    1    1    2  505  501  0.27590605956E+02 -0.26067001602E+02  0.50333271784E+02  0.63041005370E+02  0.00000000000E+00 0. -1.
         21    1    1    2  506  502  0.28769247150E+02 -0.15117025637E+03 -0.60541589244E+02  0.16536444606E+03  0.00000000000E+00 0.  1.
<scales pt_clust_3="31.22870" pt_clust_4="31.22870" pt_clust_5="37.95695" pt_clust_6="155.91169"></scales>
<clustering>
<clus scale="   31.229">  3  4 -1 -1</clus>
<clus scale="   37.957">  1  5  2 -1</clus>
<clus scale="  155.912">  2  6  1 -1</clus>
<clus scale="   37.957">  1  3  2 -1</clus>
</clustering>
</event>
<event>
 6    0  0.1438923E+002  0.8008983E+02  0.7546771E-02  0.1328797E+00
         21   -1    0    0  504  501  0.00000000000E+00  0.00000000000E+00  0.47224817322E+03  0.47224817322E+03  0.00000000000E+00 0.  1.
         21   -1    0    0  503  502 -0.00000000000E+00 -0.00000000000E+00 -0.38785404774E+03  0.38785404774E+03  0.00000000000E+00 0.  1.
         21    1    1    2  503  501 -0.17766503820E+01  0.42082140124E+02  0.64045889926E+01  0.42603776408E+02  0.00000000000E+00 0.  1.
         21    1    1    2  504  505  0.39421438966E+02  0.45878513780E+02  0.20344463010E+03  0.21224656745E+03  0.00000000000E+00 0.  1.
         21    1    1    2  505  506  0.38947275773E+02 -0.11192677061E+03  0.22038187192E+03  0.25022522203E+03  0.00000000000E+00 0.  1.
         21    1    1    2  506  502 -0.76592064357E+02  0.23966116706E+02 -0.34583696554E+03  0.35502665506E+03  0.00000000000E+00 0.  1.
<scales pt_clust_3="42.11963" pt_clust_4="75.95135" pt_clust_5="80.08983" pt_clust_6="14000.00000"></scales>
<clustering>
<clus scale="   42.120">  1  3  2 -1</clus>
<clus scale="   75.951">  1  4  2 -1</clus>
<clus scale="   80.090">  1  5  2 -1</clus>
<clus scale="   42.120">  1  3  2 -1</clus>
</clustering>
</event>
<event>
 6    0  0.1438923E+002  0.1373090E+03  0.7546771E-02  0.1216997E+00
         21   -1    0    0  505  501  0.00000000000E+00  0.00000000000E+00  0.22561280605E+03  0.22561280605E+03  0.00000000000E+00 0. -1.
         21   -1    0    0  504  502 -0.00000000000E+00 -0.00000000000E+00 -0.20402762551E+03  0.20402762551E+03  0.00000000000E+00 0. -1.
         21    1    1    2  503  502  0.20779242848E+02  0.25751750342E+02 -0.42902790834E+02  0.54180984121E+02  0.00000000000E+00 0.  1.
         21    1    1    2  504  506 -0.73095752856E+02 -0.17535186934E+02 -0.15691109754E+02  0.76789861256E+02  0.00000000000E+00 0. -1.
         21    1    1    2  505  503  0.94750913426E+02 -0.11825096565E+03  0.96447657494E+02  0.17961953432E+03  0.00000000000E+00 0. -1.
         21    1    1    2  506  501 -0.42434403418E+02  0.11003440224E+03 -0.16268576367E+02  0.11905005186E+03  0.00000000000E+00 0. -1.
<scales pt_clust_3="33.08972" pt_clust_4="67.64111" pt_clust_5="14000.00000" pt_clust_6="137.30895"></scales>
<clustering>
<clus scale="   33.090">  2  3  1 -1</clus>
<clus scale="   67.641">  2  4  1 -1</clus>
<clus scale="  137.309">  2  6  1 -1</clus>
<clus scale="  137.309">  1  3  2 -1</clus>
</clustering>
</event>
<event>
 6    0  0.1438923E+002  0.1500205E+03  0.7546771E-02  0.1200448E+00
         21   -1    0    0  504  501  0.00000000000E+00  0.00000000000E+00  0.88567272636E+03  0.88567272636E+03  0.00000000000E+00 0.  1.
         21   -1    0    0  506  502 -0.00000000000E+00 -0.00000000000E+00 -0.47318627452E+03  0.47318627452E+03  0.00000000000E+00 0.  1.
         21    1    1    2  503  502  0.96294026843E+01 -0.44630698200E+02 -0.42045536947E+03  0.42292711231E+03  0.00000000000E+00 0.  1.
         21    1    1    2  504  505 -0.10453877032E+03  0.11855992869E+02  0.48298644632E+02  0.11576561726E+03  0.00000000000E+00 0.  1.
         21    1    1    2  505  503 -0.35155996358E+02 -0.25068600119E+02  0.30891661443E+02  0.53091181363E+02  0.00000000000E+00 0.  1.
         21    1    1    2  506  501  0.13006536399E+03  0.57843305450E+02  0.75375151523E+03  0.76707508994E+03  0.00000000000E+00 0.  1.
<scales pt_clust_3="45.65769" pt_clust_4="32.36490" pt_clust_5="32.36490" pt_clust_6="141.25807"></scales>
<clustering>
<clus scale="   32.365">  4  5 -1 -1</clus>
<clus scale="   45.658">  2  3  1 -1</clus>
<clus scale="  141.258">  1  6  2 -1</clus>
<clus scale="  141.258">  1  3  2 -1</clus>
</clustering>
</event>
<event>
 6    0  0.1438923E+002  0.1030720E+03  0.7546771E-02  0.1273966E+00
         21   -1    0    0  503  501  0.00000000000E+00  0.00000000000E+00  0.32976563168E+03  0.32976563168E+03  0.00000000000E+00 0.  1.
         21   -1    0    0  504  502 -0.00000000000E+00 -0.00000000000E+00 -0.14507570701E+04  0.14507570701E+04  0.00000000000E+00 0. -1.
         21    1    1    2  503  505 -0.11762806026E+02  0.60468412924E+02  0.13286843607E+03  0.14645413572E+03  0.00000000000E+00 0.  1.
         21    1    1    2  504  501 -0.42825048044E+01 -0.14469573315E+03  0.96490122312E+02  0.17396993632E+03  0.00000000000E+00 0.  1.
         21    1    1    2  505  506 -0.31842058390E+02  0.88658331343E+02  0.13706182161E+02  0.95194935939E+02  0.00000000000E+00 0.  1.
         21    1    1    2  506  502  0.47887369220E+02 -0.44310111140E+01 -0.13640561790E+04  0.13649036938E+04  0.00000000000E+00 0. -1.
<scales pt_clust_3="60.64849" pt_clust_4="103.07197" pt_clust_5="14000.00000" pt_clust_6="48.09193"></scales>
<clustering>
<clus scale="   48.092">  2  6  1 -1</clus>
<clus scale="   60.648">  1  3  2 -1</clus>
<clus scale="  103.072">  1  4  2 -1</clus>
<clus scale="   60.648">  1  3  2 -1</clus>
</clustering>
</event>
<event>
 6    0  0.1438923E+002  0.1174143E+03  0.7546771E-02  0.1247425E+00
         21   -1    0    0  503  501  0.00000000000E+00  0.00000000000E+00  0.54650795277E+03  0.54650795277E+03  0.00000000000E+00 0. -1.
         21   -1    0    0  504  502 -0.00000000000E+00 -0.00000000000E+00 -0.14576942272E+03  0.14576942272E+03  0.00000000000E+00 0.  1.
         21    1    1    2  503  506  0.13535499894E+02 -0.69668855215E+02  0.63612153207E+02  0.95307214732E+02  0.00000000000E+00 0. -1.
         21    1    1    2  504  505 -0.53713541909E+02  0.60726254306E+02 -0.81160974346E+02  0.11471672199E+03  0.00000000000E+00 0.  1.
         21    1    1    2  505  501 -0.40299375976E+02 -0.89451539545E+02  0.26813603217E+03  0.28552153926E+03  0.00000000000E+00 0. -1.
         21    1    1    2  506  502  0.80477417991E+02  0.98394140453E+02  0.15015131902E+03  0.19673189951E+03  0.00000000000E+00 0.  1.
<scales pt_clust_3="70.97154" pt_clust_4="78.88678" pt_clust_5="14000.00000" pt_clust_6="117.41431"></scales>
<clustering>
<clus scale="   70.972">  1  3  2 -1</clus>
<clus scale="   78.887">  2  4  1 -1</clus>
<clus scale="  117.414">  2  6  1 -1</clus>
<clus scale="   70.972">  1  3  2 -1</clus>
</clustering>
</event>
<event>
 6    0  0.1438923E+002  0.1819233E+03  0.7546771E-02  0.1165955E+00
         21   -1    0    0  504  501  0.00000000000E+00  0.00000000000E+00  0.24731771735E+03  0.24731771735E+03  0.00000000000E+00 0.  1.
         21   -1    0    0  501  502 -0.00000000000E+00 -0.00000000000E+00 -0.77920033297E+03  0.77920033297E+03  0.00000000000E+00 0.  1.
         21    1    1    2  503  505  0.41479045832E+02  0.36775193726E-01  0.38873394734E+02  0.56847633316E+02  0.00000000000E+00 0.  1.
         21    1    1    2  504  506  0.51005099087E+01 -0.50394894111E+02  0.88140840605E+02  0.10165858713E+03  0.00000000000E+00 0.  1.
         21    1    1    2  505  502 -0.99541758520E+02  0.11720054082E+03 -0.73669757991E+03  0.75257415096E+03  0.00000000000E+00 0.  1.
         21    1    1    2  506  503  0.52962202780E+02 -0.66842421906E+02  0.77800728947E+02  0.11543767892E+03  0.00000000000E+00 0.  1.
<scales pt_clust_3="36.15266" pt_clust_4="47.01195" pt_clust_5="153.76777" pt_clust_6="47.01195"></scales>
<clustering>
<clus scale="   36.153">  3  6 -1 -1</clus>
<clus scale="   47.012">  3  4 -1 -1</clus>
<clus scale="  153.768">  2  5  1 -1</clus>
<clus scale="  181.923">  1  3  2 -1</clus>
</clustering>
</event>
<event>
 6    0  0.1438923E+002  0.1598284E+03  0.7546771E-02  0.1188891E+00
         21   -1    0    0  505  501  0.00000000000E+00  0.00000000000E+00  0.19994374913E+03  0.19994374913E+03  0.00000000000E+00 0.  1.
         21   -1    0    0  503  502 -0.00000000000E+00 -0.00000000000E+00 -0.30740899725E+03  0.30740899725E+03  0.00000000000E+00 0.  1.
         21    1    1    2  503  506  0.37443635787E+02  0.40685524250E+02 -0.17428370243E+03  0.18284459707E+03  0.00000000000E+00 0.  1.
         21    1    1    2  504  501 -0.11817342386E+02  0.40551927990E+02  0.18733177036E+02  0.46206497017E+02  0.00000000000E+00 0.  1.
         21    1    1    2  505  502  0.53693852617E+02 -0.15117104979E+03  0.61291425224E+02  0.17173338321E+03  0.00000000000E+00 0.  1.
         21    1    1    2  506  504 -0.79320146018E+02  0.69933597553E+02 -0.13206147953E+02  0.10656826908E+03  0.00000000000E+00 0.  1.
<scales pt_clust_3="55.29320" pt_clust_4="33.42167" pt_clust_5="150.82651" pt_clust_6="33.42167"></scales>
<clustering>
<clus scale="   33.422">  4  6 -1 -1</clus>
<clus scale="   55.293">  2  3  1 -1</clus>
<clus scale="  150.827">  1  5  2 -1</clus>
<clus scale="  150.827">  1  3  2 -1</clus>
</clustering>
</event>
<event>
 6    0  0.1438923E+002  0.2782072E+03  0.7546771E-02  0.1096672E+00
         21   -1    0    0  503  501  0.00000000000E+00  0.00000000000E+00  0.28951731983E+03  0.28951731983E+03  0.00000000000E+00 0. -1.
         21   -1    0    0  506  502 -0.00000000000E+00 -0.00000000000E+00 -0.82224215437E+03  0.82224215437E+03  0.00000000000E+00 0. -1.
         21    1    1    2  503  502  0.15417865253E+03 -0.28217519575E+03 -0.31173765362E+03  0.44785518047E+03  0.00000000000E+00 0. -1.
         21    1    1    2  504  505  0.86327964637E+01  0.19363969909E+03  0.56044118479E+02  0.20177165672E+03  0.00000000000E+00 0. -1.
         21    1    1    2  505  501  0.42211722948E+02  0.74855690653E+02  0.31424612091E+02  0.91502514842E+02  0.00000000000E+00 0. -1.
         21    1    1    2  506  504 -0.20502317194E+03  0.13679806005E+02 -0.30845591148E+03  0.37063012216E+03  0.00000000000E+00 0. -1.
<scales pt_clust_3="271.50550" pt_clust_4="40.41466" pt_clust_5="40.41466" pt_clust_6="205.47905"></scales>
<clustering>
<clus scale="   40.415">  4  5 -1 -1</clus>
<clus scale="  205.479">  2  6  1 -1</clus>
<clus scale="  271.506">  2  3  1 -1</clus>
<clus scale="  278.207">  1  3  2 -1</clus>
</clustering>
</event>
<event>
 6    0  0.1438923E+002  0.1692337E+03  0.7546771E-02  0.1178649E+00
         21   -1    0    0  506  501  0.00000000000E+00  0.00000000000E+00  0.96833775298E+02  0.96833775298E+02  0.00000000000E+00 0. -1.
         21   -1    0    0  503  502 -0.00000000000E+00 -0.00000000000E+00 -0.49768012839E+03  0.49768012839E+03  0.00000000000E+00 0. -1.
         21    1    1    2  503  504 -0.18855880954E+02  0.51298902914E+02 -0.18217937237E+03  0.19020106572E+03  0.00000000000E+00 0. -1.
         21    1    1    2  504  501 -0.15913654398E+02 -0.19069761817E+03 -0.10598126061E+03  0.21874837959E+03  0.00000000000E+00 0. -1.
         21    1    1    2  505  502  0.25034854711E+02  0.64775025688E+02 -0.71925372130E+02  0.99979033099E+02  0.00000000000E+00 0. -1.
         21    1    1    2  506  505  0.97346806408E+01  0.74623689566E+02 -0.40760347978E+02  0.85585425272E+02  0.00000000000E+00 0. -1.
<scales pt_clust_3="54.65457" pt_clust_4="165.96649" pt_clust_5="31.78998" pt_clust_6="31.78998"></scales>
<clustering>
<clus scale="   31.790">  5  6 -1 -1</clus>
<clus scale="   54.655">  2  3  1 -1</clus>
<clus scale="  165.966">  2  4  1 -1</clus>
<clus scale="  169.234">  1  3  2 -1</clus>
</clustering>
</event>
<event>
 6    0  0.1438923E+002  0.1721255E+03  0.7546771E-02  0.1175649E+00
         21   -1    0    0  505  501  0.00000000000E+00  0.00000000000E+00  0.20623418995E+03  0.20623418995E+03  0.00000000000E+00 0. -1.
         21   -1    0    0  503  502 -0.00000000000E+00 -0.00000000000E+00 -0.46289866750E+03  0.46289866750E+03  0.00000000000E+00 0. -1.
         21    1    1    2  503  506  0.29781088471E+02  0.11615442309E+02 -0.88144760146E+02  0.93762095069E+02  0.00000000000E+00 0. -1.
         21    1    1    2  504  501 -0.86971728660E+02 -0.64939483408E+02  0.72111365471E+02  0.13031219099E+03  0.00000000000E+00 0. -1.
         21    1    1    2  505  502  0.49665976689E+01 -0.12559557492E+03  0.17250876296E+02  0.12687201530E+03  0.00000000000E+00 0. -1.
         21    1    1    2  506  504  0.52224042521E+02  0.17891961602E+03 -0.25788195917E+03  0.31818655609E+03  0.00000000000E+00 0. -1.
<scales pt_clust_3="31.96610" pt_clust_4="106.13270" pt_clust_5="172.12553" pt_clust_6="14000.00000"></scales>
<clustering>
<clus scale="   31.966">  2  3  1 -1</clus>
<clus scale="  106.133">  1  4  2 -1</clus>
<clus scale="  172.126">  1  5  2 -1</clus>
<clus scale="  106.133">  1  3  2 -1</clus>
</clustering>
</event>
<event>
 6    0  0.1438923E+002  0.1444539E+03  0.7546771E-02  0.1207459E+00
         21   -1    0    0  505  501  0.00000000000E+00  0.00000000000E+00  0.92091305431E+03  0.92091305431E+03  0.00000000000E+00 0.  1.
         21   -1    0    0  504  502 -0.00000000000E+00 -0.00000000000E+00 -0.10251219376E+03  0.10251219376E+03  0.00000000000E+00 0.  1.
         21    1    1    2  503  506  0.44940964280E+02  0.17878222837E+02  0.42702923018E+02  0.64520235248E+02  0.00000000000E+00 0.  1.
         21    1    1    2  504  503  0.42276359323E+02  0.74973938545E+02  0.58847431433E+02  0.10426601654E+03  0.00000000000E+00 0.  1.
         21    1    1    2  505  502 -0.14242182934E+03  0.46863092408E+02  0.31746379491E+02  0.15325782040E+03  0.00000000000E+00 0.  1.
         21    1    1    2  506  501  0.55204505735E+02 -0.13971525379E+03  0.68510412661E+03  0.70138117589E+03  0.00000000000E+00 0.  1.
<scales pt_clust_3="33.08486" pt_clust_4="134.81960" pt_clust_5="144.45386" pt_clust_6="14000.00000"></scales>
<clustering>
<clus scale="   33.085">  3  4 -1 -1</clus>
<clus scale="  134.820">  2  3  1 -1</clus>
<clus scale="  144.454">  2  5  1 -1</clus>
<clus scale="  144.454">  1  3  2 -1</clus>
</clustering>
</event>
<event>
 6    0  0.1438923E+002  0.1421963E+03  0.7546771E-02  0.1210404E+00
         21   -1    0    0  504  501  0.00000000000E+00  0.00000000000E+00  0.11687593755E+03  0.11687593755E+03  0.00000000000E+00 0. -1.
         21   -1    0    0  505  502 -0.00000000000E+00 -0.00000000000E+00 -0.91056214370E+03  0.91056214370E+03  0.00000000000E+00 0. -1.
         21    1    1    2  503  502 -0.96825772461E+02 -0.75002864292E+02 -0.73452467545E+03  0.74466580337E+03  0.00000000000E+00 0. -1.
         21    1    1    2  504  503  0.66239962078E+02 -0.75975724244E+02 -0.49275285440E+02  0.11219668892E+03  0.00000000000E+00 0.  1.
         21    1    1    2  505  506 -0.11115009825E+02  0.87716635123E+02  0.17265504902E+02  0.90088007971E+02  0.00000000000E+00 0. -1.
         21    1    1    2  506  501  0.41700820208E+02  0.63261953413E+02 -0.27151750166E+02  0.80487580984E+02  0.00000000000E+00 0. -1.
<scales pt_clust_3="122.27647" pt_clust_4="100.79704" pt_clust_5="67.19098" pt_clust_6="67.19098"></scales>
<clustering>
<clus scale="   67.191">  5  6 -1 -1</clus>
<clus scale="  100.797">  1  4  2 -1</clus>
<clus scale="  122.276">  2  3  1 -1</clus>
<clus scale="  100.797">  1  3  2 -1</clus>
</clustering>
</event>
<event>
 6    0  0.1438923E+002  0.6667193E+02  0.7546771E-02  0.1371791E+00
         21   -1    0    0  505  501  0.00000000000E+00  0.00000000000E+00  0.16454224206E+03  0.16454224206E+03  0.00000000000E+00 0.  1.
         21   -1    0    0  501  502 -0.00000000000E+00 -0.00000000000E+00 -0.19736093188E+04  0.19736093188E+04  0.00000000000E+00 0. -1.
         21    1    1    2  503  506  0.54075738195E+02  0.34318430001E+02 -0.47756693293E+02  0.79891437922E+02  0.00000000000E+00 0.  1.
         21    1    1    2  504  503 -0.46887029132E+02 -0.57088496295E+02 -0.64221126488E+02  0.97886888792E+02  0.00000000000E+00 0. -1.
         21    1    1    2  505  504 -0.19967032684E+02  0.66280635067E+02  0.12223980541E+03  0.14047909099E+03  0.00000000000E+00 0.  1.
         21    1    1    2  506  502  0.12778323621E+02 -0.43510568773E+02 -0.18193290624E+04  0.18198941432E+04  0.00000000000E+00 0. -1.
<scales pt_clust_3="61.56474" pt_clust_4="66.67193" pt_clust_5="14000.00000" pt_clust_6="45.34815"></scales>
<clustering>
<clus scale="   45.348">  2  6  1 -1</clus>
<clus scale="   61.565">  2  3  1 -1</clus>
<clus scale="   66.672">  2  4  1 -1</clus>
<clus scale="   66.672">  1  3  2 -1</clus>
</clustering>
</event>
<event>
 6    0  0.1438923E+002  0.1148984E+03  0.7546771E-02  0.1251759E+00
         21   -1    0    0  506  501  0.00000000000E+00  0.00000000000E+00  0.74544103064E+03  0.74544103064E+03  0.00000000000E+00 0.  1.
         21   -1    0    0  504  502 -0.00000000000E+00 -0.00000000000E+00 -0.80351722909E+02  0.80351722909E+02  0.00000000000E+00 0.  1.
         21    1    1    2  503  501 -0.48165918878E+02  0.20021353370E+02  0.24762915605E+03  0.25306325150E+03  0.00000000000E+00 0.  1.
         21    1    1    2  504  505  0.10019464302E+03 -0.23229010440E+02 -0.28291966492E+02  0.10667234311E+03  0.00000000000E+00 0.  1.
         21    1    1    2  505  503 -0.89682714363E+02 -0.19556189584E+02  0.31491102066E+03  0.32801583001E+03  0.00000000000E+00 0. -1.
         21    1    1    2  506  502  0.37653990218E+02  0.22763846654E+02  0.13084109751E+03  0.13804132893E+03  0.00000000000E+00 0.  1.
<scales pt_clust_3="35.34987" pt_clust_4="104.89356" pt_clust_5="35.34987" pt_clust_6="44.00018"></scales>
<clustering>
<clus scale="   35.350">  3  5 -1 -1</clus>
<clus scale="   44.000">  1  6  2 -1</clus>
<clus scale="  104.894">  2  4  1 -1</clus>
<clus scale="   44.000">  1  3  2 -1</clus>
</clustering>
</event>
<event>
 6    0  0.1438923E+002  0.1640115E+03  0.7546771E-02  0.1184241E+00
         21   -1    0    0  504  501  0.00000000000E+00  0.00000000000E+00  0.14469403232E+03  0.14469403232E+03  0.00000000000E+00 0. -1.
         21   -1    0    0  506  502 -0.00000000000E+00 -0.00000000000E+00 -0.28739321028E+03  0.28739321028E+03  0.00000000000E+00 0.  1.
         21    1    1    2  503  505 -0.56825897296E+02 -0.78128011651E+02 -0.47871439446E+02  0.10781856762E+03  0.00000000000E+00 0.  1.
         21    1    1    2  504  503  0.67550988503E+01 -0.43890880756E+02 -0.29481277844E+02  0.53302781516E+02  0.00000000000E+00 0.  1.
         21    1    1    2  505  502 -0.26184309330E+02 -0.31141982359E+02 -0.89367902159E+02  0.98194007234E+02  0.00000000000E+00 0.  1.
         21    1    1    2  506  501  0.76255107776E+02  0.15316087477E+03  0.24021441496E+02  0.17277188623E+03  0.00000000000E+00 0. -1.
<scales pt_clust_3="34.44384" pt_clust_4="34.44384" pt_clust_5="40.68711" pt_clust_6="155.94489"></scales>
<clustering>
<clus scale="   34.444">  3  4 -1 -1</clus>
<clus scale="   40.687">  2  5  1 -1</clus>
<clus scale="  155.945">  1  6  2 -1</clus>
<clus scale="  155.945">  1  3  2 -1</clus>
</clustering>
</event>
<event>
 6    0  0.1438923E+002  0.1165469E+03  0.7546771E-02  0.1248905E+00
         21   -1    0    0  504  501  0.00000000000E+00  0.00000000000E+00  0.98377814731E+03  0.98377814731E+03  0.00000000000E+00 0.  1.
         21   -1    0    0  505  502 -0.00000000000E+00 -0.00000000000E+00 -0.23476450801E+03  0.23476450801E+03  0.00000000000E+00 0.  1.
         21    1    1    2  503  502 -0.13982024214E+02  0.97851959943E+02  0.47024565106E+03  0.48052208629E+03  0.00000000000E+00 0. -1.
         21    1    1    2  504  506  0.31711296042E+02 -0.14901249007E+02  0.64487664262E+02  0.73391500602E+02  0.00000000000E+00 0. -1.
         21    1    1    2  505  501  0.50527681202E+02 -0.10582244067E+03 -0.20664113289E+03  0.23759628221E+03  0.00000000000E+00 0.  1.
         21    1    1    2  506  503 -0.68256953030E+02  0.22871729730E+02  0.42092145687E+03  0.42703278622E+03  0.00000000000E+00 0.  1.
<scales pt_clust_3="116.54693" pt_clust_4="35.03789" pt_clust_5="14000.00000" pt_clust_6="55.88951"></scales>
<clustering>
<clus scale="   35.038">  1  4  2 -1</clus>
<clus scale="   55.890">  1  6  2 -1</clus>
<clus scale="  116.547">  1  3  2 -1</clus>
<clus scale="   35.038">  1  3  2 -1</clus>
</clustering>
</event>
<event>
 6    0  0.1438923E+002  0.9959052E+02  0.7546771E-02  0.1281159E+00
         21   -1    0    0  504  501  0.00000000000E+00  0.00000000000E+00  0.36908520509E+02  0.36908520509E+02  0.00000000000E+00 0. -1.
         21   -1    0    0  503  502 -0.00000000000E+00 -0.00000000000E+00 -0.14013836968E+04  0.14013836968E+04  0.00000000000E+00 0. -1.
         21    1    1    2  503  501 -0.34399610828E+02 -0.10598359254E+02 -0.69568250988E+02  0.78328794128E+02  0.00000000000E+00 0.  1.
         21    1    1    2  504  505  0.53446290092E+02 -0.95938731389E+01 -0.26124325351E+02  0.60258017736E+02  0.00000000000E+00 0. -1.
         21    1    1    2  505  506  0.70905296988E+02  0.11782020331E+02 -0.80206878270E+02  0.10770106994E+03  0.00000000000E+00 0. -1.
         21    1    1    2  506  502 -0.89951976251E+02  0.84102120623E+01 -0.11885757217E+04  0.11920043355E+04  0.00000000000E+00 0. -1.
<scales pt_clust_3="35.99526" pt_clust_4="32.93490" pt_clust_5="32.93490" pt_clust_6="92.10020"></scales>
<clustering>
<clus scale="   32.935">  4  5 -1 -1</clus>
<clus scale="   35.995">  1  3  2 -1</clus>
<clus scale="   92.100">  2  6  1 -1</clus>
<clus scale="   35.995">  1  3  2 -1</clus>
</clustering>
</event>
<event>
 6    0  0.1438923E+002  0.1324303E+03  0.7546771E-02  0.1223893E+00
         21   -1    0    0  506  501  0.00000000000E+00  0.00000000000E+00  0.12244307164E+03  0.12244307164E+03  0.00000000000E+00 0. -1.
         21   -1    0    0  505  502 -0.00000000000E+00 -0.00000000000E+00 -0.36238908253E+03  0.36238908253E+03  0.00000000000E+00 0. -1.
         21    1    1    2  503  504  0.14744377220E+03  0.31026072711E+02 -0.53555877561E+01  0.15076791923E+03  0.00000000000E+00 0. -1.
         21    1    1    2  504  502 -0.11634633840E+03 -0.96578090346E+01 -0.21607425265E+03  0.24559687781E+03  0.00000000000E+00 0. -1.
         21    1    1    2  505  501 -0.17754287317E+02  0.25669295726E+02 -0.23854762336E+02  0.39283293489E+02  0.00000000000E+00 0. -1.
         21    1    1    2  506  503 -0.13343146479E+02 -0.47037559402E+02  0.53385918451E+01  0.49184063632E+02  0.00000000000E+00 0. -1.
<scales pt_clust_3="132.43032" pt_clust_4="14000.00000" pt_clust_5="31.21102" pt_clust_6="47.60484"></scales>
<clustering>
<clus scale="   31.211">  2  5  1 -1</clus>
<clus scale="   47.605">  1  6  2 -1</clus>
<clus scale="  132.430">  1  3  2 -1</clus>
<clus scale="   47.605">  1  3  2 -1</clus>
</clustering>
</event>
<event>
 6    0  0.1438923E+002  0.7083062E+02  0.7546771E-02  0.1357291E+00
         21   -1    0    0  505  501  0.00000000000E+00  0.00000000000E+00  0.44107910716E+03  0.44107910716E+03  0.00000000000E+00 0. -1.
         21   -1    0    0  504  502 -0.00000000000E+00 -0.00000000000E+00 -0.12846835489E+03  0.12846835489E+03  0.00000000000E+00 0. -1.
         21    1    1    2  503  506  0.24714646389E+02 -0.48476778462E+02  0.52609694948E+02  0.75687461305E+02  0.00000000000E+00 0. -1.
         21    1    1    2  504  503  0.54238024138E+02  0.41969257132E+02 -0.80633955477E+02  0.10585375091E+03  0.00000000000E+00 0. -1.
         21    1    1    2  505  502 -0.90101148274E+02  0.48613027506E+02  0.98790947240E+02  0.14227120095E+03  0.00000000000E+00 0. -1.
         21    1    1    2  506  501  0.11148477748E+02 -0.42105506176E+02  0.24184406556E+03  0.24573504889E+03  0.00000000000E+00 0. -1.
<scales pt_clust_3="14000.00000" pt_clust_4="67.54504" pt_clust_5="70.83062" pt_clust_6="43.55643"></scales>
<clustering>
<clus scale="   43.556">  1  6  2 -1</clus>
<clus scale="   67.545">  2  4  1 -1</clus>
<clus scale="   70.831">  1  5  2 -1</clus>
<clus scale="   43.556">  1  3  2 -1</clus>
</clustering>
</event>
<event>
 6    0  0.1438923E+002  0.1170914E+03  0.7546771E-02  0.1247974E+00
         21   -1    0    0  504  501  0.00000000000E+00  0.00000000000E+00  0.17131293461E+03  0.17131293461E+03  0.00000000000E+00 0.  1.
         21   -1    0    0  505  502 -0.00000000000E+00 -0.00000000000E+00 -0.52977282639E+03  0.52977282639E+03  0.00000000000E+00 0.  1.
         21    1    1    2  503  506 -0.15791797006E+02  0.55679970289E+02  0.63789719637E+01  0.58226550880E+02  0.00000000000E+00 0.  1.
         21    1    1    2  504  502  0.60892330221E+02  0.27173677898E+02  0.22646923460E+02  0.70421358922E+02  0.00000000000E+00 0.  1.
         21    1    1    2  505  503 -0.33494945454E+02 -0.13348624595E+03 -0.46174224232E+03  0.48181571952E+03  0.00000000000E+00 0.  1.
         21    1    1    2  506  501 -0.11605587760E+02  0.50632597766E+02  0.74256455119E+02  0.90622131682E+02  0.00000000000E+00 0.  1.
<scales pt_clust_3="14000.00000" pt_clust_4="76.72561" pt_clust_5="117.09138" pt_clust_6="51.94564"></scales>
<clustering>
<clus scale="   51.946">  1  6  2 -1</clus>
<clus scale="   76.726">  1  4  2 -1</clus>
<clus scale="  117.091">  2  5  1 -1</clus>
<clus scale="   51.946">  1  3  2 -1</clus>
</clustering>
</event>
<event>
 6    0  0.1565533E+002  0.1034560E+03  0.7546771E-02  0.1273192E+00
         21   -1    0    0  504  501  0.00000000000E+00  0.00000000000E+00  0.30591821631E+03  0.30591821631E+03  0.00000000000E+00 0. -1.
         21   -1    0    0  503  502 -0.00000000000E+00 -0.00000000000E+00 -0.17542570033E+04  0.17542570033E+04  0.00000000000E+00 0.  1.
         21    1    1    2  503  506  0.46357301131E+01 -0.11584570046E+03 -0.21543321661E+03  0.24464911022E+03  0.00000000000E+00 0. -1.
         21    1    1    2  504  505  0.43753354944E+01  0.78643680894E+02  0.24128201694E+03  0.25381289133E+03  0.00000000000E+00 0. -1.
         21    1    1    2  505  502 -0.28786027062E+02  0.14238103910E+02 -0.15125130276E+04  0.15128539314E+04  0.00000000000E+00 0.  1.
         21    1    1    2  506  501  0.19774961455E+02  0.22963915654E+02  0.38325440292E+02  0.48859286694E+02  0.00000000000E+00 0. -1.
<scales pt_clust_3="14000.00000" pt_clust_4="103.45605" pt_clust_5="32.10988" pt_clust_6="30.30496"></scales>
<clustering>
<clus scale="   30.305">  1  6  2 -1</clus>
<clus scale="   32.110">  2  5  1 -1</clus>
<clus scale="  103.456">  1  4  2 -1</clus>
<clus scale="   30.305">  1  3  2 -1</clus>
</clustering>
</event>
<event>
 6    0  0.1438923E+002  0.1829546E+03  0.7546771E-02  0.1164974E+00
         21   -1    0    0  503  501  0.00000000000E+00  0.00000000000E+00  0.13999680650E+04  0.13999680650E+04  0.00000000000E+00 0. -1.
         21   -1    0    0  506  502 -0.00000000000E+00 -0.00000000000E+00 -0.29734495755E+02  0.29734495755E+02  0.00000000000E+00 0.  1.
         21    1    1    2  503  502  0.70414839195E+02 -0.14232504352E+03  0.26120181458E+03  0.30568129732E+03  0.00000000000E+00 0.  1.
         21    1    1    2  504  501 -0.23005019642E+02  0.38186831590E+02  0.52344849831E+03  0.52534350231E+03  0.00000000000E+00 0. -1.
         21    1    1    2  505  504 -0.48243708277E+02  0.46914083741E+02  0.31908821262E+03  0.32610684457E+03  0.00000000000E+00 0. -1.
         21    1    1    2  506  505  0.83388872357E+00  0.57224128187E+02  0.26649504372E+03  0.27257091655E+03  0.00000000000E+00 0. -1.
<scales pt_clust_3="158.79127" pt_clust_4="42.92323" pt_clust_5="47.39963" pt_clust_6="47.39963"></scales>
<clustering>
<clus scale="   42.923">  4  5 -1 -1</clus>
<clus scale="   47.400">  4  6 -1 -1</clus>
<clus scale="  158.791">  2  3  1 -1</clus>
<clus scale="  182.955">  1  3  2 -1</clus>
</clustering>
</event>
<event>
 6    0  0.1438923E+002  0.1809988E+03  0.7546771E-02  0.1166840E+00
         21   -1    0    0  503  501  0.00000000000E+00  0.00000000000E+00  0.15352153109E+03  0.15352153109E+03  0.00000000000E+00 0. -1.
         21   -1    0    0  506  502 -0.00000000000E+00 -0.00000000000E+00 -0.95283468985E+03  0.95283468985E+03  0.00000000000E+00 0. -1.
         21    1    1    2  503  502  0.21734715147E+02 -0.23048043313E+02 -0.44640413641E+02  0.54739169460E+02  0.00000000000E+00 0.  1.
         21    1    1    2  504  501  0.27565218580E+02 -0.66731798684E+02  0.46037450725E+02  0.85629557398E+02  0.00000000000E+00 0. -1.
         21    1    1    2  505  504 -0.83875394728E+01 -0.10490825495E+03  0.31875288691E+02  0.10996420692E+03  0.00000000000E+00 0. -1.
         21    1    1    2  506  505 -0.40912394254E+02  0.19468809695E+03 -0.83258548454E+03  0.85602328716E+03  0.00000000000E+00 0. -1.
<scales pt_clust_3="31.67981" pt_clust_4="40.22851" pt_clust_5="40.22851" pt_clust_6="174.36207"></scales>
<clustering>
<clus scale="   31.680">  2  3  1 -1</clus>
<clus scale="   40.229">  4  5 -1 -1</clus>
<clus scale="  174.362">  2  6  1 -1</clus>
<clus scale="  180.999">  1  3  2 -1</clus>
</clustering>
</event>
<event>
 6    0  0.1438923E+002  0.2184245E+03  0.7546771E-02  0.1135063E+00
         21   -1    0    0  506  501  0.00000000000E+00  0.00000000000E+00  0.10807346203E+03  0.10807346203E+03  0.00000000000E+00 0.  1.
         21   -1    0    0  504  502 -0.00000000000E+00 -0.00000000000E+00 -0.14252275901E+04  0.14252275901E+04  0.00000000000E+00 0. -1.
         21    1    1    2  503  505  0.62290421574E+02  0.10511237345E+03 -0.45179735902E+02  0.13026863095E+03  0.00000000000E+00 0.  1.
         21    1    1    2  504  503 -0.18570948853E+03 -0.11987722860E+03 -0.37221307111E+03  0.43289852665E+03  0.00000000000E+00 0. -1.
         21    1    1    2  505  501  0.87893097943E+02  0.15238748390E+02 -0.22294594384E+02  0.91948165057E+02  0.00000000000E+00 0.  1.
         21    1    1    2  506  502  0.35525969008E+02 -0.47389323810E+00 -0.87746672667E+03  0.87818572948E+03  0.00000000000E+00 0. -1.
<scales pt_clust_3="76.02354" pt_clust_4="199.80302" pt_clust_5="76.02354" pt_clust_6="35.52913"></scales>
<clustering>
<clus scale="   35.529">  2  6  1 -1</clus>
<clus scale="   76.024">  3  5 -1 -1</clus>
<clus scale="  199.803">  2  4  1 -1</clus>
<clus scale="  218.425">  1  3  2 -1</clus>
</clustering>
</event>
<event>
 6    0  0.1438923E+002  0.9874067E+02  0.7546771E-02  0.1282967E+00
         21   -1    0    0  506  501  0.00000000000E+00  0.00000000000E+00  0.15850602239E+03  0.15850602239E+03  0.00000000000E+00 0. -1.
         21   -1    0    0  505  502 -0.00000000000E+00 -0.00000000000E+00 -0.89065113806E+03  0.89065113806E+03  0.00000000000E+00 0. -1.
         21    1    1    2  503  501 -0.17296184376E+02 -0.11521143489E+03  0.26810137775E+02  0.11954754791E+03  0.00000000000E+00 0. -1.
         21    1    1    2  504  502  0.23406855305E+01 -0.48826489776E+02 -0.85040505125E+02  0.98088696721E+02  0.00000000000E+00 0. -1.
         21    1    1    2  505  503  0.90813723981E+02  0.89762160500E+02 -0.70846030083E+03  0.71987525015E+03  0.00000000000E+00 0. -1.
         21    1    1    2  506  504 -0.75858225136E+02  0.74275764169E+02  0.34545552510E+02  0.11164566567E+03  0.00000000000E+00 0. -1.
<scales pt_clust_3="98.74067" pt_clust_4="48.88256" pt_clust_5="103.72525" pt_clust_6="14000.00000"></scales>
<clustering>
<clus scale="   48.883">  2  4  1 -1</clus>
<clus scale="  103.725">  2  5  1 -1</clus>
<clus scale="   98.741">  2  3  1 -1</clus>
<clus scale="   98.741">  1  3  2 -1</clus>
</clustering>
</event>
<event>
 6    0  0.1438923E+002  0.1082012E+03  0.7546771E-02  0.1263938E+00
         21   -1    0    0  504  501  0.00000000000E+00  0.00000000000E+00  0.71411009808E+02  0.71411009808E+02  0.00000000000E+00 0. -1.
         21   -1    0    0  506  502 -0.00000000000E+00 -0.00000000000E+00 -0.31529366958E+03  0.31529366958E+03  0.00000000000E+00 0. -1.
         21    1    1    2  503  501 -0.42244911340E+02 -0.93598691003E+01 -0.28105283815E+01  0.43360566803E+02  0.00000000000E+00 0. -1.
         21    1    1    2  504  505  0.62438656268E+02 -0.66659270735E+02 -0.48254048140E+02  0.10329809937E+03  0.00000000000E+00 0. -1.
         21    1    1    2  505  502  0.44047198783E+02  0.45954772699E+02 -0.13226615865E+03  0.14678669415E+03  0.00000000000E+00 0. -1.
         21    1    1    2  506  503 -0.64240943711E+02  0.30064367137E+02 -0.60551924600E+02  0.93259319067E+02  0.00000000000E+00 0. -1.
<scales pt_clust_3="41.93242" pt_clust_4="93.94264" pt_clust_5="63.65530" pt_clust_6="41.93242"></scales>
<clustering>
<clus scale="   41.932">  3  6 -1 -1</clus>
<clus scale="   63.655">  2  5  1 -1</clus>
<clus scale="   93.943">  1  4  2 -1</clus>
<clus scale="   93.943">  1  3  2 -1</clus>
</clustering>
</event>
<event>
 6    0  0.1438923E+002  0.1314353E+03  0.7546771E-02  0.1225341E+00
         21   -1    0    0  506  501  0.00000000000E+00  0.00000000000E+00  0.32262076899E+03  0.32262076899E+03  0.00000000000E+00 0. -1.
         21   -1    0    0  505  502 -0.00000000000E+00 -0.00000000000E+00 -0.10061461286E+04  0.10061461286E+04  0.00000000000E+00 0.  1.
         21    1    1    2  503  502  0.22769066047E+01  0.12660528890E+03 -0.98430602201E+03  0.99241746682E+03  0.00000000000E+00 0.  1.
         21    1    1    2  504  503  0.15358401999E+02 -0.39602775307E+02  0.11463270091E+03  0.12224940263E+03  0.00000000000E+00 0. -1.
         21    1    1    2  505  501  0.44021537927E+01 -0.43882901145E+02  0.37923613479E+02  0.58166041900E+02  0.00000000000E+00 0. -1.
         21    1    1    2  506  504 -0.22037462397E+02 -0.43119612444E+02  0.14822434800E+03  0.15593398625E+03  0.00000000000E+00 0. -1.
<scales pt_clust_3="125.97887" pt_clust_4="35.10044" pt_clust_5="44.10315" pt_clust_6="35.10044"></scales>
<clustering>
<clus scale="   35.100">  4  6 -1 -1</clus>
<clus scale="   44.103">  1  5  2 -1</clus>
<clus scale="  125.979">  2  3  1 -1</clus>
<clus scale="   44.103">  1  3  2 -1</clus>
</clustering>
</event>
<event>
 6    0  0.1438923E+002  0.1502965E+03  0.7546771E-02  0.1200109E+00
         21   -1    0    0  504  501  0.00000000000E+00  0.00000000000E+00  0.13823866528E+03  0.13823866528E+03  0.00000000000E+00 0. -1.
         21   -1    0    0  506  502 -0.00000000000E+00 -0.00000000000E+00 -0.30012743694E+03  0.30012743694E+03  0.00000000000E+00 0. -1.
         21    1    1    2  503  501  0.18624808739E+02  0.72510536635E+02  0.25714774902E+02  0.79157507995E+02  0.00000000000E+00 0. -1.
         21    1    1    2  504  505 -0.71716291900E+02 -0.37597069153E+02 -0.40859870205E+02  0.90698925715E+02  0.00000000000E+00 0. -1.
         21    1    1    2  505  502 -0.71497517112E+02 -0.61529288758E+02 -0.84830579607E+02  0.12686203358E+03  0.00000000000E+00 0. -1.
         21    1    1    2  506  503  0.12458900027E+03  0.26615821276E+02 -0.61913096757E+02  0.14164763493E+03  0.00000000000E+00 0. -1.
<scales pt_clust_3="74.86429" pt_clust_4="32.07471" pt_clust_5="32.07471" pt_clust_6="146.25525"></scales>
<clustering>
<clus scale="   32.075">  4  5 -1 -1</clus>
<clus scale="   74.864">  1  3  2 -1</clus>
<clus scale="  146.255">  2  6  1 -1</clus>
<clus scale="   74.864">  1  3  2 -1</clus>
</clustering>
</event>
<event>
 6    0  0.1438923E+002  0.2046320E+03  0.7546771E-02  0.1145889E+00
         21   -1    0    0  506  501  0.00000000000E+00  0.00000000000E+00  0.30435131978E+03  0.30435131978E+03  0.00000000000E+00 0.  1.
         21   -1    0    0  505  502 -0.00000000000E+00 -0.00000000000E+00 -0.57393818061E+03  0.57393818061E+03  0.00000000000E+00 0.  1.
         21    1    1    2  503  502 -0.44801852672E+02 -0.32940561953E+02 -0.35461403334E+03  0.35894762747E+03  0.00000000000E+00 0.  1.
         21    1    1    2  504  501  0.23170364109E+02 -0.94533873666E+02  0.12910635817E+03  0.16168478828E+03  0.00000000000E+00 0.  1.
         21    1    1    2  505  504 -0.54504698959E+02 -0.77694997736E+02  0.63111135612E+02  0.11397495479E+03  0.00000000000E+00 0.  1.
         21    1    1    2  506  503  0.76136187521E+02  0.20516943335E+03 -0.10719032127E+03  0.24368212985E+03  0.00000000000E+00 0.  1.
<scales pt_clust_3="55.60833" pt_clust_4="90.67698" pt_clust_5="90.67698" pt_clust_6="182.97034"></scales>
<clustering>
<clus scale="   55.608">  2  3  1 -1</clus>
<clus scale="   90.677">  4  5 -1 -1</clus>
<clus scale="  182.970">  2  6  1 -1</clus>
<clus scale="  204.632">  1  3  2 -1</clus>
</clustering>
</event>
<event>
 6    0  0.1438923E+002  0.7538393E+02  0.7546771E-02  0.1342686E+00
         21   -1    0    0  505  501  0.00000000000E+00  0.00000000000E+00  0.12951266981E+03  0.12951266981E+03  0.00000000000E+00 0.  1.
         21   -1    0    0  506  502 -0.00000000000E+00 -0.00000000000E+00 -0.33046399121E+03  0.33046399121E+03  0.00000000000E+00 0.  1.
         21    1    1    2  503  502  0.50436111004E+02  0.51840047393E+02 -0.19449184118E+03  0.20750486282E+03  0.00000000000E+00 0.  1.
         21    1    1    2  504  501 -0.80710303472E+02 -0.42563778549E+02 -0.86618082768E+01  0.91656179571E+02  0.00000000000E+00 0.  1.
         21    1    1    2  505  503  0.28836175403E+02  0.68083568153E+02  0.28285626134E+02  0.79164221149E+02  0.00000000000E+00 0.  1.
         21    1    1    2  506  504  0.14380170656E+01 -0.77359836997E+02 -0.26083298071E+02  0.81651397487E+02  0.00000000000E+00 0. -1.
<scales pt_clust_3="72.32698" pt_clust_4="75.38393" pt_clust_5="14000.00000" pt_clust_6="60.12804"></scales>
<clustering>
<clus scale="   72.327">  2  3  1 -1</clus>
<clus scale="   60.128">  2  6  1 -1</clus>
<clus scale="   75.384">  2  4  1 -1</clus>
<clus scale="   75.384">  1  3  2 -1</clus>
</clustering>
</event>
<event>
 6    0  0.1438923E+002  0.3105508E+03  0.7546771E-02  0.1080082E+00
         21   -1    0    0  505  501  0.00000000000E+00  0.00000000000E+00  0.12108548798E+03  0.12108548798E+03  0.00000000000E+00 0. -1.
         21   -1    0    0  503  502 -0.00000000000E+00 -0.00000000000E+00 -0.12069478304E+04  0.12069478304E+04  0.00000000000E+00 0. -1.
         21    1    1    2  503  501 -0.11169405320E+02 -0.47459291424E+02  0.23091123285E+01  0.48810572189E+02  0.00000000000E+00 0.  1.
         21    1    1    2  504  502 -0.78788226249E+01  0.15130201056E+03 -0.48170792544E+03  0.50497217713E+03  0.00000000000E+00 0. -1.
         21    1    1    2  505  506  0.11552385058E+03 -0.24123665782E+03 -0.19846048520E+03  0.33305772670E+03  0.00000000000E+00 0. -1.
         21    1    1    2  506  504 -0.96475622635E+02  0.13739393868E+03 -0.40800304406E+03  0.44119284232E+03  0.00000000000E+00 0. -1.
<scales pt_clust_3="48.75592" pt_clust_4="91.91367" pt_clust_5="295.01586" pt_clust_6="91.91367"></scales>
<clustering>
<clus scale="   48.756">  1  3  2 -1</clus>
<clus scale="   91.914">  4  6 -1 -1</clus>
<clus scale="  295.016">  1  5  2 -1</clus>
<clus scale="   48.756">  1  3  2 -1</clus>
</clustering>
</event>
<event>
 6    0  0.1438923E+002  0.1488385E+03  0.7546771E-02  0.1201908E+00
         21   -1    0    0  503  501  0.00000000000E+00  0.00000000000E+00  0.32094086689E+03  0.32094086689E+03  0.00000000000E+00 0. -1.
         21   -1    0    0  505  502 -0.00000000000E+00 -0.00000000000E+00 -0.50602138664E+03  0.50602138664E+03  0.00000000000E+00 0. -1.
         21    1    1    2  503  502 -0.45535799951E+02 -0.50989205857E+01  0.59932586614E+01  0.46210682939E+02  0.00000000000E+00 0. -1.
         21    1    1    2  504  501  0.53423314919E+02  0.67769224304E+01  0.12610189145E+03  0.13711916089E+03  0.00000000000E+00 0. -1.
         21    1    1    2  505  506 -0.14091422912E+03  0.49527972553E+02 -0.43422156034E+03  0.45919299156E+03  0.00000000000E+00 0. -1.
         21    1    1    2  506  504  0.13302671415E+03 -0.51205974398E+02  0.11704589047E+03  0.18443941815E+03  0.00000000000E+00 0. -1.
<scales pt_clust_3="45.82039" pt_clust_4="33.40163" pt_clust_5="148.83850" pt_clust_6="14000.00000"></scales>
<clustering>
<clus scale="   45.820">  1  3  2 -1</clus>
<clus scale="   33.402">  1  4  2 -1</clus>
<clus scale="  148.838">  2  5  1 -1</clus>
<clus scale="   45.820">  1  3  2 -1</clus>
</clustering>
</event>
<event>
 6    0  0.1438923E+002  0.1136407E+03  0.7546771E-02  0.1253973E+00
         21   -1    0    0  506  501  0.00000000000E+00  0.00000000000E+00  0.52720417832E+03  0.52720417832E+03  0.00000000000E+00 0. -1.
         21   -1    0    0  505  502 -0.00000000000E+00 -0.00000000000E+00 -0.78543919819E+02  0.78543919819E+02  0.00000000000E+00 0. -1.
         21    1    1    2  503  504 -0.11405873898E+03 -0.51119562341E+02  0.84569476261E+02  0.15091256378E+03  0.00000000000E+00 0. -1.
         21    1    1    2  504  502  0.31339020352E+02 -0.34130526162E+02 -0.15460443126E+02  0.48847234460E+02  0.00000000000E+00 0. -1.
         21    1    1    2  505  501  0.31750848662E+02 -0.11270195129E+02  0.11414890451E+03  0.11901725123E+03  0.00000000000E+00 0. -1.
         21    1    1    2  506  503  0.50968869969E+02  0.96520283631E+02  0.26540232085E+03  0.28697104867E+03  0.00000000000E+00 0. -1.
<scales pt_clust_3="14000.00000" pt_clust_4="47.55085" pt_clust_5="33.69175" pt_clust_6="113.64073"></scales>
<clustering>
<clus scale="   33.692">  1  5  2 -1</clus>
<clus scale="   47.551">  2  4  1 -1</clus>
<clus scale="  113.641">  1  6  2 -1</clus>
<clus scale="   33.692">  1  3  2 -1</clus>
</clustering>
</event>
<event>
 6    0  0.1438923E+002  0.1117386E+03  0.7546771E-02  0.1257384E+00
         21   -1    0    0  506  501  0.00000000000E+00  0.00000000000E+00  0.58954202860E+03  0.58954202860E+03  0.00000000000E+00 0. -1.
         21   -1    0    0  501  502 -0.00000000000E+00 -0.00000000000E+00 -0.92339240640E+02  0.92339240640E+02  0.00000000000E+00 0. -1.
         21    1    1    2  503  502  0.27619958594E+02 -0.41164730846E+02  0.52134059706E+02  0.71939956629E+02  0.00000000000E+00 0. -1.
         21    1    1    2  504  503 -0.13000730177E+03  0.13976159978E+02 -0.19694543447E+02  0.13223126182E+03  0.00000000000E+00 0. -1.
         21    1    1    2  505  504  0.55192099598E+02  0.73649327541E+01  0.30188783088E+03  0.30697992202E+03  0.00000000000E+00 0. -1.
         21    1    1    2  506  505  0.47195243580E+02  0.19823638114E+02  0.16287544083E+03  0.17073012877E+03  0.00000000000E+00 0.  1.
<scales pt_clust_3="49.57214" pt_clust_4="107.26555" pt_clust_5="30.00971" pt_clust_6="30.00971"></scales>
<clustering>
<clus scale="   30.010">  5  6 -1 -1</clus>
<clus scale="   49.572">  2  3  1 -1</clus>
<clus scale="  107.266">  2  4  1 -1</clus>
<clus scale="  111.739">  1  3  2 -1</clus>
</clustering>
</event>
<event>
 6    0  0.1438923E+002  0.1026906E+03  0.7546771E-02  0.1274738E+00
         21   -1    0    0  504  501  0.00000000000E+00  0.00000000000E+00  0.38062048776E+03  0.38062048776E+03  0.00000000000E+00 0. -1.
         21   -1    0    0  505  502 -0.00000000000E+00 -0.00000000000E+00 -0.26763768799E+03  0.26763768799E+03  0.00000000000E+00 0. -1.
         21    1    1    2  503  502 -0.30048025672E+02 -0.72465101871E+00 -0.16152300004E+03  0.16429573491E+03  0.00000000000E+00 0. -1.
         21    1    1    2  504  503 -0.12675669967E+03  0.84603094546E+02  0.24294576389E+03  0.28678840407E+03  0.00000000000E+00 0. -1.
         21    1    1    2  505  506  0.10162240824E+03 -0.47735308783E+02 -0.19243880171E+02  0.11391268799E+03  0.00000000000E+00 0. -1.
         21    1    1    2  506  501  0.55182317103E+02 -0.36143134744E+02  0.50803916094E+02  0.83261348779E+02  0.00000000000E+00 0.  1.
<scales pt_clust_3="30.05676" pt_clust_4="102.69060" pt_clust_5="14000.00000" pt_clust_6="62.18794"></scales>
<clustering>
<clus scale="   30.057">  2  3  1 -1</clus>
<clus scale="   62.188">  1  6  2 -1</clus>
<clus scale="  102.691">  1  4  2 -1</clus>
<clus scale="   62.188">  1  3  2 -1</clus>
</clustering>
</event>
<event>
 6    0  0.1438923E+002  0.1107835E+03  0.7546771E-02  0.1259126E+00
         21   -1    0    0  505  501  0.00000000000E+00  0.00000000000E+00  0.21360419904E+03  0.21360419904E+03  0.00000000000E+00 0.  1.
         21   -1    0    0  503  502 -0.00000000000E+00 -0.00000000000E+00 -0.31212393383E+03  0.31212393383E+03  0.00000000000E+00 0.  1.
         21    1    1    2  503  506 -0.38064704456E+02  0.98152715906E+02 -0.26882279586E+03  0.28870152916E+03  0.00000000000E+00 0.  1.
         21    1    1    2  504  502 -0.70276935561E+01 -0.58510626687E+02  0.50669941186E+02  0.77719526837E+02  0.00000000000E+00 0.  1.
         21    1    1    2  505  504  0.11794121475E+02 -0.59920731190E+02  0.95806985308E+02  0.11361590453E+03  0.00000000000E+00 0.  1.
         21    1    1    2  506  501  0.33298276536E+02  0.20278641970E+02  0.23826134582E+02  0.45691172338E+02  0.00000000000E+00 0.  1.
<scales pt_clust_3="105.67840" pt_clust_4="32.65490" pt_clust_5="32.65490" pt_clust_6="38.98716"></scales>
<clustering>
<clus scale="   32.655">  4  5 -1 -1</clus>
<clus scale="   38.987">  1  6  2 -1</clus>
<clus scale="  105.678">  2  3  1 -1</clus>
<clus scale="   38.987">  1  3  2 -1</clus>
</clustering>
</event>
<event>
 6    0  0.1438923E+002  0.9783117E+02  0.7546771E-02  0.1284924E+00
         21   -1    0    0  504  501  0.00000000000E+00  0.00000000000E+00  0.20525939104E+03  0.20525939104E+03  0.00000000000E+00 0.  1.
         21   -1    0    0  505  502 -0.00000000000E+00 -0.00000000000E+00 -0.19958082991E+03  0.19958082991E+03  0.00000000000E+00 0.  1.
         21    1    1    2  503  501  0.32547471781E+02  0.21648995112E+02  0.91983329167E+01  0.40157517816E+02  0.00000000000E+00 0.  1.
         21    1    1    2  504  502 -0.77779006397E+02 -0.49177923332E+02  0.12153819163E+03  0.15244531480E+03  0.00000000000E+00 0.  1.
         21    1    1    2  505  506  0.88355243954E+02  0.43708164556E+02 -0.13294966773E+03  0.16550730175E+03  0.00000000000E+00 0.  1.
         21    1    1    2  506  503 -0.43123709338E+02 -0.16179236336E+02  0.78917043131E+01  0.46730086587E+02  0.00000000000E+00 0.  1.
<scales pt_clust_3="39.08986" pt_clust_4="14000.00000" pt_clust_5="97.83117" pt_clust_6="40.32218"></scales>
<clustering>
<clus scale="   39.090">  1  3  2 -1</clus>
<clus scale="   40.322">  1  6  2 -1</clus>
<clus scale="   97.831">  2  5  1 -1</clus>
<clus scale="   39.090">  1  3  2 -1</clus>
</clustering>
</event>
<event>
 6    0  0.1438923E+002  0.9743221E+02  0.7546771E-02  0.1285790E+00
         21   -1    0    0  504  501  0.00000000000E+00  0.00000000000E+00  0.10976539515E+03  0.10976539515E+03  0.00000000000E+00 0. -1.
         21   -1    0    0  505  502 -0.00000000000E+00 -0.00000000000E+00 -0.12625117388E+04  0.12625117388E+04  0.00000000000E+00 0.  1.
         21    1    1    2  503  502 -0.26079402997E+02 -0.93111949330E+02 -0.10363336906E+04  0.10408349959E+04  0.00000000000E+00 0.  1.
         21    1    1    2  504  503 -0.10663689933E+03  0.30198367677E+02 -0.92595560555E+02  0.14442059252E+03  0.00000000000E+00 0. -1.
         21    1    1    2  505  506  0.90756462822E+02  0.95641229061E+02 -0.11138071354E+02  0.13231793859E+03  0.00000000000E+00 0. -1.
         21    1    1    2  506  501  0.41959839504E+02 -0.32727647408E+02 -0.12679021115E+02  0.54703606942E+02  0.00000000000E+00 0. -1.
<scales pt_clust_3="97.43221" pt_clust_4="96.61728" pt_clust_5="14000.00000" pt_clust_6="53.21397"></scales>
<clustering>
<clus scale="   53.214">  1  6  2 -1</clus>
<clus scale="   96.617">  1  4  2 -1</clus>
<clus scale="   97.432">  2  3  1 -1</clus>
<clus scale="   53.214">  1  3  2 -1</clus>
</clustering>
</event>
<event>
 6    0  0.1438923E+002  0.1010602E+03  0.7546771E-02  0.1278082E+00
         21   -1    0    0  504  501  0.00000000000E+00  0.00000000000E+00  0.80815248286E+02  0.80815248286E+02  0.00000000000E+00 0.  1.
         21   -1    0    0  503  502 -0.00000000000E+00 -0.00000000000E+00 -0.12128352618E+04  0.12128352618E+04  0.00000000000E+00 0.  1.
         21    1    1    2  503  505 -0.23105293695E+02 -0.32380375664E+02 -0.42302238934E+02  0.58067398286E+02  0.00000000000E+00 0.  1.
         21    1    1    2  504  506 -0.95372829941E+02  0.53003187364E+02 -0.22461440405E+02  0.11139942041E+03  0.00000000000E+00 0.  1.
         21    1    1    2  505  501  0.84648731663E+02 -0.36602745467E+02 -0.47492619701E+02  0.10373387910E+03  0.00000000000E+00 0.  1.
         21    1    1    2  506  502  0.33829391974E+02  0.15979933767E+02 -0.10197637145E+04  0.10204498123E+04  0.00000000000E+00 0.  1.
<scales pt_clust_3="31.63414" pt_clust_4="14000.00000" pt_clust_5="101.06018" pt_clust_6="37.41371"></scales>
<clustering>
<clus scale="   37.414">  2  6  1 -1</clus>
<clus scale="   31.634">  2  3  1 -1</clus>
<clus scale="  101.060">  2  5  1 -1</clus>
<clus scale="  101.060">  1  3  2 -1</clus>
</clustering>
</event>
<event>
 6    0  0.1438923E+002  0.1700991E+03  0.7546771E-02  0.1177745E+00
         21   -1    0    0  506  501  0.00000000000E+00  0.00000000000E+00  0.22828923073E+03  0.22828923073E+03  0.00000000000E+00 0.  1.
         21   -1    0    0  503  502 -0.00000000000E+00 -0.00000000000E+00 -0.58892598346E+03  0.58892598346E+03  0.00000000000E+00 0.  1.
         21    1    1    2  503  504  0.32712569123E+02  0.15452063770E+03 -0.49164537202E+03  0.51639317529E+03  0.00000000000E+00 0.  1.
         21    1    1    2  504  501 -0.77768875705E+01  0.53075777974E+02  0.38459645936E+02  0.66005019152E+02  0.00000000000E+00 0. -1.
         21    1    1    2  505  502 -0.15048544066E+02 -0.15130279655E+03  0.40110781410E+02  0.15725097681E+03  0.00000000000E+00 0.  1.
         21    1    1    2  506  505 -0.98871374867E+01 -0.56293619128E+02  0.52438191954E+02  0.77566042942E+02  0.00000000000E+00 0.  1.
<scales pt_clust_3="161.48692" pt_clust_4="53.64250" pt_clust_5="32.76342" pt_clust_6="32.76342"></scales>
<clustering>
<clus scale="   32.763">  5  6 -1 -1</clus>
<clus scale="   53.643">  1  4  2 -1</clus>
<clus scale="  161.487">  2  3  1 -1</clus>
<clus scale="   53.643">  1  3  2 -1</clus>
</clustering>
</event>
<event>
 6    0  0.1438923E+002  0.7289389E+02  0.7546771E-02  0.1350520E+00
         21   -1    0    0  506  501  0.00000000000E+00  0.00000000000E+00  0.88632825168E+02  0.88632825168E+02  0.00000000000E+00 0. -1.
         21   -1    0    0  505  502 -0.00000000000E+00 -0.00000000000E+00 -0.36069956824E+03  0.36069956824E+03  0.00000000000E+00 0. -1.
         21    1    1    2  503  502 -0.12132890010E+02  0.70994972040E+02 -0.24877899751E+03  0.25899514026E+03  0.00000000000E+00 0. -1.
         21    1    1    2  504  503  0.80693788327E+02 -0.66909995539E+02  0.51470718811E+01  0.10495202393E+03  0.00000000000E+00 0. -1.
         21    1    1    2  505  501 -0.33273025020E+02  0.15296174611E+02 -0.26267185966E+02  0.45066974718E+02  0.00000000000E+00 0. -1.
         21    1    1    2  506  504 -0.35287873298E+02 -0.19381151111E+02 -0.21676314803E+01  0.40318254507E+02  0.00000000000E+00 0. -1.
<scales pt_clust_3="14000.00000" pt_clust_4="72.89389" pt_clust_5="36.62058" pt_clust_6="46.05641"></scales>
<clustering>
<clus scale="   36.621">  1  5  2 -1</clus>
<clus scale="   46.056">  1  6  2 -1</clus>
<clus scale="   72.894">  1  4  2 -1</clus>
<clus scale="   36.621">  1  3  2 -1</clus>
</clustering>
</event>
<event>
 6    0  0.1438923E+002  0.4086101E+03  0.7546771E-02  0.1040838E+00
         21   -1    0    0  502  501  0.00000000000E+00  0.00000000000E+00  0.18962316562E+03  0.18962316562E+03  0.00000000000E+00 0. -1.
         21   -1    0    0  504  502 -0.00000000000E+00 -0.00000000000E+00 -0.26421820721E+04  0.26421820721E+04  0.00000000000E+00 0.  1.
         21    1    1    2  503  501 -0.28172591619E+03 -0.81771898977E+02 -0.82664583399E+02  0.30477790055E+03  0.00000000000E+00 0. -1.
         21    1    1    2  504  506 -0.11045019763E+02 -0.46884787725E+02 -0.13446961490E+04  0.13455585863E+04  0.00000000000E+00 0.  1.
         21    1    1    2  505  503 -0.10590807245E+03  0.33284794780E+02 -0.46447380715E+02  0.12034017014E+03  0.00000000000E+00 0. -1.
         21    1    1    2  506  505  0.39867900841E+03  0.95371891922E+02 -0.97875079335E+03  0.10611285808E+04  0.00000000000E+00 0.  1.
<scales pt_clust_3="65.35560" pt_clust_4="48.16820" pt_clust_5="65.35560" pt_clust_6="394.35751"></scales>
<clustering>
<clus scale="   48.168">  2  4  1 -1</clus>
<clus scale="   65.356">  3  5 -1 -1</clus>
<clus scale="  394.358">  2  6  1 -1</clus>
<clus scale="  408.610">  1  3  2 -1</clus>
</clustering>
</event>
<event>
 6    0  0.1438923E+002  0.1129900E+03  0.7546771E-02  0.1255131E+00
         21   -1    0    0  504  501  0.00000000000E+00  0.00000000000E+00  0.97063192490E+02  0.97063192490E+02  0.00000000000E+00 0.  1.
         21   -1    0    0  503  502 -0.00000000000E+00 -0.00000000000E+00 -0.44326001663E+03  0.44326001663E+03  0.00000000000E+00 0.  1.
         21    1    1    2  503  506 -0.70503763358E+02 -0.96039144498E+01 -0.94520677417E+02  0.11830965421E+03  0.00000000000E+00 0.  1.
         21    1    1    2  504  505  0.99117164184E+02 -0.60875468187E+02 -0.45584282412E+02  0.12493182807E+03  0.00000000000E+00 0.  1.
         21    1    1    2  505  502 -0.63416932845E+01  0.11989479773E+03 -0.21088532212E+03  0.24266767127E+03  0.00000000000E+00 0.  1.
         21    1    1    2  506  501 -0.22271707542E+02 -0.49415415089E+02  0.47934578063E+01  0.54414055564E+02  0.00000000000E+00 0.  1.
<scales pt_clust_3="76.65142" pt_clust_4="14000.00000" pt_clust_5="112.98998" pt_clust_6="54.20251"></scales>
<clustering>
<clus scale="   54.203">  1  6  2 -1</clus>
<clus scale="   76.651">  2  3  1 -1</clus>
<clus scale="  112.990">  2  5  1 -1</clus>
<clus scale="   54.203">  1  3  2 -1</clus>
</clustering>
</event>
<event>
 6    0  0.1438923E+002  0.2334703E+03  0.7546771E-02  0.1124221E+00
         21   -1    0    0  504  501  0.00000000000E+00  0.00000000000E+00  0.16038608562E+04  0.16038608562E+04  0.00000000000E+00 0. -1.
         21   -1    0    0  503  502 -0.00000000000E+00 -0.00000000000E+00 -0.60482741565E+02  0.60482741565E+02  0.00000000000E+00 0. -1.
         21    1    1    2  503  505  0.10185338886E+02 -0.77264053766E+02  0.12164668969E+03  0.14446934708E+03  0.00000000000E+00 0. -1.
         21    1    1    2  504  506  0.53362316325E+02  0.21582616408E+03  0.96420101617E+03  0.98950091940E+03  0.00000000000E+00 0. -1.
         21    1    1    2  505  501 -0.11028844695E+02 -0.15371841806E+03  0.44942384720E+03  0.47511344108E+03  0.00000000000E+00 0. -1.
         21    1    1    2  506  502 -0.52518810516E+02  0.15156307751E+02  0.81065615506E+01  0.55259890181E+02  0.00000000000E+00 0. -1.
<scales pt_clust_3="47.21097" pt_clust_4="223.83196" pt_clust_5="47.21097" pt_clust_6="54.66204"></scales>
<clustering>
<clus scale="   47.211">  3  5 -1 -1</clus>
<clus scale="   54.662">  2  6  1 -1</clus>
<clus scale="  223.832">  1  4  2 -1</clus>
<clus scale="  223.832">  1  3  2 -1</clus>
</clustering>
</event>
<event>
 6    0  0.1438923E+002  0.1946210E+03  0.7546771E-02  0.1154358E+00
         21   -1    0    0  503  501  0.00000000000E+00  0.00000000000E+00  0.52071956511E+03  0.52071956511E+03  0.00000000000E+00 0. -1.
         21   -1    0    0  505  502 -0.00000000000E+00 -0.00000000000E+00 -0.44928933839E+03  0.44928933839E+03  0.00000000000E+00 0.  1.
         21    1    1    2  503  506 -0.80023064709E+02 -0.12193800746E+03 -0.32013820840E+03  0.35179687467E+03  0.00000000000E+00 0.  1.
         21    1    1    2  504  501  0.56515686838E+02  0.18967074499E+03  0.46385445848E+03  0.50431138498E+03  0.00000000000E+00 0. -1.
         21    1    1    2  505  504 -0.10886485112E+00 -0.37903668069E+02 -0.73054684288E+01  0.38601421912E+02  0.00000000000E+00 0. -1.
         21    1    1    2  506  502  0.23616242722E+02 -0.29829069454E+02 -0.64980554942E+02  0.75299221944E+02  0.00000000000E+00 0. -1.
<scales pt_clust_3="14000.00000" pt_clust_4="194.62099" pt_clust_5="37.90382" pt_clust_6="43.09940"></scales>
<clustering>
<clus scale="   37.904">  2  5  1 -1</clus>
<clus scale="   43.099">  2  6  1 -1</clus>
<clus scale="  194.621">  1  4  2 -1</clus>
<clus scale="  194.621">  1  3  2 -1</clus>
</clustering>
</event>
<event>
 6    0  0.1438923E+002  0.1158492E+03  0.7546771E-02  0.1250106E+00
         21   -1    0    0  504  501  0.00000000000E+00  0.00000000000E+00  0.12412913807E+04  0.12412913807E+04  0.00000000000E+00 0.  1.
         21   -1    0    0  505  502 -0.00000000000E+00 -0.00000000000E+00 -0.13480166178E+03  0.13480166178E+03  0.00000000000E+00 0. -1.
         21    1    1    2  503  501 -0.28267271864E+02  0.78551505406E+02  0.17140318587E+03  0.19065264170E+03  0.00000000000E+00 0.  1.
         21    1    1    2  504  506  0.79611320222E+02  0.36213821815E+02  0.46510812419E+03  0.47325993956E+03  0.00000000000E+00 0.  1.
         21    1    1    2  505  503  0.23700297886E+02  0.56231273849E+02 -0.97358307039E+02  0.11490126295E+03  0.00000000000E+00 0. -1.
         21    1    1    2  506  502 -0.75044346244E+02 -0.17099660107E+03  0.56733671590E+03  0.59727919827E+03  0.00000000000E+00 0.  1.
<scales pt_clust_3="14000.00000" pt_clust_4="94.02161" pt_clust_5="61.02180" pt_clust_6="115.84916"></scales>
<clustering>
<clus scale="   61.022">  2  5  1 -1</clus>
<clus scale="   94.022">  1  4  2 -1</clus>
<clus scale="  115.849">  1  6  2 -1</clus>
<clus scale="   94.022">  1  3  2 -1</clus>
</clustering>
</event>
<event>
 6    0  0.1438923E+002  0.1898116E+03  0.7546771E-02  0.1158631E+00
         21   -1    0    0  506  501  0.00000000000E+00  0.00000000000E+00  0.13585696867E+03  0.13585696867E+03  0.00000000000E+00 0.  1.
         21   -1    0    0  505  502 -0.00000000000E+00 -0.00000000000E+00 -0.83150810112E+03  0.83150810112E+03  0.00000000000E+00 0.  1.
         21    1    1    2  503  502  0.17443323677E+03  0.11395933935E+02 -0.45788029285E+03  0.49011343991E+03  0.00000000000E+00 0.  1.
         21    1    1    2  504  501 -0.40432802022E+02 -0.32708117351E+02 -0.70074274844E+01  0.52476056063E+02  0.00000000000E+00 0.  1.
         21    1    1    2  505  504 -0.11377554651E+03 -0.14314526470E+03 -0.16569966912E+03  0.24676268384E+03  0.00000000000E+00 0.  1.
         21    1    1    2  506  503 -0.20224888247E+02  0.16445744811E+03 -0.65063742998E+02  0.17801288998E+03  0.00000000000E+00 0. -1.
<scales pt_clust_3="176.11643" pt_clust_4="37.75350" pt_clust_5="37.75350" pt_clust_6="165.69640"></scales>
<clustering>
<clus scale="   37.754">  4  5 -1 -1</clus>
<clus scale="  165.696">  1  6  2 -1</clus>
<clus scale="  176.116">  2  3  1 -1</clus>
<clus scale="  165.696">  1  3  2 -1</clus>
</clustering>
</event>
<event>
 6    0  0.1438923E+002  0.1183930E+03  0.7546771E-02  0.1245772E+00
         21   -1    0    0  504  501  0.00000000000E+00  0.00000000000E+00  0.57243999389E+02  0.57243999389E+02  0.00000000000E+00 0. -1.
         21   -1    0    0  505  502 -0.00000000000E+00 -0.00000000000E+00 -0.97275370994E+03  0.97275370994E+03  0.00000000000E+00 0. -1.
         21    1    1    2  503  506  0.68641431694E+02  0.21257876874E+02 -0.16774224213E+02  0.73789688115E+02  0.00000000000E+00 0. -1.
         21    1    1    2  504  502 -0.48718468703E+02 -0.72031008457E+01 -0.72049369544E+03  0.72217486734E+03  0.00000000000E+00 0. -1.
         21    1    1    2  505  503 -0.58504955993E+02 -0.60755175017E+02 -0.13653972944E+03  0.16049024545E+03  0.00000000000E+00 0.  1.
         21    1    1    2  506  501  0.38581993003E+02  0.46700398989E+02 -0.41702061457E+02  0.73542908425E+02  0.00000000000E+00 0. -1.
<scales pt_clust_3="42.79247" pt_clust_4="49.24808" pt_clust_5="108.83326" pt_clust_6="42.79247"></scales>
<clustering>
<clus scale="   42.792">  3  6 -1 -1</clus>
<clus scale="   49.248">  2  4  1 -1</clus>
<clus scale="  108.833">  2  5  1 -1</clus>
<clus scale="  118.393">  1  3  2 -1</clus>
</clustering>
</event>
<event>
 6    0  0.1438923E+002  0.2074764E+03  0.7546771E-02  0.1143580E+00
         21   -1    0    0  504  501  0.00000000000E+00  0.00000000000E+00  0.26998560504E+03  0.26998560504E+03  0.00000000000E+00 0.  1.
         21   -1    0    0  506  502 -0.00000000000E+00 -0.00000000000E+00 -0.84116297730E+03  0.84116297730E+03  0.00000000000E+00 0.  1.
         21    1    1    2  503  505 -0.69650539976E+02 -0.20172003674E+03  0.13198771910E+03  0.25092414976E+03  0.00000000000E+00 0.  1.
         21    1    1    2  504  503 -0.38638681776E+02  0.21306437496E+02  0.51214142750E+02  0.67600299007E+02  0.00000000000E+00 0.  1.
         21    1    1    2  505  502 -0.98207529091E+01  0.43511021235E+02 -0.58080111027E+02  0.73232202299E+02  0.00000000000E+00 0.  1.
         21    1    1    2  506  501  0.11810997466E+03  0.13690257801E+03 -0.69629912309E+03  0.71939193128E+03  0.00000000000E+00 0.  1.
<scales pt_clust_3="14000.00000" pt_clust_4="44.12383" pt_clust_5="45.67479" pt_clust_6="207.47638"></scales>
<clustering>
<clus scale="   44.124">  1  4  2 -1</clus>
<clus scale="   45.675">  2  5  1 -1</clus>
<clus scale="  207.476">  2  6  1 -1</clus>
<clus scale="   44.124">  1  3  2 -1</clus>
</clustering>
</event>
<event>
 6    0  0.1438923E+002  0.1358018E+03  0.7546771E-02  0.1219092E+00
         21   -1    0    0  504  501  0.00000000000E+00  0.00000000000E+00  0.18310949543E+03  0.18310949543E+03  0.00000000000E+00 0. -1.
         21   -1    0    0  503  502 -0.00000000000E+00 -0.00000000000E+00 -0.29588651911E+03  0.29588651911E+03  0.00000000000E+00 0.  1.
         21    1    1    2  503  501 -0.57320457998E+02 -0.41246779188E+01 -0.16360649992E+02  0.59752144239E+02  0.00000000000E+00 0.  1.
         21    1    1    2  504  505 -0.70770985390E+02 -0.44733045033E+02  0.58796004124E+02  0.10230614738E+03  0.00000000000E+00 0. -1.
         21    1    1    2  505  506 -0.16101369768E+02 -0.43786888927E+02  0.36902112964E+02  0.59483709463E+02  0.00000000000E+00 0. -1.
         21    1    1    2  506  502  0.14419281316E+03  0.92644611879E+02 -0.19211449078E+03  0.25745401345E+03  0.00000000000E+00 0.  1.
<scales pt_clust_3="57.46867" pt_clust_4="30.18632" pt_clust_5="30.18632" pt_clust_6="129.64137"></scales>
<clustering>
<clus scale="   30.186">  4  5 -1 -1</clus>
<clus scale="   57.469">  2  3  1 -1</clus>
<clus scale="  129.641">  2  6  1 -1</clus>
<clus scale="  135.802">  1  3  2 -1</clus>
</clustering>
</event>
<event>
 6    0  0.1438923E+002  0.1212142E+03  0.7546771E-02  0.1241107E+00
         21   -1    0    0  504  501  0.00000000000E+00  0.00000000000E+00  0.19238744297E+03  0.19238744297E+03  0.00000000000E+00 0.  1.
         21   -1    0    0  506  502 -0.00000000000E+00 -0.00000000000E+00 -0.27010339966E+03  0.27010339966E+03  0.00000000000E+00 0. -1.
         21    1    1    2  503  501  0.86576124202E+02 -0.27549089165E+02  0.51346786310E+02  0.10435933145E+03  0.00000000000E+00 0.  1.
         21    1    1    2  504  505 -0.27977778945E+02  0.34371287527E+02  0.38531748950E+02  0.58726801361E+02  0.00000000000E+00 0.  1.
         21    1    1    2  505  502 -0.10761777701E+03 -0.24557137064E+02 -0.20663952204E+03  0.23427447787E+03  0.00000000000E+00 0. -1.
         21    1    1    2  506  503  0.49019431751E+02  0.17734938702E+02  0.39045030095E+02  0.65130231959E+02  0.00000000000E+00 0.  1.
<scales pt_clust_3="34.49267" pt_clust_4="44.31864" pt_clust_5="112.33576" pt_clust_6="34.49267"></scales>
<clustering>
<clus scale="   34.493">  3  6 -1 -1</clus>
<clus scale="   44.319">  1  4  2 -1</clus>
<clus scale="  112.336">  2  5  1 -1</clus>
<clus scale="   44.319">  1  3  2 -1</clus>
</clustering>
</event>
<event>
 6    0  0.1438923E+002  0.1040498E+03  0.7546771E-02  0.1272003E+00
         21   -1    0    0  505  501  0.00000000000E+00  0.00000000000E+00  0.82206779869E+03  0.82206779869E+03  0.00000000000E+00 0.  1.
         21   -1    0    0  504  502 -0.00000000000E+00 -0.00000000000E+00 -0.28612562716E+03  0.28612562716E+03  0.00000000000E+00 0.  1.
         21    1    1    2  503  506 -0.28274227065E+02 -0.34819174902E+02  0.14264013513E+03  0.14952596767E+03  0.00000000000E+00 0.  1.
         21    1    1    2  504  501 -0.22806702545E+02 -0.48319992293E+02 -0.26712796256E+03  0.27241937471E+03  0.00000000000E+00 0.  1.
         21    1    1    2  505  503 -0.29311117004E+02 -0.24879349165E+02  0.28133463244E+03  0.28394946558E+03  0.00000000000E+00 0.  1.
         21    1    1    2  506  502  0.80392046614E+02  0.10801851636E+03  0.37909536653E+03  0.40229861789E+03  0.00000000000E+00 0.  1.
<scales pt_clust_3="32.94656" pt_clust_4="53.43189" pt_clust_5="32.94656" pt_clust_6="97.77520"></scales>
<clustering>
<clus scale="   32.947">  3  5 -1 -1</clus>
<clus scale="   53.432">  2  4  1 -1</clus>
<clus scale="   97.775">  2  6  1 -1</clus>
<clus scale="  104.050">  1  3  2 -1</clus>
</clustering>
</event>
<event>
 6    0  0.1438923E+002  0.9090212E+02  0.7546771E-02  0.1300682E+00
         21   -1    0    0  503  501  0.00000000000E+00  0.00000000000E+00  0.58338537443E+03  0.58338537443E+03  0.00000000000E+00 0.  1.
         21   -1    0    0  504  502 -0.00000000000E+00 -0.00000000000E+00 -0.58207419352E+02  0.58207419352E+02  0.00000000000E+00 0. -1.
         21    1    1    2  503  506  0.29752283090E+02  0.20925064280E+02  0.77565253788E+02  0.85670445659E+02  0.00000000000E+00 0.  1.
         21    1    1    2  504  505  0.39301029502E+02 -0.22126608325E+02  0.47267994364E+02  0.65333153965E+02  0.00000000000E+00 0. -1.
         21    1    1    2  505  501 -0.11174757373E+03  0.32764668755E+02  0.41855940398E+03  0.43445715371E+03  0.00000000000E+00 0.  1.
         21    1    1    2  506  502  0.42694261140E+02 -0.31563124710E+02 -0.18214697052E+02  0.56132040444E+02  0.00000000000E+00 0. -1.
<scales pt_clust_3="36.37385" pt_clust_4="47.00334" pt_clust_5="90.90212" pt_clust_6="14000.00000"></scales>
<clustering>
<clus scale="   36.374">  1  3  2 -1</clus>
<clus scale="   47.003">  2  4  1 -1</clus>
<clus scale="   90.902">  1  5  2 -1</clus>
<clus scale="   36.374">  1  3  2 -1</clus>
</clustering>
</event>
<event>
 6    0  0.1438923E+002  0.4190314E+03  0.7546771E-02  0.1037382E+00
         21   -1    0    0  503  501  0.00000000000E+00  0.00000000000E+00  0.94479575437E+03  0.94479575437E+03  0.00000000000E+00 0. -1.
         21   -1    0    0  504  502 -0.00000000000E+00 -0.00000000000E+00 -0.97886675306E+03  0.97886675306E+03  0.00000000000E+00 0. -1.
         21    1    1    2  503  505 -0.28309081063E+02  0.34771554989E+02  0.18323390593E+03  0.18864021149E+03  0.00000000000E+00 0.  1.
         21    1    1    2  504  501  0.35719496395E+03 -0.13869289662E+03 -0.89092768244E+03  0.96983302541E+03  0.00000000000E+00 0. -1.
         21    1    1    2  505  506 -0.26726004167E+03  0.10270283198E+03  0.62220970780E+03  0.68492388048E+03  0.00000000000E+00 0. -1.
         21    1    1    2  506  502 -0.61625841216E+02  0.12185096500E+01  0.51413070019E+02  0.80265390051E+02  0.00000000000E+00 0. -1.
<scales pt_clust_3="35.64786" pt_clust_4="383.17615" pt_clust_5="61.34967" pt_clust_6="61.34967"></scales>
<clustering>
<clus scale="   35.648">  3  5 -1 -1</clus>
<clus scale="   61.350">  3  6 -1 -1</clus>
<clus scale="  383.176">  2  4  1 -1</clus>
<clus scale="  419.031">  1  3  2 -1</clus>
</clustering>
</event>
<event>
 6    0  0.1438923E+002  0.1180528E+03  0.7546771E-02  0.1246344E+00
         21   -1    0    0  506  501  0.00000000000E+00  0.00000000000E+00  0.24491183934E+03  0.24491183934E+03  0.00000000000E+00 0.  1.
         21   -1    0    0  504  502 -0.00000000000E+00 -0.00000000000E+00 -0.51493731333E+03  0.51493731333E+03  0.00000000000E+00 0.  1.
         21    1    1    2  503  505 -0.70274367617E+02 -0.14009197073E+02 -0.28424453935E+02  0.77088870326E+02  0.00000000000E+00 0. -1.
         21    1    1    2  504  501 -0.21381654217E+02  0.37268928009E+02 -0.15374260162E+02  0.45634592225E+02  0.00000000000E+00 0. -1.
         21    1    1    2  505  502  0.13433568771E+03  0.40499144507E+02 -0.41247895541E+03  0.43568927730E+03  0.00000000000E+00 0.  1.
         21    1    1    2  506  503 -0.42679665872E+02 -0.63758875443E+02  0.18625219552E+03  0.20143641283E+03  0.00000000000E+00 0.  1.
<scales pt_clust_3="118.05279" pt_clust_4="42.96683" pt_clust_5="14000.00000" pt_clust_6="68.78290"></scales>
<clustering>
<clus scale="   42.967">  1  4  2 -1</clus>
<clus scale="   68.783">  1  6  2 -1</clus>
<clus scale="  118.053">  1  3  2 -1</clus>
<clus scale="   42.967">  1  3  2 -1</clus>
</clustering>
</event>
<event>
 6    0  0.1438923E+002  0.8298869E+02  0.7546771E-02  0.1320778E+00
         21   -1    0    0  503  501  0.00000000000E+00  0.00000000000E+00  0.96054552822E+03  0.96054552822E+03  0.00000000000E+00 0.  1.
         21   -1    0    0  504  502 -0.00000000000E+00 -0.00000000000E+00 -0.26348514036E+03  0.26348514036E+03  0.00000000000E+00 0. -1.
         21    1    1    2  503  505  0.90344044447E+01  0.11545365100E+03  0.11316780982E+03  0.16192010119E+03  0.00000000000E+00 0. -1.
         21    1    1    2  504  506  0.95354251285E+01 -0.62906861372E+02  0.29573183674E+03  0.30249878810E+03  0.00000000000E+00 0. -1.
         21    1    1    2  505  502 -0.49586465757E+02 -0.38473776705E+02 -0.23097997059E+03  0.23935495794E+03  0.00000000000E+00 0. -1.
         21    1    1    2  506  501  0.31016636184E+02 -0.14073012919E+02  0.51914071189E+03  0.52025682135E+03  0.00000000000E+00 0.  1.
<scales pt_clust_3="82.98869" pt_clust_4="14000.00000" pt_clust_5="62.61167" pt_clust_6="34.05997"></scales>
<clustering>
<clus scale="   34.060">  1  6  2 -1</clus>
<clus scale="   62.612">  2  5  1 -1</clus>
<clus scale="   82.989">  2  3  1 -1</clus>
<clus scale="   34.060">  1  3  2 -1</clus>
</clustering>
</event>
<event>
 6    0  0.1438923E+002  0.1088653E+03  0.7546771E-02  0.1262686E+00
         21   -1    0    0  505  501  0.00000000000E+00  0.00000000000E+00  0.76118003171E+03  0.76118003171E+03  0.00000000000E+00 0.  1.
         21   -1    0    0  501  502 -0.00000000000E+00 -0.00000000000E+00 -0.12749588275E+03  0.12749588275E+03  0.00000000000E+00 0.  1.
         21    1    1    2  503  506  0.24043714627E+02 -0.22156386396E+02  0.13968907040E+03  0.14346442786E+03  0.00000000000E+00 0.  1.
         21    1    1    2  504  502  0.16921618196E+01  0.11310529949E+03 -0.89945434587E+02  0.14451938759E+03  0.00000000000E+00 0.  1.
         21    1    1    2  505  503  0.22921180901E+02 -0.20766874516E+02  0.35495849337E+03  0.35630348810E+03  0.00000000000E+00 0.  1.
         21    1    1    2  506  504 -0.48657057348E+02 -0.70182038580E+02  0.22898201977E+03  0.24438861092E+03  0.00000000000E+00 0. -1.
<scales pt_clust_3="43.49287" pt_clust_4="14000.00000" pt_clust_5="30.92966" pt_clust_6="108.86533"></scales>
<clustering>
<clus scale="   30.930">  1  5  2 -1</clus>
<clus scale="   43.493">  1  3  2 -1</clus>
<clus scale="  108.865">  1  6  2 -1</clus>
<clus scale="   30.930">  1  3  2 -1</clus>
</clustering>
</event>
<event>
 6    0  0.1438923E+002  0.1161791E+03  0.7546771E-02  0.1249537E+00
         21   -1    0    0  503  501  0.00000000000E+00  0.00000000000E+00  0.61863167893E+03  0.61863167893E+03  0.00000000000E+00 0.  1.
         21   -1    0    0  505  502 -0.00000000000E+00 -0.00000000000E+00 -0.18543471657E+03  0.18543471657E+03  0.00000000000E+00 0.  1.
         21    1    1    2  503  502  0.28792715635E+02  0.72919414664E+02  0.47022623500E+03  0.47671686943E+03  0.00000000000E+00 0.  1.
         21    1    1    2  504  501 -0.25973264514E+02  0.28318395283E+02  0.43642820166E+02  0.58148411268E+02  0.00000000000E+00 0. -1.
         21    1    1    2  505  506  0.62912253228E+02 -0.91976647081E+02 -0.14085170396E+03  0.17960194242E+03  0.00000000000E+00 0.  1.
         21    1    1    2  506  504 -0.65731704349E+02 -0.92611628666E+01  0.60179611144E+02  0.89599172383E+02  0.00000000000E+00 0.  1.
<scales pt_clust_3="78.39810" pt_clust_4="36.30758" pt_clust_5="105.92599" pt_clust_6="36.30758"></scales>
<clustering>
<clus scale="   36.308">  4  6 -1 -1</clus>
<clus scale="   78.398">  1  3  2 -1</clus>
<clus scale="  105.926">  2  5  1 -1</clus>
<clus scale="   78.398">  1  3  2 -1</clus>
</clustering>
</event>
<event>
 6    0  0.1438923E+002  0.1286806E+03  0.7546771E-02  0.1229427E+00
         21   -1    0    0  503  501  0.00000000000E+00  0.00000000000E+00  0.26082813774E+03  0.26082813774E+03  0.00000000000E+00 0. -1.
         21   -1    0    0  506  502 -0.00000000000E+00 -0.00000000000E+00 -0.83409780500E+03  0.83409780500E+03  0.00000000000E+00 0.  1.
         21    1    1    2  503  504  0.32334767402E+02 -0.28274968489E+02  0.74053355950E+02  0.85609056492E+02  0.00000000000E+00 0. -1.
         21    1    1    2  504  505  0.34583319595E+02 -0.54013208335E+02  0.34803902342E+02  0.72970845460E+02  0.00000000000E+00 0. -1.
         21    1    1    2  505  502  0.36145542001E+02 -0.19651678268E+02 -0.76717509109E+03  0.76827749483E+03  0.00000000000E+00 0.  1.
         21    1    1    2  506  501 -0.10306362900E+03  0.10193985509E+03  0.85048165548E+02  0.16806854596E+03  0.00000000000E+00 0. -1.
<scales pt_clust_3="37.03789" pt_clust_4="37.03789" pt_clust_5="41.14230" pt_clust_6="120.45907"></scales>
<clustering>
<clus scale="   37.038">  3  4 -1 -1</clus>
<clus scale="   41.142">  2  5  1 -1</clus>
<clus scale="  120.459">  2  6  1 -1</clus>
<clus scale="  128.681">  1  3  2 -1</clus>
</clustering>
</event>
<event>
 6    0  0.1438923E+002  0.2348576E+03  0.7546771E-02  0.1123267E+00
         21   -1    0    0  506  501  0.00000000000E+00  0.00000000000E+00  0.13607762432E+04  0.13607762432E+04  0.00000000000E+00 0. -1.
         21   -1    0    0  504  502 -0.00000000000E+00 -0.00000000000E+00 -0.14226081948E+04  0.14226081948E+04  0.00000000000E+00 0. -1.
         21    1    1    2  503  501  0.22434688612E+03 -0.66216654569E+02  0.64685687035E+02  0.24269406412E+03  0.00000000000E+00 0.  1.
         21    1    1    2  504  503  0.75717156726E+02 -0.38197978159E+01 -0.13062703195E+04  0.13084685041E+04  0.00000000000E+00 0. -1.
         21    1    1    2  505  502 -0.17473796562E+03  0.16498352944E+02  0.35206593719E+03  0.39339036136E+03  0.00000000000E+00 0. -1.
         21    1    1    2  506  505 -0.12532607723E+03  0.53538099441E+02  0.82768674366E+03  0.83883150832E+03  0.00000000000E+00 0. -1.
<scales pt_clust_3="234.85764" pt_clust_4="75.81345" pt_clust_5="14000.00000" pt_clust_6="132.84916"></scales>
<clustering>
<clus scale="   75.813">  2  4  1 -1</clus>
<clus scale="  132.849">  1  6  2 -1</clus>
<clus scale="  234.858">  2  3  1 -1</clus>
<clus scale="  132.849">  1  3  2 -1</clus>
</clustering>
</event>
<event>
 6    0  0.1438923E+002  0.1175223E+03  0.7546771E-02  0.1247241E+00
         21   -1    0    0  504  501  0.00000000000E+00  0.00000000000E+00  0.26226163201E+03  0.26226163201E+03  0.00000000000E+00 0. -1.
         21   -1    0    0  506  502 -0.00000000000E+00 -0.00000000000E+00 -0.95861905905E+03  0.95861905905E+03  0.00000000000E+00 0. -1.
         21    1    1    2  503  502 -0.34170943351E+01 -0.37366011395E+02 -0.85923300859E+03  0.86005189285E+03  0.00000000000E+00 0. -1.
         21    1    1    2  504  505 -0.68664061111E+02  0.89501854855E+02  0.10116463231E+03  0.15152431535E+03  0.00000000000E+00 0. -1.
         21    1    1    2  505  503  0.10323401866E+02  0.55873194662E+02 -0.20245977771E+02  0.60318207233E+02  0.00000000000E+00 0. -1.
         21    1    1    2  506  501  0.61757753580E+02 -0.10800903812E+03  0.81956927010E+02  0.14898627564E+03  0.00000000000E+00 0. -1.
<scales pt_clust_3="37.52193" pt_clust_4="14000.00000" pt_clust_5="41.63528" pt_clust_6="117.52227"></scales>
<clustering>
<clus scale="   37.522">  2  3  1 -1</clus>
<clus scale="   41.635">  2  5  1 -1</clus>
<clus scale="  117.522">  2  6  1 -1</clus>
<clus scale="  117.522">  1  3  2 -1</clus>
</clustering>
</event>
<event>
 6    0  0.1438923E+002  0.1230077E+03  0.7546771E-02  0.1238216E+00
         21   -1    0    0  505  501  0.00000000000E+00  0.00000000000E+00  0.49936700926E+03  0.49936700926E+03  0.00000000000E+00 0.  1.
         21   -1    0    0  503  502 -0.00000000000E+00 -0.00000000000E+00 -0.39755728657E+03  0.39755728657E+03  0.00000000000E+00 0.  1.
         21    1    1    2  503  501  0.25198312504E+02 -0.73305328407E+02  0.41083705515E+02  0.87729681321E+02  0.00000000000E+00 0. -1.
         21    1    1    2  504  502  0.44875067498E+01 -0.52214262595E+02 -0.36129050947E+03  0.36507163567E+03  0.00000000000E+00 0.  1.
         21    1    1    2  505  506 -0.12725769532E+02  0.60284643112E+02  0.28297624272E+03  0.28960617630E+03  0.00000000000E+00 0.  1.
         21    1    1    2  506  504 -0.16960049722E+02  0.65234947889E+02  0.13904028392E+03  0.15451680254E+03  0.00000000000E+00 0.  1.
<scales pt_clust_3="112.33897" pt_clust_4="52.40675" pt_clust_5="47.90780" pt_clust_6="47.90780"></scales>
<clustering>
<clus scale="   47.908">  5  6 -1 -1</clus>
<clus scale="   52.407">  2  4  1 -1</clus>
<clus scale="  112.339">  2  3  1 -1</clus>
<clus scale="  123.008">  1  3  2 -1</clus>
</clustering>
</event>
<event>
 6    0  0.1438923E+002  0.1400507E+03  0.7546771E-02  0.1213261E+00
         21   -1    0    0  505  501  0.00000000000E+00  0.00000000000E+00  0.25374462473E+03  0.25374462473E+03  0.00000000000E+00 0. -1.
         21   -1    0    0  504  502 -0.00000000000E+00 -0.00000000000E+00 -0.39023151416E+03  0.39023151416E+03  0.00000000000E+00 0.  1.
         21    1    1    2  503  506 -0.32168242005E+02  0.47658650082E+02 -0.17463245225E+01  0.57525580142E+02  0.00000000000E+00 0. -1.
         21    1    1    2  504  501  0.12325147114E+03 -0.56958398193E+02  0.12177810278E+03  0.18238719961E+03  0.00000000000E+00 0. -1.
         21    1    1    2  505  503 -0.53811208384E+02  0.31276271121E+02  0.58899465822E+02  0.85691296857E+02  0.00000000000E+00 0. -1.
         21    1    1    2  506  502 -0.37272020751E+02 -0.21976523009E+02 -0.31541813352E+03  0.31837206229E+03  0.00000000000E+00 0.  1.
<scales pt_clust_3="57.70177" pt_clust_4="126.46262" pt_clust_5="57.70177" pt_clust_6="43.26859"></scales>
<clustering>
<clus scale="   43.269">  2  6  1 -1</clus>
<clus scale="   57.702">  3  5 -1 -1</clus>
<clus scale="  126.463">  1  4  2 -1</clus>
<clus scale="  126.463">  1  3  2 -1</clus>
</clustering>
</event>
<event>
 6    0  0.1438923E+002  0.1705745E+03  0.7546771E-02  0.1177250E+00
         21   -1    0    0  506  501  0.00000000000E+00  0.00000000000E+00  0.14061730535E+03  0.14061730535E+03  0.00000000000E+00 0.  1.
         21   -1    0    0  504  502 -0.00000000000E+00 -0.00000000000E+00 -0.72140234523E+03  0.72140234523E+03  0.00000000000E+00 0.  1.
         21    1    1    2  503  505 -0.69680180771E+02  0.92652641921E+01  0.23585242156E+02  0.74144698802E+02  0.00000000000E+00 0.  1.
         21    1    1    2  504  501 -0.51657608643E+02 -0.35942472646E+02 -0.35073176364E+01  0.63029129358E+02  0.00000000000E+00 0.  1.
         21    1    1    2  505  502  0.16694487548E+03 -0.22833546593E+02 -0.62952315443E+03  0.65168348472E+03  0.00000000000E+00 0.  1.
         21    1    1    2  506  503 -0.45607086069E+02  0.49510755047E+02  0.28660190030E+02  0.73162337699E+02  0.00000000000E+00 0.  1.
<scales pt_clust_3="46.14944" pt_clust_4="62.93147" pt_clust_5="163.92572" pt_clust_6="46.14944"></scales>
<clustering>
<clus scale="   46.149">  3  6 -1 -1</clus>
<clus scale="   62.931">  1  4  2 -1</clus>
<clus scale="  163.926">  2  5  1 -1</clus>
<clus scale="   62.931">  1  3  2 -1</clus>
</clustering>
</event>
<event>
 6    0  0.1438923E+002  0.3142209E+03  0.7546771E-02  0.1078340E+00
         21   -1    0    0  503  501  0.00000000000E+00  0.00000000000E+00  0.59529068857E+02  0.59529068857E+02  0.00000000000E+00 0.  1.
         21   -1    0    0  505  502 -0.00000000000E+00 -0.00000000000E+00 -0.18807418511E+04  0.18807418511E+04  0.00000000000E+00 0.  1.
         21    1    1    2  503  502 -0.27954392267E+03  0.16035351346E+03 -0.96680077862E+03  0.10190985230E+04  0.00000000000E+00 0.  1.
         21    1    1    2  504  506  0.12476173796E+03 -0.50435616371E+02 -0.28691664096E+03  0.31690755989E+03  0.00000000000E+00 0.  1.
         21    1    1    2  505  504  0.14968595337E+03 -0.69602143838E+02 -0.48460134515E+03  0.51194609754E+03  0.00000000000E+00 0.  1.
         21    1    1    2  506  501  0.50962313422E+01 -0.40315753252E+02 -0.82894017524E+02  0.92318739568E+02  0.00000000000E+00 0.  1.
<scales pt_clust_3="310.97743" pt_clust_4="40.83117" pt_clust_5="40.83117" pt_clust_6="40.63658"></scales>
<clustering>
<clus scale="   40.637">  1  6  2 -1</clus>
<clus scale="   40.831">  4  5 -1 -1</clus>
<clus scale="  310.977">  2  3  1 -1</clus>
<clus scale="   40.637">  1  3  2 -1</clus>
</clustering>
</event>
<event>
 6    0  0.1438923E+002  0.8160044E+02  0.7546771E-02  0.1324570E+00
         21   -1    0    0  505  501  0.00000000000E+00  0.00000000000E+00  0.19252001208E+03  0.19252001208E+03  0.00000000000E+00 0.  1.
         21   -1    0    0  504  502 -0.00000000000E+00 -0.00000000000E+00 -0.24122653383E+04  0.24122653383E+04  0.00000000000E+00 0. -1.
         21    1    1    2  503  501 -0.97188889071E+02 -0.13128867778E+02  0.97708540380E+02  0.13843773399E+03  0.00000000000E+00 0.  1.
         21    1    1    2  504  503  0.81328668124E+02 -0.54701571640E+01 -0.23173516984E+04  0.23187848475E+04  0.00000000000E+00 0. -1.
         21    1    1    2  505  506  0.42509835981E+01 -0.32236988577E+02  0.59846159430E+02  0.68109155718E+02  0.00000000000E+00 0.  1.
         21    1    1    2  506  502  0.11609237350E+02  0.50836013519E+02 -0.59948327642E+02  0.79453613193E+02  0.00000000000E+00 0.  1.
<scales pt_clust_3="14000.00000" pt_clust_4="81.60044" pt_clust_5="32.51606" pt_clust_6="49.83949"></scales>
<clustering>
<clus scale="   32.516">  1  5  2 -1</clus>
<clus scale="   49.839">  1  6  2 -1</clus>
<clus scale="   81.600">  2  4  1 -1</clus>
<clus scale="   32.516">  1  3  2 -1</clus>
</clustering>
</event>
<event>
 6    0  0.1438923E+002  0.1483372E+03  0.7546771E-02  0.1202531E+00
         21   -1    0    0  506  501  0.00000000000E+00  0.00000000000E+00  0.19776436656E+03  0.19776436656E+03  0.00000000000E+00 0.  1.
         21   -1    0    0  504  502 -0.00000000000E+00 -0.00000000000E+00 -0.66579780285E+03  0.66579780285E+03  0.00000000000E+00 0. -1.
         21    1    1    2  503  502 -0.59494032169E+01 -0.12514097668E+03  0.85793339985E+01  0.12557573179E+03  0.00000000000E+00 0. -1.
         21    1    1    2  504  505 -0.17310950832E+02  0.47150546409E+02 -0.55290237579E+03  0.55517914244E+03  0.00000000000E+00 0. -1.
         21    1    1    2  505  501  0.54828435577E+02  0.10890128150E+03  0.54702985804E+02  0.13363406421E+03  0.00000000000E+00 0.  1.
         21    1    1    2  506  503 -0.31568081528E+02 -0.30910851230E+02  0.21586619697E+02  0.49173230981E+02  0.00000000000E+00 0. -1.
<scales pt_clust_3="36.93095" pt_clust_4="50.22791" pt_clust_5="134.67166" pt_clust_6="36.93095"></scales>
<clustering>
<clus scale="   36.931">  3  6 -1 -1</clus>
<clus scale="   50.228">  2  4  1 -1</clus>
<clus scale="  134.672">  1  5  2 -1</clus>
<clus scale="  134.672">  1  3  2 -1</clus>
</clustering>
</event>
<event>
 6    0  0.1438923E+002  0.1100130E+03  0.7546771E-02  0.1260546E+00
         21   -1    0    0  503  501  0.00000000000E+00  0.00000000000E+00  0.88538355623E+02  0.88538355623E+02  0.00000000000E+00 0.  1.
         21   -1    0    0  506  502 -0.00000000000E+00 -0.00000000000E+00 -0.17117350323E+04  0.17117350323E+04  0.00000000000E+00 0.  1.
         21    1    1    2  503  502  0.22701078177E+02  0.69066785675E+02 -0.78343551122E+02  0.10687970732E+03  0.00000000000E+00 0. -1.
         21    1    1    2  504  505  0.71208435995E+02 -0.43429484680E+02 -0.30427622308E+02  0.88784017119E+02  0.00000000000E+00 0.  1.
         21    1    1    2  505  501 -0.15796348720E+02  0.61047581367E+02  0.19691586925E+02  0.66061262622E+02  0.00000000000E+00 0.  1.
         21    1    1    2  506  504 -0.78113165453E+02 -0.86684882362E+02 -0.15341170902E+04  0.15385484009E+04  0.00000000000E+00 0.  1.
<scales pt_clust_3="14000.00000" pt_clust_4="61.27410" pt_clust_5="63.05816" pt_clust_6="110.01297"></scales>
<clustering>
<clus scale="   63.058">  1  5  2 -1</clus>
<clus scale="   61.274">  1  4  2 -1</clus>
<clus scale="  110.013">  2  6  1 -1</clus>
<clus scale="   63.058">  1  3  2 -1</clus>
</clustering>
</event>
<event>
 6    0  0.1438923E+002  0.9122320E+02  0.7546771E-02  0.1299916E+00
         21   -1    0    0  503  501  0.00000000000E+00  0.00000000000E+00  0.80050533676E+03  0.80050533676E+03  0.00000000000E+00 0.  1.
         21   -1    0    0  506  502 -0.00000000000E+00 -0.00000000000E+00 -0.20146324790E+04  0.20146324790E+04  0.00000000000E+00 0.  1.
         21    1    1    2  503  505  0.88705878384E+02  0.28128464115E+02  0.76709836164E+03  0.77272235620E+03  0.00000000000E+00 0.  1.
         21    1    1    2  504  501 -0.49033663659E+02 -0.45060849679E+02 -0.23265214447E+02  0.70541126649E+02  0.00000000000E+00 0. -1.
         21    1    1    2  505  502 -0.33899743672E+02  0.60736415463E+02 -0.17428975193E+03  0.18765666098E+03  0.00000000000E+00 0.  1.
         21    1    1    2  506  504 -0.57724710534E+01 -0.43804029899E+02 -0.17836705375E+04  0.17842176719E+04  0.00000000000E+00 0.  1.
<scales pt_clust_3="91.22320" pt_clust_4="14000.00000" pt_clust_5="46.60725" pt_clust_6="44.18274"></scales>
<clustering>
<clus scale="   44.183">  2  6  1 -1</clus>
<clus scale="   46.607">  2  5  1 -1</clus>
<clus scale="   91.223">  1  3  2 -1</clus>
<clus scale="   91.223">  1  3  2 -1</clus>
</clustering>
</event>
<event>
 6    0  0.1438923E+002  0.1337094E+03  0.7546771E-02  0.1222053E+00
         21   -1    0    0  505  501  0.00000000000E+00  0.00000000000E+00  0.41254197593E+03  0.41254197593E+03  0.00000000000E+00 0.  1.
         21   -1    0    0  504  502 -0.00000000000E+00 -0.00000000000E+00 -0.13023392107E+03  0.13023392107E+03  0.00000000000E+00 0.  1.
         21    1    1    2  503  502  0.74156639833E+02 -0.13079509638E+03 -0.42528269920E+02  0.15625369823E+03  0.00000000000E+00 0.  1.
         21    1    1    2  504  506 -0.46300577627E+02  0.55124020349E+02  0.49745776766E+02  0.87504533677E+02  0.00000000000E+00 0.  1.
         21    1    1    2  505  503  0.65752229095E+01  0.79252467197E+02  0.22023091577E+03  0.23414919042E+03  0.00000000000E+00 0.  1.
         21    1    1    2  506  501 -0.34431285115E+02 -0.35813911649E+01  0.54859632238E+02  0.64868474675E+02  0.00000000000E+00 0.  1.
<scales pt_clust_3="14000.00000" pt_clust_4="75.96939" pt_clust_5="133.70940" pt_clust_6="34.61704"></scales>
<clustering>
<clus scale="   34.617">  1  6  2 -1</clus>
<clus scale="   75.969">  1  4  2 -1</clus>
<clus scale="  133.709">  1  5  2 -1</clus>
<clus scale="   34.617">  1  3  2 -1</clus>
</clustering>
</event>
<event>
 6    0  0.1438923E+002  0.1189574E+03  0.7546771E-02  0.1244827E+00
         21   -1    0    0  506  501  0.00000000000E+00  0.00000000000E+00  0.32751868651E+03  0.32751868651E+03  0.00000000000E+00 0.  1.
         21   -1    0    0  505  502 -0.00000000000E+00 -0.00000000000E+00 -0.74341097982E+03  0.74341097982E+03  0.00000000000E+00 0. -1.
         21    1    1    2  503  502 -0.10674042130E+02  0.12046628984E+03 -0.69421124160E+03  0.70466680788E+03  0.00000000000E+00 0. -1.
         21    1    1    2  504  503  0.40648298621E+02 -0.72839246125E+02  0.96949170951E+02  0.12789441624E+03  0.00000000000E+00 0.  1.
         21    1    1    2  505  501  0.22524708883E+02  0.25373299095E+02 -0.21577021996E+01  0.33997389547E+02  0.00000000000E+00 0. -1.
         21    1    1    2  506  504 -0.52498965374E+02 -0.73000342810E+02  0.18352747954E+03  0.20437105265E+03  0.00000000000E+00 0.  1.
<scales pt_clust_3="118.95738" pt_clust_4="14000.00000" pt_clust_5="33.92885" pt_clust_6="68.94406"></scales>
<clustering>
<clus scale="   33.929">  1  5  2 -1</clus>
<clus scale="   68.944">  1  6  2 -1</clus>
<clus scale="  118.957">  2  3  1 -1</clus>
<clus scale="   33.929">  1  3  2 -1</clus>
</clustering>
</event>
<event>
 6    0  0.1438923E+002  0.1094857E+03  0.7546771E-02  0.1261525E+00
         21   -1    0    0  503  501  0.00000000000E+00  0.00000000000E+00  0.52064418823E+03  0.52064418823E+03  0.00000000000E+00 0. -1.
         21   -1    0    0  505  502 -0.00000000000E+00 -0.00000000000E+00 -0.71161965662E+02  0.71161965662E+02  0.00000000000E+00 0. -1.
         21    1    1    2  503  504  0.43021351889E+02  0.48159901407E+02  0.30792587466E+03  0.31462446998E+03  0.00000000000E+00 0. -1.
         21    1    1    2  504  506  0.15345207118E+02  0.29926946777E+02  0.64259604873E+02  0.72528576046E+02  0.00000000000E+00 0. -1.
         21    1    1    2  505  501 -0.21701171108E+02  0.31604108228E+02 -0.28607192564E+02  0.47834422237E+02  0.00000000000E+00 0. -1.
         21    1    1    2  506  502 -0.36665387899E+02 -0.10969095641E+03  0.10590393560E+03  0.15681868563E+03  0.00000000000E+00 0. -1.
<scales pt_clust_3="31.13411" pt_clust_4="31.13411" pt_clust_5="38.33746" pt_clust_6="100.62745"></scales>
<clustering>
<clus scale="   31.134">  3  4 -1 -1</clus>
<clus scale="   38.337">  2  5  1 -1</clus>
<clus scale="  100.627">  2  6  1 -1</clus>
<clus scale="  109.486">  1  3  2 -1</clus>
</clustering>
</event>
<event>
 6    0  0.1438923E+002  0.1260757E+03  0.7546771E-02  0.1233398E+00
         21   -1    0    0  504  501  0.00000000000E+00  0.00000000000E+00  0.16116564783E+04  0.16116564783E+04  0.00000000000E+00 0. -1.
         21   -1    0    0  503  502 -0.00000000000E+00 -0.00000000000E+00 -0.11246286503E+03  0.11246286503E+03  0.00000000000E+00 0. -1.
         21    1    1    2  503  505 -0.97244499074E+01  0.29730701052E+02 -0.99433202739E+02  0.10423742763E+03  0.00000000000E+00 0. -1.
         21    1    1    2  504  502 -0.74636893894E+02  0.72456664194E+02  0.39101953183E+03  0.40461946121E+03  0.00000000000E+00 0.  1.
         21    1    1    2  505  506  0.33680679229E+02 -0.56144453996E+02  0.70055845564E+03  0.70361121199E+03  0.00000000000E+00 0. -1.
         21    1    1    2  506  501  0.50680664572E+02 -0.46042911251E+02  0.50704882855E+03  0.51165124252E+03  0.00000000000E+00 0. -1.
<scales pt_clust_3="31.28066" pt_clust_4="122.09302" pt_clust_5="30.74209" pt_clust_6="30.74209"></scales>
<clustering>
<clus scale="   30.742">  5  6 -1 -1</clus>
<clus scale="   31.281">  2  3  1 -1</clus>
<clus scale="  122.093">  2  4  1 -1</clus>
<clus scale="  126.076">  1  3  2 -1</clus>
</clustering>
</event>
<event>
 6    0  0.1438923E+002  0.1079070E+03  0.7546771E-02  0.1264496E+00
         21   -1    0    0  505  501  0.00000000000E+00  0.00000000000E+00  0.13067562683E+04  0.13067562683E+04  0.00000000000E+00 0. -1.
         21   -1    0    0  503  502 -0.00000000000E+00 -0.00000000000E+00 -0.85026872737E+02  0.85026872737E+02  0.00000000000E+00 0. -1.
         21    1    1    2  503  506 -0.61291098020E+02 -0.60432049760E+02  0.48246188045E+03  0.49007968477E+03  0.00000000000E+00 0. -1.
         21    1    1    2  504  501  0.28989171972E+02 -0.12177837810E+02  0.15750546729E+03  0.16061333709E+03  0.00000000000E+00 0.  1.
         21    1    1    2  505  502  0.10131366082E+02  0.11075618564E+03 -0.39679049368E+02  0.11808473311E+03  0.00000000000E+00 0. -1.
         21    1    1    2  506  504  0.22170559966E+02 -0.38146298068E+02  0.62144109723E+03  0.62300538610E+03  0.00000000000E+00 0. -1.
<scales pt_clust_3="107.90703" pt_clust_4="31.44315" pt_clust_5="14000.00000" pt_clust_6="58.63323"></scales>
<clustering>
<clus scale="   31.443">  1  4  2 -1</clus>
<clus scale="   58.633">  1  6  2 -1</clus>
<clus scale="  107.907">  1  3  2 -1</clus>
<clus scale="   31.443">  1  3  2 -1</clus>
</clustering>
</event>
<event>
 6    0  0.1438923E+002  0.7776116E+02  0.7546771E-02  0.1335528E+00
         21   -1    0    0  506  501  0.00000000000E+00  0.00000000000E+00  0.69485234187E+02  0.69485234187E+02  0.00000000000E+00 0. -1.
         21   -1    0    0  505  502 -0.00000000000E+00 -0.00000000000E+00 -0.84306569477E+03  0.84306569477E+03  0.00000000000E+00 0.  1.
         21    1    1    2  503  501  0.28407821278E+02 -0.48237098449E+02 -0.83133901827E+02  0.10022508473E+03  0.00000000000E+00 0. -1.
         21    1    1    2  504  502 -0.21383483897E+02  0.12029554445E+03 -0.53112561448E+03  0.54499788050E+03  0.00000000000E+00 0.  1.
         21    1    1    2  505  503  0.25773490586E+02 -0.36639034518E+02 -0.19953376077E+03  0.20450039940E+03  0.00000000000E+00 0.  1.
         21    1    1    2  506  504 -0.32797827967E+02 -0.35419411484E+02  0.40212816489E+02  0.62827564326E+02  0.00000000000E+00 0. -1.
<scales pt_clust_3="77.76116" pt_clust_4="14000.00000" pt_clust_5="44.79611" pt_clust_6="48.44396"></scales>
<clustering>
<clus scale="   44.796">  2  5  1 -1</clus>
<clus scale="   48.444">  1  6  2 -1</clus>
<clus scale="   77.761">  1  3  2 -1</clus>
<clus scale="   48.444">  1  3  2 -1</clus>
</clustering>
</event>
<event>
 6    0  0.1438923E+002  0.8218515E+02  0.7546771E-02  0.1322962E+00
         21   -1    0    0  504  501  0.00000000000E+00  0.00000000000E+00  0.40400068372E+03  0.40400068372E+03  0.00000000000E+00 0. -1.
         21   -1    0    0  506  502 -0.00000000000E+00 -0.00000000000E+00 -0.75124327645E+02  0.75124327645E+02  0.00000000000E+00 0. -1.
         21    1    1    2  503  502  0.11499988796E+03 -0.34117806059E+02  0.97788025905E+02  0.15476271169E+03  0.00000000000E+00 0. -1.
         21    1    1    2  504  503  0.35957440544E+01  0.69630249233E+02  0.54616816643E+02  0.88568039629E+02  0.00000000000E+00 0. -1.
         21    1    1    2  505  501 -0.49594970801E+02 -0.17492950860E+02  0.15128107140E+03  0.16016125319E+03  0.00000000000E+00 0.  1.
         21    1    1    2  506  505 -0.69000661210E+02 -0.18019492315E+02  0.25190442121E+02  0.75633006849E+02  0.00000000000E+00 0. -1.
<scales pt_clust_3="14000.00000" pt_clust_4="65.46727" pt_clust_5="52.58959" pt_clust_6="82.18515"></scales>
<clustering>
<clus scale="   52.590">  1  5  2 -1</clus>
<clus scale="   65.467">  1  4  2 -1</clus>
<clus scale="   82.185">  2  6  1 -1</clus>
<clus scale="   52.590">  1  3  2 -1</clus>
</clustering>
</event>
<event>
 6    0  0.1438923E+002  0.1648698E+03  0.7546771E-02  0.1183306E+00
         21   -1    0    0  503  501  0.00000000000E+00  0.00000000000E+00  0.28514010918E+03  0.28514010918E+03  0.00000000000E+00 0. -1.
         21   -1    0    0  504  502 -0.00000000000E+00 -0.00000000000E+00 -0.34843227895E+03  0.34843227895E+03  0.00000000000E+00 0. -1.
         21    1    1    2  503  505 -0.19139152413E+02 -0.38473146970E+02  0.61212198931E+02  0.74789193677E+02  0.00000000000E+00 0.  1.
         21    1    1    2  504  506 -0.36125198546E+01  0.33037086088E+02 -0.12040412199E+02  0.35347855420E+02  0.00000000000E+00 0. -1.
         21    1    1    2  505  502 -0.12846997714E+03  0.10609662304E+03  0.13639612101E+03  0.21532517334E+03  0.00000000000E+00 0. -1.
         21    1    1    2  506  501  0.15122164941E+03 -0.10066056216E+03 -0.24886007751E+03  0.30811016569E+03  0.00000000000E+00 0. -1.
<scales pt_clust_3="42.38776" pt_clust_4="33.23401" pt_clust_5="164.86977" pt_clust_6="14000.00000"></scales>
<clustering>
<clus scale="   33.234">  2  4  1 -1</clus>
<clus scale="   42.388">  1  3  2 -1</clus>
<clus scale="  164.870">  1  5  2 -1</clus>
<clus scale="   42.388">  1  3  2 -1</clus>
</clustering>
</event>
<event>
 6    0  0.1438923E+002  0.1135250E+03  0.7546771E-02  0.1254178E+00
         21   -1    0    0  505  501  0.00000000000E+00  0.00000000000E+00  0.27454362509E+03  0.27454362509E+03  0.00000000000E+00 0. -1.
         21   -1    0    0  504  502 -0.00000000000E+00 -0.00000000000E+00 -0.30013607938E+03  0.30013607938E+03  0.00000000000E+00 0. -1.
         21    1    1    2  503  506 -0.99182340103E+02  0.60354905880E+01  0.78733072540E+02  0.12677720791E+03  0.00000000000E+00 0. -1.
         21    1    1    2  504  503  0.78898387715E+01 -0.41027886961E+02 -0.20966106718E+03  0.21378330187E+03  0.00000000000E+00 0. -1.
         21    1    1    2  505  502  0.11893949355E+03 -0.35661673356E+02  0.31175280989E+02  0.12802443602E+03  0.00000000000E+00 0. -1.
         21    1    1    2  506  501 -0.27646992222E+02  0.70654069728E+02  0.74160259362E+02  0.10609475867E+03  0.00000000000E+00 0. -1.
<scales pt_clust_3="14000.00000" pt_clust_4="41.77962" pt_clust_5="113.52499" pt_clust_6="68.46514"></scales>
<clustering>
<clus scale="   41.780">  2  4  1 -1</clus>
<clus scale="   68.465">  1  6  2 -1</clus>
<clus scale="  113.525">  2  5  1 -1</clus>
<clus scale="   68.465">  1  3  2 -1</clus>
</clustering>
</event>
<event>
 6    0  0.1438923E+002  0.2108805E+03  0.7546771E-02  0.1140871E+00
         21   -1    0    0  505  501  0.00000000000E+00  0.00000000000E+00  0.39109614983E+03  0.39109614983E+03  0.00000000000E+00 0.  1.
         21   -1    0    0  503  502 -0.00000000000E+00 -0.00000000000E+00 -0.19617199712E+03  0.19617199712E+03  0.00000000000E+00 0.  1.
         21    1    1    2  503  506 -0.22102668692E+02  0.30994514555E+02 -0.25851596609E+02  0.46016224780E+02  0.00000000000E+00 0. -1.
         21    1    1    2  504  502  0.46061949442E+02 -0.21030175315E+01 -0.34737471331E+02  0.57730561955E+02  0.00000000000E+00 0.  1.
         21    1    1    2  505  504  0.14152386204E+03 -0.12213138993E+03  0.22271112223E+03  0.29076678610E+03  0.00000000000E+00 0.  1.
         21    1    1    2  506  501 -0.16548314279E+03  0.93239892909E+02  0.32802098423E+02  0.19275457411E+03  0.00000000000E+00 0.  1.
<scales pt_clust_3="35.64785" pt_clust_4="46.10993" pt_clust_5="195.26911" pt_clust_6="35.64785"></scales>
<clustering>
<clus scale="   35.648">  3  6 -1 -1</clus>
<clus scale="   46.110">  2  4  1 -1</clus>
<clus scale="  195.269">  1  5  2 -1</clus>
<clus scale="  195.269">  1  3  2 -1</clus>
</clustering>
</event>
<event>
 6    0  0.1438923E+002  0.1716946E+03  0.7546771E-02  0.1176092E+00
         21   -1    0    0  506  501  0.00000000000E+00  0.00000000000E+00  0.36893067972E+02  0.36893067972E+02  0.00000000000E+00 0.  1.
         21   -1    0    0  504  502 -0.00000000000E+00 -0.00000000000E+00 -0.10045837134E+04  0.10045837134E+04  0.00000000000E+00 0.  1.
         21    1    1    2  503  505 -0.11734583073E+03  0.21888426175E+02 -0.28122046054E+03  0.30550629226E+03  0.00000000000E+00 0.  1.
         21    1    1    2  504  501  0.16550601081E+03 -0.28503860529E+02 -0.34301256714E+03  0.38191927274E+03  0.00000000000E+00 0.  1.
         21    1    1    2  505  502 -0.63193712369E+01  0.30157577480E+02 -0.20942899053E+03  0.21168352796E+03  0.00000000000E+00 0.  1.
         21    1    1    2  506  503 -0.41840808843E+02 -0.23542143126E+02 -0.13402862721E+03  0.14236768840E+03  0.00000000000E+00 0.  1.
<scales pt_clust_3="32.53790" pt_clust_4="163.28768" pt_clust_5="30.81256" pt_clust_6="32.53790"></scales>
<clustering>
<clus scale="   30.813">  2  5  1 -1</clus>
<clus scale="   32.538">  3  6 -1 -1</clus>
<clus scale="  163.288">  1  4  2 -1</clus>
<clus scale="  163.288">  1  3  2 -1</clus>
</clustering>
</event>
<event>
 6    0  0.1438923E+002  0.1427236E+03  0.7546771E-02  0.1209710E+00
         21   -1    0    0  505  501  0.00000000000E+00  0.00000000000E+00  0.36997476701E+04  0.36997476701E+04  0.00000000000E+00 0.  1.
         21   -1    0    0  504  502 -0.00000000000E+00 -0.00000000000E+00 -0.69535154988E+03  0.69535154988E+03  0.00000000000E+00 0.  1.
         21    1    1    2  503  506  0.63673851980E+02 -0.92705563330E+02  0.38806239337E+03  0.40403106569E+03  0.00000000000E+00 0.  1.
         21    1    1    2  504  503  0.96272817365E+02  0.38532315449E+02 -0.68032484673E+03  0.68818245529E+03  0.00000000000E+00 0.  1.
         21    1    1    2  505  502 -0.24465582566E+02  0.22386443928E+02  0.17424394255E+03  0.17737155667E+03  0.00000000000E+00 0. -1.
         21    1    1    2  506  501 -0.13548108678E+03  0.31786803953E+02  0.31224146311E+04  0.31255141424E+04  0.00000000000E+00 0.  1.
<scales pt_clust_3="14000.00000" pt_clust_4="103.68157" pt_clust_5="33.16199" pt_clust_6="142.72361"></scales>
<clustering>
<clus scale="   33.162">  1  5  2 -1</clus>
<clus scale="  103.682">  2  4  1 -1</clus>
<clus scale="  142.724">  1  6  2 -1</clus>
<clus scale="   33.162">  1  3  2 -1</clus>
</clustering>
</event>
<event>
 6    0  0.1438923E+002  0.9096970E+02  0.7546771E-02  0.1300520E+00
         21   -1    0    0  505  501  0.00000000000E+00  0.00000000000E+00  0.30027644891E+03  0.30027644891E+03  0.00000000000E+00 0. -1.
         21   -1    0    0  506  502 -0.00000000000E+00 -0.00000000000E+00 -0.21181233787E+03  0.21181233787E+03  0.00000000000E+00 0.  1.
         21    1    1    2  503  504 -0.33117914788E+02  0.14733860531E+02  0.10705459472E+01  0.36263328511E+02  0.00000000000E+00 0.  1.
         21    1    1    2  504  501 -0.78269915929E+02 -0.44178281468E+02  0.15624406442E+03  0.18025012610E+03  0.00000000000E+00 0. -1.
         21    1    1    2  505  502  0.10240575328E+03 -0.25520931240E+01  0.88120631174E+02  0.13512474652E+03  0.00000000000E+00 0. -1.
         21    1    1    2  506  503  0.89820774358E+01  0.31996514061E+02 -0.15697113049E+03  0.16045058565E+03  0.00000000000E+00 0.  1.
<scales pt_clust_3="39.37582" pt_clust_4="90.96970" pt_clust_5="14000.00000" pt_clust_6="33.23334"></scales>
<clustering>
<clus scale="   33.233">  2  6  1 -1</clus>
<clus scale="   39.376">  2  3  1 -1</clus>
<clus scale="   90.970">  1  4  2 -1</clus>
<clus scale="   90.970">  1  3  2 -1</clus>
</clustering>
</event>
<event>
 6    0  0.1438923E+002  0.1583686E+03  0.7546771E-02  0.1190551E+00
         21   -1    0    0  506  501  0.00000000000E+00  0.00000000000E+00  0.63965298787E+03  0.63965298787E+03  0.00000000000E+00 0.  1.
         21   -1    0    0  504  502 -0.00000000000E+00 -0.00000000000E+00 -0.31109791564E+03  0.31109791564E+03  0.00000000000E+00 0.  1.
         21    1    1    2  503  501 -0.80003301440E+02  0.73387819504E+02  0.33446542341E+03  0.35164388200E+03  0.00000000000E+00 0.  1.
         21    1    1    2  504  505  0.57086066203E+02  0.55147750769E+00  0.14199376517E+02  0.58828100220E+02  0.00000000000E+00 0.  1.
         21    1    1    2  505  503  0.10117676133E+03  0.93847964455E+02  0.20605578013E+03  0.24799831046E+03  0.00000000000E+00 0.  1.
         21    1    1    2  506  502 -0.78259526095E+02 -0.16778726147E+03 -0.22616550782E+03  0.29228061083E+03  0.00000000000E+00 0.  1.
<scales pt_clust_3="107.33087" pt_clust_4="57.08873" pt_clust_5="158.36865" pt_clust_6="14000.00000"></scales>
<clustering>
<clus scale="   57.089">  2  4  1 -1</clus>
<clus scale="  107.331">  1  3  2 -1</clus>
<clus scale="  158.369">  1  5  2 -1</clus>
<clus scale="  107.331">  1  3  2 -1</clus>
</clustering>
</event>
<event>
 6    0  0.1438923E+002  0.1076066E+03  0.7546771E-02  0.1265067E+00
         21   -1    0    0  505  501  0.00000000000E+00  0.00000000000E+00  0.12201856727E+04  0.12201856727E+04  0.00000000000E+00 0. -1.
         21   -1    0    0  506  502 -0.00000000000E+00 -0.00000000000E+00 -0.45639362529E+02  0.45639362529E+02  0.00000000000E+00 0. -1.
         21    1    1    2  503  501 -0.16667524121E+02  0.11179558187E+03  0.76776706879E+03  0.77604273749E+03  0.00000000000E+00 0. -1.
         21    1    1    2  504  502  0.34786523508E+02  0.55389213358E+01  0.21583286188E+03  0.21868837677E+03  0.00000000000E+00 0. -1.
         21    1    1    2  505  504  0.39867665460E+02 -0.24269218160E+02  0.14478372934E+03  0.15212085321E+03  0.00000000000E+00 0. -1.
         21    1    1    2  506  503 -0.57986664846E+02 -0.93065285046E+02  0.46162650144E+02  0.11897306775E+03  0.00000000000E+00 0. -1.
<scales pt_clust_3="107.60661" pt_clust_4="33.99289" pt_clust_5="86.34326" pt_clust_6="14000.00000"></scales>
<clustering>
<clus scale="   33.993">  4  5 -1 -1</clus>
<clus scale="   86.343">  1  4  2 -1</clus>
<clus scale="  107.607">  1  3  2 -1</clus>
<clus scale="   86.343">  1  3  2 -1</clus>
</clustering>
</event>
<event>
 6    0  0.1438923E+002  0.9612451E+02  0.7546771E-02  0.1288663E+00
         21   -1    0    0  506  501  0.00000000000E+00  0.00000000000E+00  0.78538524291E+03  0.78538524291E+03  0.00000000000E+00 0.  1.
         21   -1    0    0  505  502 -0.00000000000E+00 -0.00000000000E+00 -0.70906376431E+02  0.70906376431E+02  0.00000000000E+00 0.  1.
         21    1    1    2  503  502 -0.88606326298E+02 -0.74161971019E+01 -0.23616783486E+02  0.91999095113E+02  0.00000000000E+00 0.  1.
         21    1    1    2  504  503  0.42795074727E+02 -0.41645245683E+02  0.22313883328E+03  0.23099065745E+03  0.00000000000E+00 0.  1.
         21    1    1    2  505  501 -0.38640568169E+01  0.70477543888E+02  0.16909505164E+03  0.18323523574E+03  0.00000000000E+00 0.  1.
         21    1    1    2  506  504  0.49675308388E+02 -0.21416101103E+02  0.34586176504E+03  0.35006663103E+03  0.00000000000E+00 0.  1.
<scales pt_clust_3="88.89058" pt_clust_4="34.82029" pt_clust_5="70.58339" pt_clust_6="34.82029"></scales>
<clustering>
<clus scale="   34.820">  4  6 -1 -1</clus>
<clus scale="   70.583">  1  5  2 -1</clus>
<clus scale="   88.891">  2  3  1 -1</clus>
<clus scale="   70.583">  1  3  2 -1</clus>
</clustering>
</event>
<event>
 6    0  0.1438923E+002  0.1145212E+03  0.7546771E-02  0.1252419E+00
         21   -1    0    0  503  501  0.00000000000E+00  0.00000000000E+00  0.65357436501E+03  0.65357436501E+03  0.00000000000E+00 0.  1.
         21   -1    0    0  506  502 -0.00000000000E+00 -0.00000000000E+00 -0.11200721800E+03  0.11200721800E+03  0.00000000000E+00 0.  1.
         21    1    1    2  503  504 -0.11945408506E+02  0.49666283524E+02  0.25567722449E+03  0.26073027371E+03  0.00000000000E+00 0.  1.
         21    1    1    2  504  502 -0.35261514464E+02  0.63758104976E+02  0.21300605660E+03  0.22512230120E+03  0.00000000000E+00 0.  1.
         21    1    1    2  505  501  0.71142245996E+00 -0.92463448648E+02  0.15650621060E+03  0.18178060792E+03  0.00000000000E+00 0.  1.
         21    1    1    2  506  505  0.46495500509E+02 -0.20960939852E+02 -0.83622344680E+02  0.97948400175E+02  0.00000000000E+00 0.  1.
<scales pt_clust_3="30.13348" pt_clust_4="30.13348" pt_clust_5="108.71979" pt_clust_6="51.00189"></scales>
<clustering>
<clus scale="   30.133">  3  4 -1 -1</clus>
<clus scale="   51.002">  2  6  1 -1</clus>
<clus scale="  108.720">  2  5  1 -1</clus>
<clus scale="  114.521">  1  3  2 -1</clus>
</clustering>
</event>
<event>
 6    0  0.1438923E+002  0.1164414E+03  0.7546771E-02  0.1249086E+00
         21   -1    0    0  504  501  0.00000000000E+00  0.00000000000E+00  0.19948230812E+04  0.19948230812E+04  0.00000000000E+00 0. -1.
         21   -1    0    0  503  502 -0.00000000000E+00 -0.00000000000E+00 -0.46126500911E+02  0.46126500911E+02  0.00000000000E+00 0. -1.
         21    1    1    2  503  505  0.42166935895E+02  0.14489316054E+02  0.79646874427E+02  0.91277682751E+02  0.00000000000E+00 0. -1.
         21    1    1    2  504  506  0.69340579781E+02  0.72294013777E+02  0.95563504876E+03  0.96087090020E+03  0.00000000000E+00 0. -1.
         21    1    1    2  505  501 -0.14325715512E+03 -0.83398406173E+02  0.93543872825E+03  0.95001237937E+03  0.00000000000E+00 0. -1.
         21    1    1    2  506  502  0.31749639447E+02 -0.33849236574E+01 -0.22024071164E+02  0.38788619772E+02  0.00000000000E+00 0. -1.
<scales pt_clust_3="55.51346" pt_clust_4="116.44145" pt_clust_5="14000.00000" pt_clust_6="31.92957"></scales>
<clustering>
<clus scale="   31.930">  2  6  1 -1</clus>
<clus scale="   55.513">  2  3  1 -1</clus>
<clus scale="  116.441">  1  4  2 -1</clus>
<clus scale="  116.441">  1  3  2 -1</clus>
</clustering>
</event>
<event>
 6    0  0.1438923E+002  0.1041063E+03  0.7546771E-02  0.1271891E+00
         21   -1    0    0  503  501  0.00000000000E+00  0.00000000000E+00  0.29007469309E+03  0.29007469309E+03  0.00000000000E+00 0. -1.
         21   -1    0    0  506  502 -0.00000000000E+00 -0.00000000000E+00 -0.21824189953E+03  0.21824189953E+03  0.00000000000E+00 0. -1.
         21    1    1    2  503  505 -0.69639907712E+02  0.34478049210E+02  0.13957052398E+03  0.15974474572E+03  0.00000000000E+00 0. -1.
         21    1    1    2  504  502  0.84250185402E+02 -0.39325287435E+02 -0.17274330580E+03  0.19617548693E+03  0.00000000000E+00 0. -1.
         21    1    1    2  505  504 -0.36192622927E+02  0.48872335879E+02  0.65970189436E+02  0.89724450753E+02  0.00000000000E+00 0. -1.
         21    1    1    2  506  501  0.21582345237E+02 -0.44025097653E+02  0.39035385949E+02  0.62671909222E+02  0.00000000000E+00 0. -1.
<scales pt_clust_3="37.94820" pt_clust_4="94.85795" pt_clust_5="37.94820" pt_clust_6="49.03067"></scales>
<clustering>
<clus scale="   37.948">  3  5 -1 -1</clus>
<clus scale="   49.031">  1  6  2 -1</clus>
<clus scale="   94.858">  2  4  1 -1</clus>
<clus scale="   49.031">  1  3  2 -1</clus>
</clustering>
</event>
<event>
 6    0  0.1438923E+002  0.3013296E+03  0.7546771E-02  0.1084578E+00
         21   -1    0    0  505  501  0.00000000000E+00  0.00000000000E+00  0.50380484487E+03  0.50380484487E+03  0.00000000000E+00 0.  1.
         21   -1    0    0  503  502 -0.00000000000E+00 -0.00000000000E+00 -0.82827326037E+03  0.82827326037E+03  0.00000000000E+00 0. -1.
         21    1    1    2  503  504  0.90817491665E+02  0.26725255911E+03 -0.70589292995E+03  0.76023455308E+03  0.00000000000E+00 0. -1.
         21    1    1    2  504  501 -0.60760777513E+02  0.50762478667E+02  0.25643393800E+02  0.83224305163E+02  0.00000000000E+00 0.  1.
         21    1    1    2  505  506  0.21650227639E+02 -0.64563875792E+02  0.35087256297E+02  0.76605104063E+02  0.00000000000E+00 0. -1.
         21    1    1    2  506  502 -0.51706941791E+02 -0.25345116198E+03  0.32069386435E+03  0.41201414293E+03  0.00000000000E+00 0.  1.
<scales pt_clust_3="284.02100" pt_clust_4="79.17513" pt_clust_5="51.64507" pt_clust_6="51.64507"></scales>
<clustering>
<clus scale="   51.645">  5  6 -1 -1</clus>
<clus scale="   79.175">  1  4  2 -1</clus>
<clus scale="  284.021">  2  3  1 -1</clus>
<clus scale="   79.175">  1  3  2 -1</clus>
</clustering>
</event>
<event>
 6    0  0.3367725E+002  0.1885565E+03  0.7546771E-02  0.1159770E+00
         21   -1    0    0  502  501  0.00000000000E+00  0.00000000000E+00  0.29852450534E+03  0.29852450534E+03  0.00000000000E+00 0. -1.
         21   -1    0    0  506  502 -0.00000000000E+00 -0.00000000000E+00 -0.27866293704E+04  0.27866293704E+04  0.00000000000E+00 0. -1.
         21    1    1    2  503  504  0.24108929762E+02  0.29419047056E+02 -0.93995717049E+02  0.10139978130E+03  0.00000000000E+00 0. -1.
         21    1    1    2  504  501 -0.13256113902E+03 -0.11492348297E+03  0.26312215143E+03  0.31624852425E+03  0.00000000000E+00 0. -1.
         21    1    1    2  505  503  0.11301953195E+03  0.54726325995E+02 -0.78214177980E+03  0.79215790665E+03  0.00000000000E+00 0.  1.
         21    1    1    2  506  505 -0.45673226920E+01  0.30778109922E+02 -0.18750895197E+04  0.18753476636E+04  0.00000000000E+00 0. -1.
<scales pt_clust_3="38.29347" pt_clust_4="174.95656" pt_clust_5="38.29347" pt_clust_6="31.11515"></scales>
<clustering>
<clus scale="   31.115">  2  6  1 -1</clus>
<clus scale="   38.293">  3  5 -1 -1</clus>
<clus scale="  174.957">  1  4  2 -1</clus>
<clus scale="  174.957">  1  3  2 -1</clus>
</clustering>
</event>
<event>
 6    0  0.1438923E+002  0.2081866E+03  0.7546771E-02  0.1143010E+00
         21   -1    0    0  506  501  0.00000000000E+00  0.00000000000E+00  0.59193552038E+02  0.59193552038E+02  0.00000000000E+00 0. -1.
         21   -1    0    0  503  502 -0.00000000000E+00 -0.00000000000E+00 -0.12491827545E+04  0.12491827545E+04  0.00000000000E+00 0. -1.
         21    1    1    2  503  501 -0.19640731604E+02  0.29801209473E+02 -0.25522389494E+03  0.25770740574E+03  0.00000000000E+00 0.  1.
         21    1    1    2  504  502  0.21131419451E+03 -0.25016163420E+02 -0.73564508798E+03  0.76580231960E+03  0.00000000000E+00 0. -1.
         21    1    1    2  505  504 -0.57603172244E+02 -0.31632239119E+02 -0.79934494557E+02  0.10348066208E+03  0.00000000000E+00 0. -1.
         21    1    1    2  506  505 -0.13407029067E+03  0.26847193066E+02 -0.11918572498E+03  0.18138591912E+03  0.00000000000E+00 0. -1.
<scales pt_clust_3="35.69132" pt_clust_4="196.47691" pt_clust_5="47.18807" pt_clust_6="47.18807"></scales>
<clustering>
<clus scale="   35.691">  2  3  1 -1</clus>
<clus scale="   47.188">  5  6 -1 -1</clus>
<clus scale="  196.477">  2  4  1 -1</clus>
<clus scale="  208.187">  1  3  2 -1</clus>
</clustering>
</event>
<event>
 6    0  0.1438923E+002  0.9748412E+02  0.7546771E-02  0.1285677E+00
         21   -1    0    0  505  501  0.00000000000E+00  0.00000000000E+00  0.16179657660E+03  0.16179657660E+03  0.00000000000E+00 0. -1.
         21   -1    0    0  506  502 -0.00000000000E+00 -0.00000000000E+00 -0.25274952105E+04  0.25274952105E+04  0.00000000000E+00 0.  1.
         21    1    1    2  503  502  0.85580170410E+02  0.35651416001E+02 -0.23781850708E+04  0.23799914328E+04  0.00000000000E+00 0.  1.
         21    1    1    2  504  503  0.81384088867E+00  0.82343223149E+02  0.75226569763E+02  0.11153522105E+03  0.00000000000E+00 0. -1.
         21    1    1    2  505  504 -0.34951855985E+02  0.10491397789E+02  0.14501633736E+02  0.39268295677E+02  0.00000000000E+00 0.  1.
         21    1    1    2  506  501 -0.51442155314E+02 -0.12848603694E+03 -0.77241766637E+02  0.15849683765E+03  0.00000000000E+00 0.  1.
<scales pt_clust_3="92.52031" pt_clust_4="97.48412" pt_clust_5="36.49249" pt_clust_6="14000.00000"></scales>
<clustering>
<clus scale="   36.492">  1  5  2 -1</clus>
<clus scale="   92.520">  2  3  1 -1</clus>
<clus scale="   97.484">  1  4  2 -1</clus>
<clus scale="   36.492">  1  3  2 -1</clus>
</clustering>
</event>
<event>
 6    0  0.1438923E+002  0.1049205E+03  0.7546771E-02  0.1270276E+00
         21   -1    0    0  505  501  0.00000000000E+00  0.00000000000E+00  0.22445006670E+03  0.22445006670E+03  0.00000000000E+00 0. -1.
         21   -1    0    0  503  502 -0.00000000000E+00 -0.00000000000E+00 -0.12889857734E+03  0.12889857734E+03  0.00000000000E+00 0. -1.
         21    1    1    2  503  506 -0.82968059162E+02 -0.11152710731E+03 -0.37686715872E+02  0.14402181453E+03  0.00000000000E+00 0. -1.
         21    1    1    2  504  501  0.42150885407E+02  0.30954292802E+02  0.67048637353E+02  0.85031671478E+02  0.00000000000E+00 0. -1.
         21    1    1    2  505  502  0.32727718011E+02  0.35599862356E+02  0.60044207932E+01  0.48728911285E+02  0.00000000000E+00 0. -1.
         21    1    1    2  506  504  0.80894557446E+01  0.44972952152E+02  0.60185147083E+02  0.75566246757E+02  0.00000000000E+00 0.  1.
<scales pt_clust_3="98.45856" pt_clust_4="33.88695" pt_clust_5="48.35756" pt_clust_6="33.88695"></scales>
<clustering>
<clus scale="   33.887">  4  6 -1 -1</clus>
<clus scale="   48.358">  2  5  1 -1</clus>
<clus scale="   98.459">  2  3  1 -1</clus>
<clus scale="  104.920">  1  3  2 -1</clus>
</clustering>
</event>
<event>
 6    0  0.1438923E+002  0.1103341E+03  0.7546771E-02  0.1259952E+00
         21   -1    0    0  504  501  0.00000000000E+00  0.00000000000E+00  0.13646269621E+04  0.13646269621E+04  0.00000000000E+00 0. -1.
         21   -1    0    0  506  502 -0.00000000000E+00 -0.00000000000E+00 -0.11918875617E+03  0.11918875617E+03  0.00000000000E+00 0.  1.
         21    1    1    2  503  502  0.10229622497E+02 -0.74988177847E+02 -0.82594392752E+02  0.11202546901E+03  0.00000000000E+00 0.  1.
         21    1    1    2  504  505 -0.28034961627E+02 -0.88043728317E+02  0.78012819017E+03  0.78558109083E+03  0.00000000000E+00 0. -1.
         21    1    1    2  505  503 -0.23976891391E+02  0.16444755311E+03  0.45227711251E+03  0.48184279132E+03  0.00000000000E+00 0.  1.
         21    1    1    2  506  501  0.41782230521E+02 -0.14156469476E+01  0.95627295979E+02  0.10436636709E+03  0.00000000000E+00 0.  1.
<scales pt_clust_3="75.76626" pt_clust_4="110.33410" pt_clust_5="14000.00000" pt_clust_6="41.80621"></scales>
<clustering>
<clus scale="   41.806">  1  6  2 -1</clus>
<clus scale="   75.766">  2  3  1 -1</clus>
<clus scale="  110.334">  1  4  2 -1</clus>
<clus scale="   41.806">  1  3  2 -1</clus>
</clustering>
</event>
<event>
 6    0  0.1438923E+002  0.8402907E+02  0.7546771E-02  0.1317991E+00
         21   -1    0    0  504  501  0.00000000000E+00  0.00000000000E+00  0.10259754461E+03  0.10259754461E+03  0.00000000000E+00 0. -1.
         21   -1    0    0  501  502 -0.00000000000E+00 -0.00000000000E+00 -0.33835076128E+03  0.33835076128E+03  0.00000000000E+00 0. -1.
         21    1    1    2  503  506  0.73050923953E+02  0.36225818994E+02 -0.25454053416E+02  0.85420467614E+02  0.00000000000E+00 0. -1.
         21    1    1    2  504  503 -0.41874242543E+02 -0.54786082329E+02  0.91479259688E+01  0.69560416582E+02  0.00000000000E+00 0. -1.
         21    1    1    2  505  502  0.59933360725E+02 -0.40502561086E+02 -0.11113001461E+03  0.13259843638E+03  0.00000000000E+00 0.  1.
         21    1    1    2  506  505 -0.91110042134E+02  0.59062824421E+02 -0.10831707461E+03  0.15336898532E+03  0.00000000000E+00 0. -1.
<scales pt_clust_3="54.17752" pt_clust_4="68.95627" pt_clust_5="84.02907" pt_clust_6="14000.00000"></scales>
<clustering>
<clus scale="   68.956">  1  4  2 -1</clus>
<clus scale="   54.178">  1  3  2 -1</clus>
<clus scale="   84.029">  2  5  1 -1</clus>
<clus scale="   68.956">  1  3  2 -1</clus>
</clustering>
</event>
<event>
 6    0  0.1438923E+002  0.1849867E+03  0.7546771E-02  0.1163062E+00
         21   -1    0    0  505  501  0.00000000000E+00  0.00000000000E+00  0.14362835310E+03  0.14362835310E+03  0.00000000000E+00 0. -1.
         21   -1    0    0  501  502 -0.00000000000E+00 -0.00000000000E+00 -0.33168000900E+03  0.33168000900E+03  0.00000000000E+00 0. -1.
         21    1    1    2  503  504  0.16389509143E+02 -0.10831522674E+03 -0.65063202891E+02  0.12741281225E+03  0.00000000000E+00 0. -1.
         21    1    1    2  504  502  0.44670523804E+02 -0.34916658357E+02 -0.18995808726E+02  0.59795229549E+02  0.00000000000E+00 0. -1.
         21    1    1    2  505  506 -0.12157791019E+02 -0.45064134540E+02  0.26663873924E+02  0.53754537269E+02  0.00000000000E+00 0.  1.
         21    1    1    2  506  503 -0.48902241927E+02  0.18829601964E+03 -0.13065651821E+03  0.23434578304E+03  0.00000000000E+00 0. -1.
<scales pt_clust_3="43.98000" pt_clust_4="43.98000" pt_clust_5="46.67535" pt_clust_6="174.59339"></scales>
<clustering>
<clus scale="   43.980">  3  4 -1 -1</clus>
<clus scale="   46.675">  1  5  2 -1</clus>
<clus scale="  174.593">  1  6  2 -1</clus>
<clus scale="   46.675">  1  3  2 -1</clus>
</clustering>
</event>
<event>
 6    0  0.1438923E+002  0.1495548E+03  0.7546771E-02  0.1201021E+00
         21   -1    0    0  506  501  0.00000000000E+00  0.00000000000E+00  0.72353940817E+03  0.72353940817E+03  0.00000000000E+00 0.  1.
         21   -1    0    0  503  502 -0.00000000000E+00 -0.00000000000E+00 -0.50154712391E+03  0.50154712391E+03  0.00000000000E+00 0.  1.
         21    1    1    2  503  505 -0.35782715302E+02 -0.39481314325E+01 -0.43813979892E+03  0.43961628024E+03  0.00000000000E+00 0.  1.
         21    1    1    2  504  501  0.61851088139E+02  0.50595430326E+02  0.42559032198E+03  0.43302722413E+03  0.00000000000E+00 0.  1.
         21    1    1    2  505  504  0.57507552809E+02  0.38769195205E+02  0.22164931027E+03  0.23224682101E+03  0.00000000000E+00 0.  1.
         21    1    1    2  506  502 -0.83575925646E+02 -0.85416494099E+02  0.12892450935E+02  0.12019620669E+03  0.00000000000E+00 0.  1.
<scales pt_clust_3="35.99987" pt_clust_4="35.32688" pt_clust_5="35.32688" pt_clust_6="144.66773"></scales>
<clustering>
<clus scale="   35.327">  4  5 -1 -1</clus>
<clus scale="   36.000">  2  3  1 -1</clus>
<clus scale="  144.668">  2  6  1 -1</clus>
<clus scale="  149.555">  1  3  2 -1</clus>
</clustering>
</event>
<event>
 6    0  0.1438923E+002  0.1873080E+03  0.7546771E-02  0.1160912E+00
         21   -1    0    0  506  501  0.00000000000E+00  0.00000000000E+00  0.20317857769E+03  0.20317857769E+03  0.00000000000E+00 0.  1.
         21   -1    0    0  504  502 -0.00000000000E+00 -0.00000000000E+00 -0.74432366816E+03  0.74432366816E+03  0.00000000000E+00 0. -1.
         21    1    1    2  503  501  0.14477739468E+02  0.38960977173E+02  0.17374364088E+02  0.45049208759E+02  0.00000000000E+00 0.  1.
         21    1    1    2  504  505 -0.23388760968E+03  0.51461195623E+02 -0.53380052254E+03  0.58505954097E+03  0.00000000000E+00 0. -1.
         21    1    1    2  505  503  0.14121953656E+03 -0.12858832425E+03  0.55663405878E+02  0.19893800389E+03  0.00000000000E+00 0.  1.
         21    1    1    2  506  502  0.78190333656E+02  0.38166151451E+02 -0.80382337893E+02  0.11845549223E+03  0.00000000000E+00 0.  1.
<scales pt_clust_3="41.56396" pt_clust_4="187.30799" pt_clust_5="14000.00000" pt_clust_6="90.39578"></scales>
<clustering>
<clus scale="   41.564">  1  3  2 -1</clus>
<clus scale="   90.396">  2  6  1 -1</clus>
<clus scale="  187.308">  2  4  1 -1</clus>
<clus scale="   41.564">  1  3  2 -1</clus>
</clustering>
</event>
<event>
 6    0  0.1438923E+002  0.8212261E+02  0.7546771E-02  0.1323133E+00
         21   -1    0    0  503  501  0.00000000000E+00  0.00000000000E+00  0.31893552380E+03  0.31893552380E+03  0.00000000000E+00 0. -1.
         21   -1    0    0  504  502 -0.00000000000E+00 -0.00000000000E+00 -0.21166371637E+03  0.21166371637E+03  0.00000000000E+00 0. -1.
         21    1    1    2  503  506  0.52245550389E+02 -0.92055576427E+00  0.19761245430E+03  0.20440432249E+03  0.00000000000E+00 0. -1.
         21    1    1    2  504  501 -0.10974138120E+03  0.50155876175E+02 -0.16452081634E+03  0.20402421834E+03  0.00000000000E+00 0. -1.
         21    1    1    2  505  502  0.32251141243E+02 -0.20166821614E+01  0.21036805178E+01  0.32382535265E+02  0.00000000000E+00 0.  1.
         21    1    1    2  506  505  0.25244689567E+02 -0.47218638249E+02  0.72076488944E+02  0.89788164075E+02  0.00000000000E+00 0. -1.
<scales pt_clust_3="52.81149" pt_clust_4="82.12261" pt_clust_5="32.31413" pt_clust_6="14000.00000"></scales>
<clustering>
<clus scale="   32.314">  2  5  1 -1</clus>
<clus scale="   52.811">  1  3  2 -1</clus>
<clus scale="   82.123">  2  4  1 -1</clus>
<clus scale="   52.811">  1  3  2 -1</clus>
</clustering>
</event>
<event>
 6    0  0.1438923E+002  0.2296671E+03  0.7546771E-02  0.1126874E+00
         21   -1    0    0  506  501  0.00000000000E+00  0.00000000000E+00  0.95954325128E+03  0.95954325128E+03  0.00000000000E+00 0. -1.
         21   -1    0    0  503  502 -0.00000000000E+00 -0.00000000000E+00 -0.68968793625E+02  0.68968793625E+02  0.00000000000E+00 0. -1.
         21    1    1    2  503  504  0.38369633746E+02  0.18890652352E+02  0.29858722731E+02  0.52159647844E+02  0.00000000000E+00 0.  1.
         21    1    1    2  504  501  0.91491438554E+02 -0.20252442903E+03  0.33725843471E+03  0.40389364871E+03  0.00000000000E+00 0. -1.
         21    1    1    2  505  502 -0.11375220127E+03  0.13153083224E+03  0.35333930397E+03  0.39381288305E+03  0.00000000000E+00 0. -1.
         21    1    1    2  506  505 -0.16108871027E+02  0.52102944434E+02  0.17011799624E+03  0.17864586530E+03  0.00000000000E+00 0.  1.
<scales pt_clust_3="42.76781" pt_clust_4="222.77967" pt_clust_5="31.26161" pt_clust_6="31.26161"></scales>
<clustering>
<clus scale="   31.262">  5  6 -1 -1</clus>
<clus scale="   42.768">  2  3  1 -1</clus>
<clus scale="  222.780">  2  4  1 -1</clus>
<clus scale="  229.667">  1  3  2 -1</clus>
</clustering>
</event>
<event>
 6    0  0.1438923E+002  0.7255854E+02  0.7546771E-02  0.1351603E+00
         21   -1    0    0  506  501  0.00000000000E+00  0.00000000000E+00  0.46197266948E+03  0.46197266948E+03  0.00000000000E+00 0.  1.
         21   -1    0    0  504  502 -0.00000000000E+00 -0.00000000000E+00 -0.11924437761E+03  0.11924437761E+03  0.00000000000E+00 0. -1.
         21    1    1    2  503  501 -0.14407398536E+01  0.37040507738E+02  0.60369059420E+02  0.70841359954E+02  0.00000000000E+00 0. -1.
         21    1    1    2  504  503  0.70477867095E+02 -0.90240903096E+01 -0.85993322174E+02  0.11155005789E+03  0.00000000000E+00 0. -1.
         21    1    1    2  505  502 -0.10919479726E+03 -0.27806926047E+02  0.26651508888E+03  0.28935621902E+03  0.00000000000E+00 0.  1.
         21    1    1    2  506  505  0.40157670021E+02 -0.20949138096E+00  0.10183746574E+03  0.10946941023E+03  0.00000000000E+00 0.  1.
<scales pt_clust_3="37.06852" pt_clust_4="14000.00000" pt_clust_5="72.55854" pt_clust_6="40.93081"></scales>
<clustering>
<clus scale="   37.069">  1  3  2 -1</clus>
<clus scale="   40.931">  1  6  2 -1</clus>
<clus scale="   72.559">  1  5  2 -1</clus>
<clus scale="   37.069">  1  3  2 -1</clus>
</clustering>
</event>
<event>
 6    0  0.1438923E+002  0.9177535E+02  0.7546771E-02  0.1298608E+00
         21   -1    0    0  504  501  0.00000000000E+00  0.00000000000E+00  0.13894871421E+04  0.13894871421E+04  0.00000000000E+00 0. -1.
         21   -1    0    0  503  502 -0.00000000000E+00 -0.00000000000E+00 -0.13147863469E+03  0.13147863469E+03  0.00000000000E+00 0.  1.
         21    1    1    2  503  506 -0.49075676286E+02 -0.78731484389E+02  0.57532086033E+03  0.58275308748E+03  0.00000000000E+00 0. -1.
         21    1    1    2  504  505  0.20324586697E+01 -0.30255849221E+02  0.58233380595E+03  0.58312280769E+03  0.00000000000E+00 0. -1.
         21    1    1    2  505  502  0.63878914212E+02  0.65936859952E+02 -0.10795567102E+03  0.14171313308E+03  0.00000000000E+00 0.  1.
         21    1    1    2  506  501 -0.16835696595E+02  0.43050473659E+02  0.20830951211E+03  0.21337674849E+03  0.00000000000E+00 0. -1.
<scales pt_clust_3="91.77535" pt_clust_4="30.32404" pt_clust_5="14000.00000" pt_clust_6="38.74125"></scales>
<clustering>
<clus scale="   30.324">  1  4  2 -1</clus>
<clus scale="   38.741">  1  6  2 -1</clus>
<clus scale="   91.775">  1  3  2 -1</clus>
<clus scale="   30.324">  1  3  2 -1</clus>
</clustering>
</event>
<event>
 6    0  0.1438923E+002  0.1133180E+03  0.7546771E-02  0.1254546E+00
         21   -1    0    0  503  501  0.00000000000E+00  0.00000000000E+00  0.56155296213E+03  0.56155296213E+03  0.00000000000E+00 0.  1.
         21   -1    0    0  506  502 -0.00000000000E+00 -0.00000000000E+00 -0.11808707252E+04  0.11808707252E+04  0.00000000000E+00 0. -1.
         21    1    1    2  503  504  0.38816733208E+02  0.43138176933E+02  0.27426719289E+03  0.28033931973E+03  0.00000000000E+00 0.  1.
         21    1    1    2  504  505  0.41723879527E+02 -0.12176134084E+03  0.65217564372E+01  0.12887683870E+03  0.00000000000E+00 0.  1.
         21    1    1    2  505  502 -0.43387529777E+02 -0.46009367792E+00 -0.11074011502E+04  0.11082508728E+04  0.00000000000E+00 0. -1.
         21    1    1    2  506  501 -0.37153082957E+02  0.79083257584E+02  0.20729443782E+03  0.22495665617E+03  0.00000000000E+00 0. -1.
<scales pt_clust_3="56.82641" pt_clust_4="14000.00000" pt_clust_5="43.38997" pt_clust_6="113.31797"></scales>
<clustering>
<clus scale="   43.390">  2  5  1 -1</clus>
<clus scale="   56.826">  1  3  2 -1</clus>
<clus scale="  113.318">  1  6  2 -1</clus>
<clus scale="   56.826">  1  3  2 -1</clus>
</clustering>
</event>
<event>
 6    0  0.1438923E+002  0.1032232E+03  0.7546771E-02  0.1273660E+00
         21   -1    0    0  505  501  0.00000000000E+00  0.00000000000E+00  0.15523237030E+03  0.15523237030E+03  0.00000000000E+00 0.  1.
         21   -1    0    0  504  502 -0.00000000000E+00 -0.00000000000E+00 -0.24033746115E+03  0.24033746115E+03  0.00000000000E+00 0.  1.
         21    1    1    2  503  506  0.48004890157E+02  0.69293759692E+02  0.40016889524E+02  0.93313697057E+02  0.00000000000E+00 0.  1.
         21    1    1    2  504  503  0.20998958515E+02 -0.12004488647E+03 -0.13863556550E+03  0.18458480720E+03  0.00000000000E+00 0.  1.
         21    1    1    2  505  502 -0.47612469563E+02  0.63319080005E+01 -0.25883624180E+02  0.54561912700E+02  0.00000000000E+00 0.  1.
         21    1    1    2  506  501 -0.21391379109E+02  0.44419218779E+02  0.39397209307E+02  0.63109414498E+02  0.00000000000E+00 0.  1.
<scales pt_clust_3="103.22319" pt_clust_4="14000.00000" pt_clust_5="48.03166" pt_clust_6="50.91923"></scales>
<clustering>
<clus scale="   48.032">  2  5  1 -1</clus>
<clus scale="   50.919">  1  6  2 -1</clus>
<clus scale="  103.223">  1  3  2 -1</clus>
<clus scale="   50.919">  1  3  2 -1</clus>
</clustering>
</event>
<event>
 6    0  0.1438923E+002  0.1330946E+03  0.7546771E-02  0.1222935E+00
         21   -1    0    0  503  501  0.00000000000E+00  0.00000000000E+00  0.11141245243E+04  0.11141245243E+04  0.00000000000E+00 0. -1.
         21   -1    0    0  506  502 -0.00000000000E+00 -0.00000000000E+00 -0.10600951772E+03  0.10600951772E+03  0.00000000000E+00 0.  1.
         21    1    1    2  503  505 -0.74393079043E+02  0.46382981592E+02  0.42017838669E+03  0.42922673243E+03  0.00000000000E+00 0. -1.
         21    1    1    2  504  502  0.90337195799E+02 -0.75510018503E+01 -0.63769958681E+02  0.11083516682E+03  0.00000000000E+00 0.  1.
         21    1    1    2  505  504 -0.62270025366E+02  0.43733530984E+02  0.13684227370E+03  0.15657581443E+03  0.00000000000E+00 0. -1.
         21    1    1    2  506  501  0.46325908610E+02 -0.82565510726E+02  0.51486430490E+03  0.52349632838E+03  0.00000000000E+00 0. -1.
<scales pt_clust_3="72.73314" pt_clust_4="90.65223" pt_clust_5="72.73314" pt_clust_6="107.79310"></scales>
<clustering>
<clus scale="   72.733">  3  5 -1 -1</clus>
<clus scale="   90.652">  2  4  1 -1</clus>
<clus scale="  107.793">  1  6  2 -1</clus>
<clus scale="  107.793">  1  3  2 -1</clus>
</clustering>
</event>
<event>
 6    0  0.1438923E+002  0.8276532E+02  0.7546771E-02  0.1321382E+00
         21   -1    0    0  505  501  0.00000000000E+00  0.00000000000E+00  0.60873471627E+02  0.60873471627E+02  0.00000000000E+00 0. -1.
         21   -1    0    0  506  502 -0.00000000000E+00 -0.00000000000E+00 -0.94083946041E+03  0.94083946041E+03  0.00000000000E+00 0. -1.
         21    1    1    2  503  501 -0.16695890266E+02  0.87145775247E+02 -0.34128548117E+02  0.95067853093E+02  0.00000000000E+00 0.  1.
         21    1    1    2  504  502  0.68197494322E+02 -0.11612290560E+02 -0.30428688118E+03  0.31205167775E+03  0.00000000000E+00 0. -1.
         21    1    1    2  505  504 -0.67756880757E+02 -0.46483981204E+02 -0.39023068270E+02  0.90964582424E+02  0.00000000000E+00 0. -1.
         21    1    1    2  506  503  0.16255276700E+02 -0.29049503484E+02 -0.50252749121E+03  0.50362881877E+03  0.00000000000E+00 0. -1.
<scales pt_clust_3="78.95123" pt_clust_4="14000.00000" pt_clust_5="82.76532" pt_clust_6="33.28825"></scales>
<clustering>
<clus scale="   33.288">  2  6  1 -1</clus>
<clus scale="   82.765">  1  5  2 -1</clus>
<clus scale="   78.951">  1  3  2 -1</clus>
<clus scale="   82.765">  1  3  2 -1</clus>
</clustering>
</event>
<event>
 6    0  0.1438923E+002  0.8364721E+02  0.7546771E-02  0.1319009E+00
         21   -1    0    0  505  501  0.00000000000E+00  0.00000000000E+00  0.27585317122E+04  0.27585317122E+04  0.00000000000E+00 0.  1.
         21   -1    0    0  506  502 -0.00000000000E+00 -0.00000000000E+00 -0.24154824015E+02  0.24154824015E+02  0.00000000000E+00 0.  1.
         21    1    1    2  503  502 -0.33086363846E+02  0.12840581982E+02 -0.24658771842E+01  0.35576236007E+02  0.00000000000E+00 0.  1.
         21    1    1    2  504  501 -0.35052702442E+02  0.57939577465E+01  0.80443424130E+03  0.80521842407E+03  0.00000000000E+00 0.  1.
         21    1    1    2  505  503  0.12085347199E+03  0.12828079792E+02  0.15310029886E+04  0.15358190885E+04  0.00000000000E+00 0.  1.
         21    1    1    2  506  504 -0.52714405705E+02 -0.31462619520E+02  0.40140553544E+03  0.40607278766E+03  0.00000000000E+00 0.  1.
<scales pt_clust_3="35.49068" pt_clust_4="38.18544" pt_clust_5="83.64721" pt_clust_6="14000.00000"></scales>
<clustering>
<clus scale="   35.491">  2  3  1 -1</clus>
<clus scale="   38.185">  1  4  2 -1</clus>
<clus scale="   83.647">  1  5  2 -1</clus>
<clus scale="   38.185">  1  3  2 -1</clus>
</clustering>
</event>
<event>
 6    0  0.1438923E+002  0.9370363E+02  0.7546771E-02  0.1294123E+00
         21   -1    0    0  506  501  0.00000000000E+00  0.00000000000E+00  0.35728233353E+03  0.35728233353E+03  0.00000000000E+00 0. -1.
         21   -1    0    0  503  502 -0.00000000000E+00 -0.00000000000E+00 -0.10561314008E+04  0.10561314008E+04  0.00000000000E+00 0. -1.
         21    1    1    2  503  505  0.24501249984E+02  0.61507534993E+02 -0.58369460746E+02  0.88263707488E+02  0.00000000000E+00 0.  1.
         21    1    1    2  504  502 -0.49235308014E+02 -0.63377697691E+01 -0.95198147918E+03  0.95327489193E+03  0.00000000000E+00 0. -1.
         21    1    1    2  505  501 -0.68126568243E+02  0.75161896174E+01  0.42939585995E+02  0.80879728315E+02  0.00000000000E+00 0.  1.
         21    1    1    2  506  504  0.92860626273E+02 -0.62685954842E+02  0.26856228666E+03  0.29099540660E+03  0.00000000000E+00 0. -1.
<scales pt_clust_3="57.95433" pt_clust_4="49.64154" pt_clust_5="14000.00000" pt_clust_6="93.70363"></scales>
<clustering>
<clus scale="   49.642">  2  4  1 -1</clus>
<clus scale="   57.954">  2  3  1 -1</clus>
<clus scale="   93.704">  1  6  2 -1</clus>
<clus scale="   93.704">  1  3  2 -1</clus>
</clustering>
</event>
<event>
 6    0  0.1438923E+002  0.1288916E+03  0.7546771E-02  0.1229110E+00
         21   -1    0    0  506  501  0.00000000000E+00  0.00000000000E+00  0.91758905885E+02  0.91758905885E+02  0.00000000000E+00 0.  1.
         21   -1    0    0  505  502 -0.00000000000E+00 -0.00000000000E+00 -0.31541562613E+03  0.31541562613E+03  0.00000000000E+00 0.  1.
         21    1    1    2  503  502  0.19357390835E+02 -0.26895501050E+02 -0.27204386148E+02  0.42873712020E+02  0.00000000000E+00 0.  1.
         21    1    1    2  504  503 -0.31946136996E+02 -0.66787913479E+02  0.25300134036E+02  0.78238595578E+02  0.00000000000E+00 0.  1.
         21    1    1    2  505  501  0.40096965300E+02  0.12527234158E+03 -0.19858389531E+03  0.23819422677E+03  0.00000000000E+00 0.  1.
         21    1    1    2  506  504 -0.27508219139E+02 -0.31588927047E+02 -0.23168572828E+02  0.47867997651E+02  0.00000000000E+00 0.  1.
<scales pt_clust_3="33.13724" pt_clust_4="39.10490" pt_clust_5="118.01505" pt_clust_6="39.10490"></scales>
<clustering>
<clus scale="   33.137">  2  3  1 -1</clus>
<clus scale="   39.105">  4  6 -1 -1</clus>
<clus scale="  118.015">  2  5  1 -1</clus>
<clus scale="  128.892">  1  3  2 -1</clus>
</clustering>
</event>
<event>
 6    0  0.1438923E+002  0.9983912E+02  0.7546771E-02  0.1280635E+00
         21   -1    0    0  503  501  0.00000000000E+00  0.00000000000E+00  0.65862205780E+03  0.65862205780E+03  0.00000000000E+00 0.  1.
         21   -1    0    0  504  502 -0.00000000000E+00 -0.00000000000E+00 -0.27287496072E+03  0.27287496072E+03  0.00000000000E+00 0.  1.
         21    1    1    2  503  502 -0.89988232751E+01 -0.12076219129E+03  0.31636838632E+03  0.33875277346E+03  0.00000000000E+00 0.  1.
         21    1    1    2  504  505 -0.36520598239E+02  0.72022495086E+02 -0.24110603624E+03  0.25426976739E+03  0.00000000000E+00 0.  1.
         21    1    1    2  505  506  0.76317818423E+02  0.61939521562E+02  0.19719603030E+03  0.22033426448E+03  0.00000000000E+00 0.  1.
         21    1    1    2  506  501 -0.30798396910E+02 -0.13199825357E+02  0.11328871670E+03  0.11814021319E+03  0.00000000000E+00 0.  1.
<scales pt_clust_3="14000.00000" pt_clust_4="80.77982" pt_clust_5="99.83912" pt_clust_6="33.50786"></scales>
<clustering>
<clus scale="   33.508">  1  6  2 -1</clus>
<clus scale="   80.780">  2  4  1 -1</clus>
<clus scale="   99.839">  1  5  2 -1</clus>
<clus scale="   33.508">  1  3  2 -1</clus>
</clustering>
</event>
<event>
 6    0  0.1438923E+002  0.2362116E+03  0.7546771E-02  0.1122343E+00
         21   -1    0    0  503  501  0.00000000000E+00  0.00000000000E+00  0.20586769899E+03  0.20586769899E+03  0.00000000000E+00 0. -1.
         21   -1    0    0  506  502 -0.00000000000E+00 -0.00000000000E+00 -0.24559445132E+04  0.24559445132E+04  0.00000000000E+00 0. -1.
         21    1    1    2  503  505  0.14103198314E+02  0.77150583945E+02 -0.24775902906E+03  0.25987621916E+03  0.00000000000E+00 0. -1.
         21    1    1    2  504  501 -0.12584518556E+03 -0.20392879576E+03  0.12062590126E+03  0.26828077181E+03  0.00000000000E+00 0. -1.
         21    1    1    2  505  502  0.34749411155E+02  0.66103916661E+01 -0.10761053380E+03  0.11327508923E+03  0.00000000000E+00 0. -1.
         21    1    1    2  506  504  0.76992576091E+02  0.12016782015E+03 -0.20153331526E+04  0.20203801320E+04  0.00000000000E+00 0. -1.
<scales pt_clust_3="79.88874" pt_clust_4="236.21156" pt_clust_5="35.37257" pt_clust_6="14000.00000"></scales>
<clustering>
<clus scale="   35.373">  2  5  1 -1</clus>
<clus scale="   79.889">  2  3  1 -1</clus>
<clus scale="  236.212">  1  4  2 -1</clus>
<clus scale="  236.212">  1  3  2 -1</clus>
</clustering>
</event>
<event>
 6    0  0.1438923E+002  0.1175084E+03  0.7546771E-02  0.1247265E+00
         21   -1    0    0  503  501  0.00000000000E+00  0.00000000000E+00  0.12452073780E+04  0.12452073780E+04  0.00000000000E+00 0.  1.
         21   -1    0    0  504  502 -0.00000000000E+00 -0.00000000000E+00 -0.45533152958E+03  0.45533152958E+03  0.00000000000E+00 0. -1.
         21    1    1    2  503  502 -0.89842261160E+02  0.22011712280E+02  0.18470961328E+03  0.20657635055E+03  0.00000000000E+00 0. -1.
         21    1    1    2  504  505 -0.23359570718E+01  0.11218097455E+03 -0.43056806986E+03  0.44494818859E+03  0.00000000000E+00 0. -1.
         21    1    1    2  505  506  0.30675084770E+02 -0.71769328398E+02  0.43990973641E+03  0.44678000572E+03  0.00000000000E+00 0.  1.
         21    1    1    2  506  501  0.61503133462E+02 -0.62423358430E+02  0.59582456855E+03  0.60223436268E+03  0.00000000000E+00 0.  1.
<scales pt_clust_3="92.49945" pt_clust_4="112.37053" pt_clust_5="32.43381" pt_clust_6="32.43381"></scales>
<clustering>
<clus scale="   32.434">  5  6 -1 -1</clus>
<clus scale="   92.499">  1  3  2 -1</clus>
<clus scale="  112.371">  2  4  1 -1</clus>
<clus scale="   92.499">  1  3  2 -1</clus>
</clustering>
</event>
<event>
 6    0  0.1438923E+002  0.4980392E+03  0.7546771E-02  0.1014292E+00
         21   -1    0    0  502  501  0.00000000000E+00  0.00000000000E+00  0.10851648417E+04  0.10851648417E+04  0.00000000000E+00 0. -1.
         21   -1    0    0  506  502 -0.00000000000E+00 -0.00000000000E+00 -0.83113633963E+03  0.83113633963E+03  0.00000000000E+00 0.  1.
         21    1    1    2  503  504 -0.25557013518E+02 -0.47811902331E+02 -0.75686507618E+01  0.54739596444E+02  0.00000000000E+00 0.  1.
         21    1    1    2  504  501  0.34441252939E+03  0.34551707183E+03  0.89736090299E+03  0.10214003268E+04  0.00000000000E+00 0. -1.
         21    1    1    2  505  503 -0.28516215055E+03 -0.32338631889E+03 -0.36152367211E+03  0.56266822271E+03  0.00000000000E+00 0.  1.
         21    1    1    2  506  505 -0.33693365329E+02  0.25681149391E+02 -0.27424007803E+03  0.27749303541E+03  0.00000000000E+00 0.  1.
<scales pt_clust_3="36.55768" pt_clust_4="487.25181" pt_clust_5="36.55768" pt_clust_6="42.36466"></scales>
<clustering>
<clus scale="   36.558">  3  5 -1 -1</clus>
<clus scale="   42.365">  2  6  1 -1</clus>
<clus scale="  487.252">  1  4  2 -1</clus>
<clus scale="  487.252">  1  3  2 -1</clus>
</clustering>
</event>
<event>
 6    0  0.1438923E+002  0.7214222E+02  0.7546771E-02  0.1352956E+00
         21   -1    0    0  505  501  0.00000000000E+00  0.00000000000E+00  0.63123788748E+03  0.63123788748E+03  0.00000000000E+00 0.  1.
         21   -1    0    0  506  502 -0.00000000000E+00 -0.00000000000E+00 -0.95463392054E+02  0.95463392054E+02  0.00000000000E+00 0.  1.
         21    1    1    2  503  502  0.78589898259E+02  0.52285529522E+02 -0.29341207763E+02  0.98848647835E+02  0.00000000000E+00 0.  1.
         21    1    1    2  504  501  0.52309355058E+02 -0.46976877716E+02  0.40336289022E+03  0.40944440023E+03  0.00000000000E+00 0. -1.
         21    1    1    2  505  503 -0.94729401572E+02  0.88927203747E+01  0.15032377282E+03  0.17790440319E+03  0.00000000000E+00 0.  1.
         21    1    1    2  506  504 -0.36169851745E+02 -0.14201372181E+02  0.11429040140E+02  0.40503828283E+02  0.00000000000E+00 0. -1.
<scales pt_clust_3="64.64032" pt_clust_4="72.14222" pt_clust_5="14000.00000" pt_clust_6="38.85791"></scales>
<clustering>
<clus scale="   38.858">  2  6  1 -1</clus>
<clus scale="   64.640">  2  3  1 -1</clus>
<clus scale="   72.142">  1  4  2 -1</clus>
<clus scale="   72.142">  1  3  2 -1</clus>
</clustering>
</event>
<event>
 6    0  0.1438923E+002  0.7155772E+02  0.7546771E-02  0.1354875E+00
         21   -1    0    0  506  501  0.00000000000E+00  0.00000000000E+00  0.34202639209E+03  0.34202639209E+03  0.00000000000E+00 0.  1.
         21   -1    0    0  503  502 -0.00000000000E+00 -0.00000000000E+00 -0.93051065435E+03  0.93051065435E+03  0.00000000000E+00 0. -1.
         21    1    1    2  503  504  0.20787708866E+02 -0.64595247074E+02  0.10162067004E+02  0.68614447387E+02  0.00000000000E+00 0.  1.
         21    1    1    2  504  501  0.50686334520E+02 -0.18728766980E+02  0.81620954140E+02  0.97886931581E+02  0.00000000000E+00 0.  1.
         21    1    1    2  505  502  0.99021278080E+01  0.33550323626E+02 -0.88210139854E+03  0.88279474038E+03  0.00000000000E+00 0. -1.
         21    1    1    2  506  505 -0.81376171194E+02  0.49773690429E+02  0.20183411513E+03  0.22324092709E+03  0.00000000000E+00 0.  1.
<scales pt_clust_3="51.68959" pt_clust_4="71.55772" pt_clust_5="34.98109" pt_clust_6="14000.00000"></scales>
<clustering>
<clus scale="   34.981">  2  5  1 -1</clus>
<clus scale="   51.690">  2  3  1 -1</clus>
<clus scale="   71.558">  1  4  2 -1</clus>
<clus scale="   71.558">  1  3  2 -1</clus>
</clustering>
</event>
<event>
 6    0  0.1438923E+002  0.1535093E+03  0.7546771E-02  0.1196226E+00
         21   -1    0    0  505  501  0.00000000000E+00  0.00000000000E+00  0.19893976292E+04  0.19893976292E+04  0.00000000000E+00 0.  1.
         21   -1    0    0  504  502 -0.00000000000E+00 -0.00000000000E+00 -0.11622029427E+03  0.11622029427E+03  0.00000000000E+00 0. -1.
         21    1    1    2  503  502  0.11994787642E+03  0.11409410058E+03 -0.23957430612E+02  0.16726899093E+03  0.00000000000E+00 0. -1.
         21    1    1    2  504  501 -0.32988156667E+02 -0.48243655650E+02  0.15965016843E+03  0.17001130866E+03  0.00000000000E+00 0.  1.
         21    1    1    2  505  506  0.49316970739E+02 -0.76555134194E+02  0.14169323339E+04  0.14198556585E+04  0.00000000000E+00 0.  1.
         21    1    1    2  506  503 -0.13627669049E+03  0.10704689259E+02  0.32055226328E+03  0.34848196544E+03  0.00000000000E+00 0.  1.
<scales pt_clust_3="153.50934" pt_clust_4="58.44372" pt_clust_5="116.48976" pt_clust_6="14000.00000"></scales>
<clustering>
<clus scale="   58.444">  1  4  2 -1</clus>
<clus scale="  116.490">  1  5  2 -1</clus>
<clus scale="  153.509">  2  3  1 -1</clus>
<clus scale="   58.444">  1  3  2 -1</clus>
</clustering>
</event>
<event>
 6    0  0.1438923E+002  0.2561515E+03  0.7546771E-02  0.1109478E+00
         21   -1    0    0  504  501  0.00000000000E+00  0.00000000000E+00  0.16096603784E+04  0.16096603784E+04  0.00000000000E+00 0.  1.
         21   -1    0    0  506  502 -0.00000000000E+00 -0.00000000000E+00 -0.24560723555E+03  0.24560723555E+03  0.00000000000E+00 0.  1.
         21    1    1    2  503  502 -0.18984529155E+03  0.94764820213E+02  0.61924633420E+02  0.22103453598E+03  0.00000000000E+00 0.  1.
         21    1    1    2  504  503 -0.94344106026E+02 -0.74453128665E+02  0.24977080690E+03  0.27718141115E+03  0.00000000000E+00 0.  1.
         21    1    1    2  505  501  0.34908305046E+03  0.14183253694E+02  0.11684993110E+04  0.12196109136E+04  0.00000000000E+00 0.  1.
         21    1    1    2  506  505 -0.64893652888E+02 -0.34494945242E+02 -0.11614160845E+03  0.13744075322E+03  0.00000000000E+00 0.  1.
<scales pt_clust_3="14000.00000" pt_clust_4="128.53343" pt_clust_5="256.15148" pt_clust_6="73.49209"></scales>
<clustering>
<clus scale="   73.492">  2  6  1 -1</clus>
<clus scale="  128.533">  1  4  2 -1</clus>
<clus scale="  256.151">  1  5  2 -1</clus>
<clus scale="  128.533">  1  3  2 -1</clus>
</clustering>
</event>
<event>
 6    0  0.1438923E+002  0.6801380E+02  0.7546771E-02  0.1366980E+00
         21   -1    0    0  503  501  0.00000000000E+00  0.00000000000E+00  0.10794915312E+03  0.10794915312E+03  0.00000000000E+00 0. -1.
         21   -1    0    0  505  502 -0.00000000000E+00 -0.00000000000E+00 -0.10193589702E+04  0.10193589702E+04  0.00000000000E+00 0.  1.
         21    1    1    2  503  502  0.50924015598E+01  0.68108111711E+02 -0.51430733019E+02  0.85497179681E+02  0.00000000000E+00 0.  1.
         21    1    1    2  504  506  0.24746391475E+02 -0.84664269222E+02 -0.41656677473E+02  0.97548455406E+02  0.00000000000E+00 0.  1.
         21    1    1    2  505  504 -0.16470632251E+00 -0.39729560918E+02 -0.86464536147E+03  0.86555766200E+03  0.00000000000E+00 0.  1.
         21    1    1    2  506  501 -0.29674086713E+02  0.56285718430E+02  0.46322954894E+02  0.78704826227E+02  0.00000000000E+00 0. -1.
<scales pt_clust_3="50.72392" pt_clust_4="68.01380" pt_clust_5="39.72990" pt_clust_6="14000.00000"></scales>
<clustering>
<clus scale="   39.730">  2  5  1 -1</clus>
<clus scale="   50.724">  2  3  1 -1</clus>
<clus scale="   68.014">  2  4  1 -1</clus>
<clus scale="   68.014">  1  3  2 -1</clus>
</clustering>
</event>
<event>
 6    0  0.1438923E+002  0.9819671E+02  0.7546771E-02  0.1284134E+00
         21   -1    0    0  503  501  0.00000000000E+00  0.00000000000E+00  0.45421196276E+02  0.45421196276E+02  0.00000000000E+00 0.  1.
         21   -1    0    0  505  502 -0.00000000000E+00 -0.00000000000E+00 -0.11787997860E+04  0.11787997860E+04  0.00000000000E+00 0. -1.
         21    1    1    2  503  506  0.33935134875E+02  0.12600180798E+02 -0.49400736819E+02  0.61243699540E+02  0.00000000000E+00 0.  1.
         21    1    1    2  504  501 -0.19088541671E+02 -0.37717026006E+02 -0.10221245189E+02  0.43490462484E+02  0.00000000000E+00 0.  1.
         21    1    1    2  505  504 -0.11133169535E+03  0.26731708712E+02 -0.14045458167E+03  0.18120932690E+03  0.00000000000E+00 0.  1.
         21    1    1    2  506  502  0.96485102150E+02 -0.16148635042E+01 -0.93330202605E+03  0.93827749336E+03  0.00000000000E+00 0. -1.
<scales pt_clust_3="36.19887" pt_clust_4="32.76381" pt_clust_5="14000.00000" pt_clust_6="98.19671"></scales>
<clustering>
<clus scale="   36.199">  1  3  2 -1</clus>
<clus scale="   32.764">  1  4  2 -1</clus>
<clus scale="   98.197">  2  6  1 -1</clus>
<clus scale="   36.199">  1  3  2 -1</clus>
</clustering>
</event>
<event>
 6    0  0.1438923E+002  0.1432620E+03  0.7546771E-02  0.1209006E+00
         21   -1    0    0  505  501  0.00000000000E+00  0.00000000000E+00  0.29964499286E+04  0.29964499286E+04  0.00000000000E+00 0. -1.
         21   -1    0    0  503  502 -0.00000000000E+00 -0.00000000000E+00 -0.33616519120E+02  0.33616519120E+02  0.00000000000E+00 0.  1.
         21    1    1    2  503  501  0.47607645706E+02 -0.10827408794E+03  0.96399866356E+03  0.97122767124E+03  0.00000000000E+00 0.  1.
         21    1    1    2  504  502  0.11572013119E+03  0.88805834869E+02  0.18432164613E+03  0.23505764039E+03  0.00000000000E+00 0.  1.
         21    1    1    2  505  506 -0.18260523158E+02  0.32767060514E+02  0.42526115561E+03  0.42691237676E+03  0.00000000000E+00 0. -1.
         21    1    1    2  506  504 -0.14506725374E+03 -0.13298807441E+02  0.13892519442E+04  0.13968687593E+04  0.00000000000E+00 0. -1.
<scales pt_clust_3="104.22809" pt_clust_4="14000.00000" pt_clust_5="37.51169" pt_clust_6="143.26202"></scales>
<clustering>
<clus scale="   37.512">  1  5  2 -1</clus>
<clus scale="  104.228">  1  3  2 -1</clus>
<clus scale="  143.262">  1  6  2 -1</clus>
<clus scale="   37.512">  1  3  2 -1</clus>
</clustering>
</event>
<event>
 6    0  0.1438923E+002  0.1686452E+03  0.7546771E-02  0.1179268E+00
         21   -1    0    0  504  501  0.00000000000E+00  0.00000000000E+00  0.34993462083E+03  0.34993462083E+03  0.00000000000E+00 0.  1.
         21   -1    0    0  506  502 -0.00000000000E+00 -0.00000000000E+00 -0.15388943224E+03  0.15388943224E+03  0.00000000000E+00 0.  1.
         21    1    1    2  503  505  0.23176063691E+02  0.12384572854E+03  0.57541503879E+02  0.13851324512E+03  0.00000000000E+00 0.  1.
         21    1    1    2  504  502 -0.28746211962E+02 -0.38518042239E+02  0.10668937749E+03  0.11701541586E+03  0.00000000000E+00 0.  1.
         21    1    1    2  505  501  0.46544321013E+02  0.55067881503E+02  0.66388639436E+02  0.98011717860E+02  0.00000000000E+00 0.  1.
         21    1    1    2  506  503 -0.40974172742E+02 -0.14039556780E+03 -0.34574332206E+02  0.15028367422E+03  0.00000000000E+00 0.  1.
<scales pt_clust_3="46.10429" pt_clust_4="48.06230" pt_clust_5="46.10429" pt_clust_6="157.24774"></scales>
<clustering>
<clus scale="   46.104">  3  5 -1 -1</clus>
<clus scale="   48.062">  1  4  2 -1</clus>
<clus scale="  157.248">  2  6  1 -1</clus>
<clus scale="   48.062">  1  3  2 -1</clus>
</clustering>
</event>
<event>
 6    0  0.1438923E+002  0.1244663E+03  0.7546771E-02  0.1235906E+00
         21   -1    0    0  506  501  0.00000000000E+00  0.00000000000E+00  0.76573489844E+02  0.76573489844E+02  0.00000000000E+00 0. -1.
         21   -1    0    0  503  502 -0.00000000000E+00 -0.00000000000E+00 -0.48497067502E+03  0.48497067502E+03  0.00000000000E+00 0. -1.
         21    1    1    2  503  504  0.31016031214E+02 -0.23101340663E+02 -0.16010796163E+03  0.16471255420E+03  0.00000000000E+00 0. -1.
         21    1    1    2  504  505 -0.14199538832E+03 -0.17189369658E+01 -0.16092567501E+03  0.21462226801E+03  0.00000000000E+00 0. -1.
         21    1    1    2  505  501 -0.51956520436E+01  0.41977840011E+02 -0.26842796508E+02  0.50096602445E+02  0.00000000000E+00 0. -1.
         21    1    1    2  506  502  0.11617500915E+03 -0.17157562383E+02 -0.60520752017E+02  0.13211274020E+03  0.00000000000E+00 0. -1.
<scales pt_clust_3="38.67384" pt_clust_4="124.46634" pt_clust_5="39.25123" pt_clust_6="14000.00000"></scales>
<clustering>
<clus scale="   38.674">  2  3  1 -1</clus>
<clus scale="   39.251">  1  5  2 -1</clus>
<clus scale="  124.466">  2  4  1 -1</clus>
<clus scale="   39.251">  1  3  2 -1</clus>
</clustering>
</event>
<event>
 6    0  0.1438923E+002  0.7683850E+02  0.7546771E-02  0.1338271E+00
         21   -1    0    0  504  501  0.00000000000E+00  0.00000000000E+00  0.10083266386E+04  0.10083266386E+04  0.00000000000E+00 0.  1.
         21   -1    0    0  506  502 -0.00000000000E+00 -0.00000000000E+00 -0.11992313315E+03  0.11992313315E+03  0.00000000000E+00 0. -1.
         21    1    1    2  503  505 -0.38555874612E+02  0.10318618147E+03  0.72971027032E+03  0.73797765692E+03  0.00000000000E+00 0.  1.
         21    1    1    2  504  503  0.32860895666E+02 -0.59345778958E+02  0.12080899846E+03  0.13855170173E+03  0.00000000000E+00 0.  1.
         21    1    1    2  505  502  0.62583775137E+02 -0.44080176403E+02 -0.86159760983E+02  0.11525317902E+03  0.00000000000E+00 0. -1.
         21    1    1    2  506  501 -0.56888796190E+02  0.23977388969E+00  0.12404399768E+03  0.13646723410E+03  0.00000000000E+00 0.  1.
<scales pt_clust_3="76.83850" pt_clust_4="64.15581" pt_clust_5="14000.00000" pt_clust_6="56.88930"></scales>
<clustering>
<clus scale="   56.889">  1  6  2 -1</clus>
<clus scale="   64.156">  1  4  2 -1</clus>
<clus scale="   76.838">  1  3  2 -1</clus>
<clus scale="   56.889">  1  3  2 -1</clus>
</clustering>
</event>
<event>
 6    0  0.1438923E+002  0.9372226E+02  0.7546771E-02  0.1294080E+00
         21   -1    0    0  506  501  0.00000000000E+00  0.00000000000E+00  0.28921913509E+03  0.28921913509E+03  0.00000000000E+00 0.  1.
         21   -1    0    0  505  502 -0.00000000000E+00 -0.00000000000E+00 -0.52572438341E+03  0.52572438341E+03  0.00000000000E+00 0. -1.
         21    1    1    2  503  504  0.79606245293E+02  0.16921952043E+02  0.53630840964E+02  0.97466783333E+02  0.00000000000E+00 0.  1.
         21    1    1    2  504  502 -0.73709793185E+01  0.41464326148E+02 -0.46690482996E+03  0.46880032201E+03  0.00000000000E+00 0. -1.
         21    1    1    2  505  501 -0.72411618299E+02 -0.10473180377E+03  0.11594379176E+03  0.17220672470E+03  0.00000000000E+00 0.  1.
         21    1    1    2  506  503  0.17635232375E+00  0.46345525582E+02  0.60824948910E+02  0.76469688449E+02  0.00000000000E+00 0.  1.
<scales pt_clust_3="93.72226" pt_clust_4="42.11439" pt_clust_5="14000.00000" pt_clust_6="51.95661"></scales>
<clustering>
<clus scale="   42.114">  2  4  1 -1</clus>
<clus scale="   51.957">  1  6  2 -1</clus>
<clus scale="   93.722">  2  3  1 -1</clus>
<clus scale="   51.957">  1  3  2 -1</clus>
</clustering>
</event>
<event>
 6    0  0.1438923E+002  0.9277368E+02  0.7546771E-02  0.1296271E+00
         21   -1    0    0  503  501  0.00000000000E+00  0.00000000000E+00  0.10836686165E+03  0.10836686165E+03  0.00000000000E+00 0. -1.
         21   -1    0    0  505  502 -0.00000000000E+00 -0.00000000000E+00 -0.67744239980E+03  0.67744239980E+03  0.00000000000E+00 0.  1.
         21    1    1    2  503  504 -0.58412918543E+02 -0.63331584132E+02 -0.37367509459E+02  0.93911071576E+02  0.00000000000E+00 0.  1.
         21    1    1    2  504  506  0.15446886565E+03  0.67542914859E+02 -0.40846696360E+02  0.17346794634E+03  0.00000000000E+00 0. -1.
         21    1    1    2  505  501 -0.15049754198E+02  0.30430235117E+02 -0.20008992038E+02  0.39406269464E+02  0.00000000000E+00 0. -1.
         21    1    1    2  506  502 -0.81006192913E+02 -0.34641565844E+02 -0.47085234029E+03  0.47902397407E+03  0.00000000000E+00 0.  1.
<scales pt_clust_3="83.16821" pt_clust_4="92.77368" pt_clust_5="33.94841" pt_clust_6="14000.00000"></scales>
<clustering>
<clus scale="   33.948">  1  5  2 -1</clus>
<clus scale="   83.168">  1  3  2 -1</clus>
<clus scale="   92.774">  1  4  2 -1</clus>
<clus scale="   33.948">  1  3  2 -1</clus>
</clustering>
</event>
<event>
 6    0  0.1438923E+002  0.1716034E+03  0.7546771E-02  0.1176186E+00
         21   -1    0    0  505  501  0.00000000000E+00  0.00000000000E+00  0.70831685347E+03  0.70831685347E+03  0.00000000000E+00 0. -1.
         21   -1    0    0  506  502 -0.00000000000E+00 -0.00000000000E+00 -0.20757891846E+04  0.20757891846E+04  0.00000000000E+00 0.  1.
         21    1    1    2  503  501 -0.66887171698E+01  0.61018297975E+02  0.37167230485E+03  0.37670714596E+03  0.00000000000E+00 0. -1.
         21    1    1    2  504  502 -0.15831178779E+03 -0.66411342582E+02 -0.20204269515E+04  0.20277076108E+04  0.00000000000E+00 0.  1.
         21    1    1    2  505  504 -0.27779479868E+02  0.37988529835E+02  0.15111635508E+02  0.49428629645E+02  0.00000000000E+00 0. -1.
         21    1    1    2  506  503  0.19277998483E+03 -0.32595485229E+02  0.26617067999E+03  0.33026265168E+03  0.00000000000E+00 0. -1.
<scales pt_clust_3="84.95999" pt_clust_4="14000.00000" pt_clust_5="47.06196" pt_clust_6="171.60335"></scales>
<clustering>
<clus scale="   47.062">  1  5  2 -1</clus>
<clus scale="   84.960">  1  3  2 -1</clus>
<clus scale="  171.603">  1  6  2 -1</clus>
<clus scale="   47.062">  1  3  2 -1</clus>
</clustering>
</event>
<event>
 6    0  0.1438923E+002  0.1327037E+03  0.7546771E-02  0.1223498E+00
         21   -1    0    0  505  501  0.00000000000E+00  0.00000000000E+00  0.11831891550E+04  0.11831891550E+04  0.00000000000E+00 0. -1.
         21   -1    0    0  504  502 -0.00000000000E+00 -0.00000000000E+00 -0.16818268037E+03  0.16818268037E+03  0.00000000000E+00 0. -1.
         21    1    1    2  503  502  0.40409395918E+02  0.17708670169E+03  0.59133991469E+03  0.61860772214E+03  0.00000000000E+00 0. -1.
         21    1    1    2  504  506  0.16565774080E+02 -0.72390299553E+02 -0.12861868877E+03  0.14851783543E+03  0.00000000000E+00 0. -1.
         21    1    1    2  505  503 -0.86304842781E+02 -0.69078183778E+01  0.29508877600E+03  0.30752825815E+03  0.00000000000E+00 0. -1.
         21    1    1    2  506  501  0.29329672783E+02 -0.97788583758E+02  0.25719647271E+03  0.27671801964E+03  0.00000000000E+00 0. -1.
<scales pt_clust_3="132.70368" pt_clust_4="74.26157" pt_clust_5="85.72634" pt_clust_6="14000.00000"></scales>
<clustering>
<clus scale="   74.262">  2  4  1 -1</clus>
<clus scale="   85.726">  1  5  2 -1</clus>
<clus scale="  132.704">  1  3  2 -1</clus>
<clus scale="   85.726">  1  3  2 -1</clus>
</clustering>
</event>
<event>
 6    0  0.1438923E+002  0.9917151E+02  0.7546771E-02  0.1282048E+00
         21   -1    0    0  504  501  0.00000000000E+00  0.00000000000E+00  0.15778846775E+03  0.15778846775E+03  0.00000000000E+00 0.  1.
         21   -1    0    0  505  502 -0.00000000000E+00 -0.00000000000E+00 -0.29299846614E+03  0.29299846614E+03  0.00000000000E+00 0.  1.
         21    1    1    2  503  501 -0.29102111919E+01 -0.33296522111E+02 -0.91445621796E+01  0.34651850330E+02  0.00000000000E+00 0.  1.
         21    1    1    2  504  502  0.12660382713E+03  0.38144276284E+02  0.85889813608E+02  0.15767236580E+03  0.00000000000E+00 0.  1.
         21    1    1    2  505  506 -0.59604503130E+02 -0.45884448268E+01 -0.17398681099E+03  0.18397054389E+03  0.00000000000E+00 0.  1.
         21    1    1    2  506  503 -0.64089112806E+02 -0.25930934656E+00 -0.37968438823E+02  0.74492173872E+02  0.00000000000E+00 0. -1.
<scales pt_clust_3="33.42346" pt_clust_4="99.17151" pt_clust_5="59.97942" pt_clust_6="14000.00000"></scales>
<clustering>
<clus scale="   33.423">  1  3  2 -1</clus>
<clus scale="   59.979">  2  5  1 -1</clus>
<clus scale="   99.172">  1  4  2 -1</clus>
<clus scale="   33.423">  1  3  2 -1</clus>
</clustering>
</event>
<event>
 6    0  0.1438923E+002  0.6440249E+02  0.7546771E-02  0.1380233E+00
         21   -1    0    0  504  501  0.00000000000E+00  0.00000000000E+00  0.10279252601E+04  0.10279252601E+04  0.00000000000E+00 0. -1.
         21   -1    0    0  503  502 -0.00000000000E+00 -0.00000000000E+00 -0.32305884594E+03  0.32305884594E+03  0.00000000000E+00 0.  1.
         21    1    1    2  503  501 -0.55939259347E+02 -0.36099060567E+02  0.23674857679E+03  0.24593135530E+03  0.00000000000E+00 0. -1.
         21    1    1    2  504  505  0.48358153636E+02  0.71760754891E+01  0.66073180385E+03  0.66253794133E+03  0.00000000000E+00 0. -1.
         21    1    1    2  505  506  0.37972955485E+02  0.84812125308E+02  0.10381900690E+03  0.13933207865E+03  0.00000000000E+00 0. -1.
         21    1    1    2  506  502 -0.30391849775E+02 -0.55889140230E+02 -0.29643297337E+03  0.30318273076E+03  0.00000000000E+00 0.  1.
<scales pt_clust_3="39.54551" pt_clust_4="48.88770" pt_clust_5="64.40249" pt_clust_6="14000.00000"></scales>
<clustering>
<clus scale="   48.888">  1  4  2 -1</clus>
<clus scale="   39.546">  1  3  2 -1</clus>
<clus scale="   64.402">  1  5  2 -1</clus>
<clus scale="   48.888">  1  3  2 -1</clus>
</clustering>
</event>
<event>
 6    0  0.1438923E+002  0.1195871E+03  0.7546771E-02  0.1243780E+00
         21   -1    0    0  503  501  0.00000000000E+00  0.00000000000E+00  0.11449292302E+04  0.11449292302E+04  0.00000000000E+00 0.  1.
         21   -1    0    0  504  502 -0.00000000000E+00 -0.00000000000E+00 -0.45525293277E+02  0.45525293277E+02  0.00000000000E+00 0.  1.
         21    1    1    2  503  506  0.55825485600E+01 -0.30065631922E+02  0.30706149743E+03  0.30858041136E+03  0.00000000000E+00 0.  1.
         21    1    1    2  504  505 -0.37094960201E+02  0.79520482170E+02  0.38078972282E+03  0.39076892937E+03  0.00000000000E+00 0.  1.
         21    1    1    2  505  501 -0.35540358303E+02  0.38322793290E+02  0.36908064322E+03  0.37276302761E+03  0.00000000000E+00 0.  1.
         21    1    1    2  506  502  0.67052769944E+02 -0.87777643537E+02  0.42472073476E+02  0.11834215516E+03  0.00000000000E+00 0.  1.
<scales pt_clust_3="30.57952" pt_clust_4="30.01580" pt_clust_5="30.01580" pt_clust_6="113.08631"></scales>
<clustering>
<clus scale="   30.016">  4  5 -1 -1</clus>
<clus scale="   30.580">  1  3  2 -1</clus>
<clus scale="  113.086">  2  6  1 -1</clus>
<clus scale="   30.580">  1  3  2 -1</clus>
</clustering>
</event>
<event>
 6    0  0.1438923E+002  0.2905595E+03  0.7546771E-02  0.1090057E+00
         21   -1    0    0  504  501  0.00000000000E+00  0.00000000000E+00  0.16209389798E+04  0.16209389798E+04  0.00000000000E+00 0. -1.
         21   -1    0    0  503  502 -0.00000000000E+00 -0.00000000000E+00 -0.12469005910E+03  0.12469005910E+03  0.00000000000E+00 0. -1.
         21    1    1    2  503  505 -0.13085811176E+02  0.35906730967E+02  0.59910101665E+02  0.71061607527E+02  0.00000000000E+00 0.  1.
         21    1    1    2  504  506  0.15368712024E+03  0.17895098635E+03  0.34391834877E+03  0.41704078585E+03  0.00000000000E+00 0. -1.
         21    1    1    2  505  501 -0.20845162884E+03 -0.24914957114E+03  0.11278152914E+04  0.11736672961E+04  0.00000000000E+00 0. -1.
         21    1    1    2  506  502  0.67850319781E+02  0.34291853827E+02 -0.35394821105E+02  0.83859349475E+02  0.00000000000E+00 0. -1.
<scales pt_clust_3="38.21690" pt_clust_4="290.55950" pt_clust_5="14000.00000" pt_clust_6="80.55696"></scales>
<clustering>
<clus scale="   38.217">  2  3  1 -1</clus>
<clus scale="   80.557">  2  6  1 -1</clus>
<clus scale="  290.560">  2  4  1 -1</clus>
<clus scale="  290.560">  1  3  2 -1</clus>
</clustering>
</event>
<event>
 6    0  0.1438923E+002  0.9570477E+02  0.7546771E-02  0.1289597E+00
         21   -1    0    0  504  501  0.00000000000E+00  0.00000000000E+00  0.12829271909E+04  0.12829271909E+04  0.00000000000E+00 0. -1.
         21   -1    0    0  503  502 -0.00000000000E+00 -0.00000000000E+00 -0.99157161795E+02  0.99157161795E+02  0.00000000000E+00 0. -1.
         21    1    1    2  503  505  0.52191638672E+02  0.70707785213E+02  0.44092297201E+03  0.44959606903E+03  0.00000000000E+00 0. -1.
         21    1    1    2  504  506 -0.11028661595E+02 -0.99333866582E+02  0.44139912165E+03  0.45257268259E+03  0.00000000000E+00 0. -1.
         21    1    1    2  505  501 -0.15207957536E+02  0.91924075624E+02  0.37090219770E+03  0.38242614700E+03  0.00000000000E+00 0. -1.
         21    1    1    2  506  502 -0.25955019541E+02 -0.63297994255E+02 -0.69454262245E+02  0.97489454097E+02  0.00000000000E+00 0. -1.
<scales pt_clust_3="69.69560" pt_clust_4="95.70477" pt_clust_5="14000.00000" pt_clust_6="68.41271"></scales>
<clustering>
<clus scale="   68.413">  2  6  1 -1</clus>
<clus scale="   69.696">  2  3  1 -1</clus>
<clus scale="   95.705">  1  4  2 -1</clus>
<clus scale="   95.705">  1  3  2 -1</clus>
</clustering>
</event>
<event>
 6    0  0.1438923E+002  0.7306626E+02  0.7546771E-02  0.1349966E+00
         21   -1    0    0  504  501  0.00000000000E+00  0.00000000000E+00  0.34367216615E+03  0.34367216615E+03  0.00000000000E+00 0.  1.
         21   -1    0    0  503  502 -0.00000000000E+00 -0.00000000000E+00 -0.25446252324E+03  0.25446252324E+03  0.00000000000E+00 0. -1.
         21    1    1    2  503  501  0.90482873313E+02 -0.26428063711E+02  0.12451530071E+03  0.15617187015E+03  0.00000000000E+00 0. -1.
         21    1    1    2  504  505 -0.34755204203E+02  0.67524555693E+01  0.91588729250E+02  0.98193763555E+02  0.00000000000E+00 0. -1.
         21    1    1    2  505  506 -0.30038846725E+02  0.65618677315E+02  0.92969376744E+02  0.11769217534E+03  0.00000000000E+00 0.  1.
         21    1    1    2  506  502 -0.25688822384E+02 -0.45943069173E+02 -0.21986376379E+03  0.22607688035E+03  0.00000000000E+00 0. -1.
<scales pt_clust_3="14000.00000" pt_clust_4="35.40508" pt_clust_5="73.06626" pt_clust_6="52.77714"></scales>
<clustering>
<clus scale="   35.405">  1  4  2 -1</clus>
<clus scale="   52.777">  2  6  1 -1</clus>
<clus scale="   73.066">  2  5  1 -1</clus>
<clus scale="   35.405">  1  3  2 -1</clus>
</clustering>
</event>
<event>
 6    0  0.1438923E+002  0.1078238E+03  0.7546771E-02  0.1264654E+00
         21   -1    0    0  503  501  0.00000000000E+00  0.00000000000E+00  0.14357819622E+03  0.14357819622E+03  0.00000000000E+00 0.  1.
         21   -1    0    0  506  502 -0.00000000000E+00 -0.00000000000E+00 -0.25939515726E+03  0.25939515726E+03  0.00000000000E+00 0.  1.
         21    1    1    2  503  502 -0.38677292467E+02 -0.14862340041E+03 -0.33549557951E+02  0.15719548639E+03  0.00000000000E+00 0.  1.
         21    1    1    2  504  501  0.61061075187E+02 -0.54816385308E+00 -0.11643628165E+02  0.62163731093E+02  0.00000000000E+00 0.  1.
         21    1    1    2  505  504 -0.11953198468E+02  0.82380345079E+02  0.34706559764E+01  0.83315338695E+02  0.00000000000E+00 0.  1.
         21    1    1    2  506  505 -0.10430584251E+02  0.66791219186E+02 -0.74094430908E+02  0.10029879730E+03  0.00000000000E+00 0.  1.
<scales pt_clust_3="107.82377" pt_clust_4="61.06354" pt_clust_5="14000.00000" pt_clust_6="66.83130"></scales>
<clustering>
<clus scale="   61.064">  1  4  2 -1</clus>
<clus scale="   66.831">  2  6  1 -1</clus>
<clus scale="  107.824">  2  3  1 -1</clus>
<clus scale="   61.064">  1  3  2 -1</clus>
</clustering>
</event>
<event>
 6    0  0.1438923E+002  0.8973437E+02  0.7546771E-02  0.1303496E+00
         21   -1    0    0  503  501  0.00000000000E+00  0.00000000000E+00  0.17781349599E+03  0.17781349599E+03  0.00000000000E+00 0. -1.
         21   -1    0    0  506  502 -0.00000000000E+00 -0.00000000000E+00 -0.19321957221E+03  0.19321957221E+03  0.00000000000E+00 0. -1.
         21    1    1    2  503  502  0.47504990158E+02 -0.53971793987E+02  0.90697903615E+02  0.11574017607E+03  0.00000000000E+00 0. -1.
         21    1    1    2  504  505 -0.83402543748E+02  0.25245017769E+02 -0.42366347127E+02  0.96892737575E+02  0.00000000000E+00 0. -1.
         21    1    1    2  505  501  0.13962966561E+02 -0.51611562876E+02  0.10260385999E+00  0.53467077583E+02  0.00000000000E+00 0. -1.
         21    1    1    2  506  504  0.21934587029E+02  0.80338339094E+02 -0.63840236567E+02  0.10493307697E+03  0.00000000000E+00 0. -1.
<scales pt_clust_3="89.73437" pt_clust_4="14000.00000" pt_clust_5="53.46698" pt_clust_6="77.09371"></scales>
<clustering>
<clus scale="   53.467">  1  5  2 -1</clus>
<clus scale="   77.094">  2  6  1 -1</clus>
<clus scale="   89.734">  1  3  2 -1</clus>
<clus scale="   53.467">  1  3  2 -1</clus>
</clustering>
</event>
<event>
 6    0  0.1438923E+002  0.1187073E+03  0.7546771E-02  0.1245245E+00
         21   -1    0    0  505  501  0.00000000000E+00  0.00000000000E+00  0.33058231219E+03  0.33058231219E+03  0.00000000000E+00 0. -1.
         21   -1    0    0  503  502 -0.00000000000E+00 -0.00000000000E+00 -0.30062859855E+03  0.30062859855E+03  0.00000000000E+00 0. -1.
         21    1    1    2  503  504 -0.92868490742E+02  0.58272608002E+02 -0.26891231491E+03  0.29040331700E+03  0.00000000000E+00 0. -1.
         21    1    1    2  504  506  0.37540845636E+02  0.69159296337E+01  0.33244636531E+02  0.50619670404E+02  0.00000000000E+00 0.  1.
         21    1    1    2  505  502 -0.10374248001E+02 -0.47689317476E+02  0.10663745652E+03  0.11727507474E+03  0.00000000000E+00 0. -1.
         21    1    1    2  506  501  0.65701893107E+02 -0.17499220159E+02  0.15898393549E+03  0.17291284859E+03  0.00000000000E+00 0. -1.
<scales pt_clust_3="108.84640" pt_clust_4="35.49333" pt_clust_5="48.80467" pt_clust_6="35.49333"></scales>
<clustering>
<clus scale="   35.493">  4  6 -1 -1</clus>
<clus scale="   48.805">  1  5  2 -1</clus>
<clus scale="  108.846">  2  3  1 -1</clus>
<clus scale="   48.805">  1  3  2 -1</clus>
</clustering>
</event>
<event>
 6    0  0.1438923E+002  0.9625181E+02  0.7546771E-02  0.1288381E+00
         21   -1    0    0  505  501  0.00000000000E+00  0.00000000000E+00  0.10077084430E+04  0.10077084430E+04  0.00000000000E+00 0.  1.
         21   -1    0    0  506  502 -0.00000000000E+00 -0.00000000000E+00 -0.49729251106E+03  0.49729251106E+03  0.00000000000E+00 0. -1.
         21    1    1    2  503  501  0.90146138011E+01  0.52829726283E+02  0.35980714261E+03  0.36377661155E+03  0.00000000000E+00 0.  1.
         21    1    1    2  504  502  0.65289157746E+02 -0.54192937524E+02 -0.48572879227E+03  0.49308417966E+03  0.00000000000E+00 0. -1.
         21    1    1    2  505  504 -0.37753159335E+02 -0.46178964347E+02  0.24052597672E+03  0.24781150753E+03  0.00000000000E+00 0.  1.
         21    1    1    2  506  503 -0.36550612213E+02  0.47542175589E+02  0.39581160491E+03  0.40032865535E+03  0.00000000000E+00 0.  1.
<scales pt_clust_3="42.95294" pt_clust_4="84.85278" pt_clust_5="59.64728" pt_clust_6="42.95294"></scales>
<clustering>
<clus scale="   42.953">  3  6 -1 -1</clus>
<clus scale="   59.647">  1  5  2 -1</clus>
<clus scale="   84.853">  2  4  1 -1</clus>
<clus scale="   59.647">  1  3  2 -1</clus>
</clustering>
</event>
<event>
 6    0  0.1438923E+002  0.2527906E+03  0.7546771E-02  0.1111554E+00
         21   -1    0    0  505  501  0.00000000000E+00  0.00000000000E+00  0.76711048715E+02  0.76711048715E+02  0.00000000000E+00 0. -1.
         21   -1    0    0  503  502 -0.00000000000E+00 -0.00000000000E+00 -0.21174837870E+04  0.21174837870E+04  0.00000000000E+00 0. -1.
         21    1    1    2  503  506  0.80514714352E+02 -0.15150899813E+03 -0.95843518936E+03  0.97367120115E+03  0.00000000000E+00 0. -1.
         21    1    1    2  504  501 -0.11387200992E+03  0.21983225702E+03 -0.16451258173E+03  0.29724980305E+03  0.00000000000E+00 0. -1.
         21    1    1    2  505  502  0.35177101445E+02 -0.58684665308E+01 -0.42727290290E+03  0.42875867445E+03  0.00000000000E+00 0. -1.
         21    1    1    2  506  504 -0.18198058809E+01 -0.62454792352E+02 -0.49055206431E+03  0.49451515708E+03  0.00000000000E+00 0.  1.
<scales pt_clust_3="37.59644" pt_clust_4="244.68220" pt_clust_5="35.66325" pt_clust_6="37.59644"></scales>
<clustering>
<clus scale="   35.663">  2  5  1 -1</clus>
<clus scale="   37.596">  3  6 -1 -1</clus>
<clus scale="  244.682">  1  4  2 -1</clus>
<clus scale="  244.682">  1  3  2 -1</clus>
</clustering>
</event>
<event>
 6    0  0.1438923E+002  0.1277451E+03  0.7546771E-02  0.1230840E+00
         21   -1    0    0  506  501  0.00000000000E+00  0.00000000000E+00  0.68488834274E+03  0.68488834274E+03  0.00000000000E+00 0.  1.
         21   -1    0    0  504  502 -0.00000000000E+00 -0.00000000000E+00 -0.15281822136E+03  0.15281822136E+03  0.00000000000E+00 0. -1.
         21    1    1    2  503  501  0.47944177556E+02 -0.54405126251E+01  0.41408399591E+03  0.41688583450E+03  0.00000000000E+00 0.  1.
         21    1    1    2  504  505 -0.10843854626E+03 -0.81339650629E+02 -0.97367804980E+02  0.16689980985E+03  0.00000000000E+00 0. -1.
         21    1    1    2  505  503  0.30361341484E+02  0.94060347933E+02  0.18878245919E+03  0.21309147568E+03  0.00000000000E+00 0.  1.
         21    1    1    2  506  502  0.30133027222E+02 -0.72801846794E+01  0.26571471254E+02  0.40829444071E+02  0.00000000000E+00 0.  1.
<scales pt_clust_3="67.92325" pt_clust_4="127.74510" pt_clust_5="14000.00000" pt_clust_6="31.00001"></scales>
<clustering>
<clus scale="   31.000">  1  6  2 -1</clus>
<clus scale="   67.923">  1  3  2 -1</clus>
<clus scale="  127.745">  2  4  1 -1</clus>
<clus scale="   31.000">  1  3  2 -1</clus>
</clustering>
</event>
<event>
 6    0  0.1438923E+002  0.6719761E+02  0.7546771E-02  0.1369891E+00
         21   -1    0    0  503  501  0.00000000000E+00  0.00000000000E+00  0.21569690354E+02  0.21569690354E+02  0.00000000000E+00 0.  1.
         21   -1    0    0  506  502 -0.00000000000E+00 -0.00000000000E+00 -0.20510727933E+04  0.20510727933E+04  0.00000000000E+00 0.  1.
         21    1    1    2  503  502 -0.60178866097E+02 -0.26785488292E+02 -0.11738579900E+03  0.13460454716E+03  0.00000000000E+00 0.  1.
         21    1    1    2  504  501  0.19899166674E+02  0.25052710613E+02 -0.51792352024E+02  0.60877441401E+02  0.00000000000E+00 0.  1.
         21    1    1    2  505  504  0.95686116563E+02 -0.31236022145E+02 -0.31934600607E+03  0.33483338181E+03  0.00000000000E+00 0.  1.
         21    1    1    2  506  505 -0.55406417140E+02  0.32968799825E+02 -0.15409789459E+04  0.15423271133E+04  0.00000000000E+00 0.  1.
<scales pt_clust_3="52.06793" pt_clust_4="31.99399" pt_clust_5="67.19761" pt_clust_6="14000.00000"></scales>
<clustering>
<clus scale="   31.994">  1  4  2 -1</clus>
<clus scale="   52.068">  1  3  2 -1</clus>
<clus scale="   67.198">  1  5  2 -1</clus>
<clus scale="   31.994">  1  3  2 -1</clus>
</clustering>
</event>
<event>
 6    0  0.1438923E+002  0.3412928E+03  0.7546771E-02  0.1066247E+00
         21   -1    0    0  502  501  0.00000000000E+00  0.00000000000E+00  0.27242059504E+03  0.27242059504E+03  0.00000000000E+00 0.  1.
         21   -1    0    0  506  502 -0.00000000000E+00 -0.00000000000E+00 -0.74957242910E+03  0.74957242910E+03  0.00000000000E+00 0.  1.
         21    1    1    2  503  501  0.32745802336E+03  0.69334748322E+02 -0.92973868482E+01  0.33484698862E+03  0.00000000000E+00 0.  1.
         21    1    1    2  504  505 -0.62433629328E+02 -0.54872533302E+02  0.44356229370E+01  0.83238378966E+02  0.00000000000E+00 0.  1.
         21    1    1    2  505  503 -0.22391328840E+03  0.82355117221E+00 -0.13019977932E+03  0.25901702935E+03  0.00000000000E+00 0.  1.
         21    1    1    2  506  504 -0.41111105630E+02 -0.15285766192E+02 -0.34209029083E+03  0.34489062721E+03  0.00000000000E+00 0.  1.
<scales pt_clust_3="316.34547" pt_clust_4="76.57843" pt_clust_5="76.57843" pt_clust_6="43.86089"></scales>
<clustering>
<clus scale="   43.861">  2  6  1 -1</clus>
<clus scale="   76.578">  4  5 -1 -1</clus>
<clus scale="  316.345">  1  3  2 -1</clus>
<clus scale="  316.345">  1  3  2 -1</clus>
</clustering>
</event>
<event>
 6    0  0.1438923E+002  0.8637523E+02  0.7546771E-02  0.1311875E+00
         21   -1    0    0  505  501  0.00000000000E+00  0.00000000000E+00  0.83467683129E+02  0.83467683129E+02  0.00000000000E+00 0. -1.
         21   -1    0    0  504  502 -0.00000000000E+00 -0.00000000000E+00 -0.78950967698E+03  0.78950967698E+03  0.00000000000E+00 0. -1.
         21    1    1    2  503  501 -0.44215016680E+02  0.35480765571E+02 -0.49620454264E+02  0.75339510928E+02  0.00000000000E+00 0.  1.
         21    1    1    2  504  503 -0.33051113451E+01  0.86526614541E+02 -0.62963249302E+03  0.63555869521E+03  0.00000000000E+00 0. -1.
         21    1    1    2  505  506  0.12369127989E+01 -0.42198400097E+02 -0.51477521962E+02  0.66574546122E+02  0.00000000000E+00 0.  1.
         21    1    1    2  506  502  0.46283215226E+02 -0.79808980016E+02  0.24688475398E+02  0.95504607849E+02  0.00000000000E+00 0. -1.
<scales pt_clust_3="52.33779" pt_clust_4="14000.00000" pt_clust_5="42.21652" pt_clust_6="86.37523"></scales>
<clustering>
<clus scale="   42.217">  1  5  2 -1</clus>
<clus scale="   52.338">  1  3  2 -1</clus>
<clus scale="   86.375">  1  6  2 -1</clus>
<clus scale="   42.217">  1  3  2 -1</clus>
</clustering>
</event>
<event>
 6    0  0.1438923E+002  0.1758984E+03  0.7546771E-02  0.1171833E+00
         21   -1    0    0  504  501  0.00000000000E+00  0.00000000000E+00  0.10938011548E+04  0.10938011548E+04  0.00000000000E+00 0.  1.
         21   -1    0    0  503  502 -0.00000000000E+00 -0.00000000000E+00 -0.22026034012E+03  0.22026034012E+03  0.00000000000E+00 0. -1.
         21    1    1    2  503  505  0.14074650225E+02  0.82316326137E+02  0.31476264842E+03  0.32565257280E+03  0.00000000000E+00 0. -1.
         21    1    1    2  504  506 -0.30192811196E+02 -0.14780198209E+03  0.19260283650E+03  0.24464849148E+03  0.00000000000E+00 0.  1.
         21    1    1    2  505  501  0.86926011336E+00  0.96513686195E+02  0.54914025406E+03  0.55755776908E+03  0.00000000000E+00 0.  1.
         21    1    1    2  506  502  0.15248900857E+02 -0.31028030237E+02 -0.18296492431E+03  0.18620266154E+03  0.00000000000E+00 0. -1.
<scales pt_clust_3="36.12520" pt_clust_4="171.49771" pt_clust_5="36.12520" pt_clust_6="34.57264"></scales>
<clustering>
<clus scale="   34.573">  2  6  1 -1</clus>
<clus scale="   36.125">  3  5 -1 -1</clus>
<clus scale="  171.498">  2  4  1 -1</clus>
<clus scale="  175.898">  1  3  2 -1</clus>
</clustering>
</event>
<event>
 6    0  0.1438923E+002  0.1116680E+03  0.7546771E-02  0.1257512E+00
         21   -1    0    0  504  501  0.00000000000E+00  0.00000000000E+00  0.84151039533E+03  0.84151039533E+03  0.00000000000E+00 0. -1.
         21   -1    0    0  505  502 -0.00000000000E+00 -0.00000000000E+00 -0.72256243975E+02  0.72256243975E+02  0.00000000000E+00 0. -1.
         21    1    1    2  503  502 -0.63609905156E+02  0.10777452192E+03  0.12492061794E+02  0.12576811685E+03  0.00000000000E+00 0. -1.
         21    1    1    2  504  506 -0.94218376702E+01 -0.31194402955E+02  0.51125703148E+03  0.51229446028E+03  0.00000000000E+00 0. -1.
         21    1    1    2  505  501 -0.49395798643E+01 -0.32913808552E+02  0.95064134454E+02  0.10072193357E+03  0.00000000000E+00 0.  1.
         21    1    1    2  506  503  0.77971322691E+02 -0.43666310410E+02  0.15044092363E+03  0.17498212860E+03  0.00000000000E+00 0. -1.
<scales pt_clust_3="111.66799" pt_clust_4="32.58622" pt_clust_5="42.87870" pt_clust_6="14000.00000"></scales>
<clustering>
<clus scale="   32.586">  1  4  2 -1</clus>
<clus scale="   42.879">  1  5  2 -1</clus>
<clus scale="  111.668">  2  3  1 -1</clus>
<clus scale="   32.586">  1  3  2 -1</clus>
</clustering>
</event>
<event>
 6    0  0.1978764E+002  0.1346741E+03  0.7546771E-02  0.1220680E+00
         21   -1    0    0  506  501  0.00000000000E+00  0.00000000000E+00  0.95481109523E+03  0.95481109523E+03  0.00000000000E+00 0.  1.
         21   -1    0    0  504  502 -0.00000000000E+00 -0.00000000000E+00 -0.36920571989E+03  0.36920571989E+03  0.00000000000E+00 0. -1.
         21    1    1    2  503  502  0.18251460398E+02  0.38158056753E+02  0.45145755391E+02  0.61865114011E+02  0.00000000000E+00 0. -1.
         21    1    1    2  504  505 -0.75160537250E+02 -0.11354016216E+03 -0.34473899021E+03  0.37065542780E+03  0.00000000000E+00 0. -1.
         21    1    1    2  505  501  0.25514099645E+02  0.50199853545E+02  0.68385838500E+03  0.68617292668E+03  0.00000000000E+00 0.  1.
         21    1    1    2  506  503  0.31394977207E+02  0.25182251860E+02  0.20134022516E+03  0.20532334663E+03  0.00000000000E+00 0. -1.
<scales pt_clust_3="44.89759" pt_clust_4="14000.00000" pt_clust_5="134.67413" pt_clust_6="40.24662"></scales>
<clustering>
<clus scale="   40.247">  1  6  2 -1</clus>
<clus scale="   44.898">  1  3  2 -1</clus>
<clus scale="  134.674">  1  5  2 -1</clus>
<clus scale="   40.247">  1  3  2 -1</clus>
</clustering>
</event>
<event>
 6    0  0.1438923E+002  0.2149273E+03  0.7546771E-02  0.1137722E+00
         21   -1    0    0  503  501  0.00000000000E+00  0.00000000000E+00  0.33643557457E+03  0.33643557457E+03  0.00000000000E+00 0. -1.
         21   -1    0    0  506  502 -0.00000000000E+00 -0.00000000000E+00 -0.15202427437E+03  0.15202427437E+03  0.00000000000E+00 0. -1.
         21    1    1    2  503  504  0.73610179571E+02 -0.60273051073E+02  0.90958296910E+02  0.13162336798E+03  0.00000000000E+00 0. -1.
         21    1    1    2  504  502  0.84611654334E+02 -0.80521401027E+02  0.23919232520E+02  0.11922649771E+03  0.00000000000E+00 0. -1.
         21    1    1    2  505  501 -0.12702970859E+03  0.14814536230E+03  0.58894923836E+02  0.20384358535E+03  0.00000000000E+00 0. -1.
         21    1    1    2  506  505 -0.31192125313E+02 -0.73509101971E+01  0.10638846940E+02  0.33766397890E+02  0.00000000000E+00 0. -1.
<scales pt_clust_3="63.61277" pt_clust_4="63.61277" pt_clust_5="203.27849" pt_clust_6="32.04660"></scales>
<clustering>
<clus scale="   32.047">  2  6  1 -1</clus>
<clus scale="   63.613">  3  4 -1 -1</clus>
<clus scale="  203.278">  2  5  1 -1</clus>
<clus scale="  214.927">  1  3  2 -1</clus>
</clustering>
</event>
<event>
 6    0  0.1438923E+002  0.1121615E+03  0.7546771E-02  0.1256619E+00
         21   -1    0    0  505  501  0.00000000000E+00  0.00000000000E+00  0.20039680760E+04  0.20039680760E+04  0.00000000000E+00 0.  1.
         21   -1    0    0  504  502 -0.00000000000E+00 -0.00000000000E+00 -0.26975093211E+02  0.26975093211E+02  0.00000000000E+00 0. -1.
         21    1    1    2  503  501  0.43419909563E+02 -0.25108192958E+02  0.10589857669E+04  0.10601728937E+04  0.00000000000E+00 0.  1.
         21    1    1    2  504  506 -0.17648458004E+02  0.98946572925E+02  0.45992207931E+03  0.47077617973E+03  0.00000000000E+00 0. -1.
         21    1    1    2  505  502  0.43592244723E+02 -0.11087759453E+03  0.23537182452E+03  0.26380678639E+03  0.00000000000E+00 0. -1.
         21    1    1    2  506  503 -0.69363696282E+02  0.37039214567E+02  0.22271331202E+03  0.23618730941E+03  0.00000000000E+00 0.  1.
<scales pt_clust_3="50.15685" pt_clust_4="112.16154" pt_clust_5="14000.00000" pt_clust_6="66.45554"></scales>
<clustering>
<clus scale="   50.157">  1  3  2 -1</clus>
<clus scale="   66.456">  1  6  2 -1</clus>
<clus scale="  112.162">  1  4  2 -1</clus>
<clus scale="   50.157">  1  3  2 -1</clus>
</clustering>
</event>
<event>
 6    0  0.1438923E+002  0.1051097E+03  0.7546771E-02  0.1269904E+00
         21   -1    0    0  506  501  0.00000000000E+00  0.00000000000E+00  0.10738332765E+03  0.10738332765E+03  0.00000000000E+00 0. -1.
         21   -1    0    0  504  502 -0.00000000000E+00 -0.00000000000E+00 -0.80435087995E+03  0.80435087995E+03  0.00000000000E+00 0. -1.
         21    1    1    2  503  501  0.19159063205E+02 -0.24733132687E+02  0.32315953695E+02  0.44979088681E+02  0.00000000000E+00 0. -1.
         21    1    1    2  504  503 -0.12002130091E+03  0.60240741171E+02 -0.12444996519E+03  0.18308974139E+03  0.00000000000E+00 0. -1.
         21    1    1    2  505  502  0.32252086349E+02  0.60625057924E+01 -0.60251779829E+03  0.60341084536E+03  0.00000000000E+00 0. -1.
         21    1    1    2  506  505  0.68610151351E+02 -0.41570114277E+02 -0.23157425191E+01  0.80254532164E+02  0.00000000000E+00 0. -1.
<scales pt_clust_3="31.28574" pt_clust_4="105.10972" pt_clust_5="32.91007" pt_clust_6="14000.00000"></scales>
<clustering>
<clus scale="   31.286">  1  3  2 -1</clus>
<clus scale="   32.910">  2  5  1 -1</clus>
<clus scale="  105.110">  2  4  1 -1</clus>
<clus scale="   31.286">  1  3  2 -1</clus>
</clustering>
</event>
<event>
 6    0  0.1438923E+002  0.1362051E+03  0.7546771E-02  0.1218528E+00
         21   -1    0    0  506  501  0.00000000000E+00  0.00000000000E+00  0.44384500579E+03  0.44384500579E+03  0.00000000000E+00 0.  1.
         21   -1    0    0  505  502 -0.00000000000E+00 -0.00000000000E+00 -0.15731718203E+03  0.15731718203E+03  0.00000000000E+00 0. -1.
         21    1    1    2  503  504 -0.10371727524E+03  0.66172547983E+02  0.25559035406E+03  0.28365914119E+03  0.00000000000E+00 0.  1.
         21    1    1    2  504  502  0.12401704103E+03 -0.88608080539E+01 -0.74080822705E+02  0.14472977813E+03  0.00000000000E+00 0. -1.
         21    1    1    2  505  501  0.26571504150E+02 -0.79394879432E+02  0.51559711416E+02  0.98325965819E+02  0.00000000000E+00 0.  1.
         21    1    1    2  506  503 -0.46871269946E+02  0.22083139503E+02  0.53458580985E+02  0.74447302689E+02  0.00000000000E+00 0.  1.
<scales pt_clust_3="30.87155" pt_clust_4="127.62771" pt_clust_5="83.72330" pt_clust_6="30.87155"></scales>
<clustering>
<clus scale="   30.872">  3  6 -1 -1</clus>
<clus scale="   83.723">  1  5  2 -1</clus>
<clus scale="  127.628">  2  4  1 -1</clus>
<clus scale="   83.723">  1  3  2 -1</clus>
</clustering>
</event>
<event>
 6    0  0.2889796E+002  0.1294126E+03  0.7546771E-02  0.1228330E+00
         21   -1    0    0  506  501  0.00000000000E+00  0.00000000000E+00  0.21621533222E+03  0.21621533222E+03  0.00000000000E+00 0.  1.
         21   -1    0    0  504  502 -0.00000000000E+00 -0.00000000000E+00 -0.16950514239E+04  0.16950514239E+04  0.00000000000E+00 0. -1.
         21    1    1    2  503  501  0.59856890951E+02  0.53152999697E+02  0.13764781701E+03  0.15923256670E+03  0.00000000000E+00 0.  1.
         21    1    1    2  504  505 -0.26528816735E+02 -0.83932306888E+02 -0.44414700640E+03  0.45278579212E+03  0.00000000000E+00 0. -1.
         21    1    1    2  505  503  0.13446200237E+02  0.47100068091E+02  0.53427962118E+02  0.72482852118E+02  0.00000000000E+00 0.  1.
         21    1    1    2  506  502 -0.46774274452E+02 -0.16320760900E+02 -0.12257648644E+04  0.12267655452E+04  0.00000000000E+00 0. -1.
<scales pt_clust_3="32.79837" pt_clust_4="122.43181" pt_clust_5="32.79837" pt_clust_6="49.53988"></scales>
<clustering>
<clus scale="   32.798">  3  5 -1 -1</clus>
<clus scale="   49.540">  2  6  1 -1</clus>
<clus scale="  122.432">  2  4  1 -1</clus>
<clus scale="  129.413">  1  3  2 -1</clus>
</clustering>
</event>
<event>
 6    0  0.1438923E+002  0.1107133E+03  0.7546771E-02  0.1259255E+00
         21   -1    0    0  505  501  0.00000000000E+00  0.00000000000E+00  0.48157454483E+04  0.48157454483E+04  0.00000000000E+00 0.  1.
         21   -1    0    0  503  502 -0.00000000000E+00 -0.00000000000E+00 -0.63494718560E+03  0.63494718560E+03  0.00000000000E+00 0.  1.
         21    1    1    2  503  504 -0.18594673386E+02 -0.74293107952E+02 -0.62579963109E+03  0.63046840210E+03  0.00000000000E+00 0.  1.
         21    1    1    2  504  501 -0.49394885135E+02  0.17364107803E+03  0.37849326900E+04  0.37892356150E+04  0.00000000000E+00 0.  1.
         21    1    1    2  505  506  0.69180084394E+01 -0.53910377365E+02  0.60424117318E+03  0.60668079168E+03  0.00000000000E+00 0.  1.
         21    1    1    2  506  502  0.61071550081E+02 -0.45437592718E+02  0.41742403069E+03  0.42430782512E+03  0.00000000000E+00 0.  1.
<scales pt_clust_3="76.61284" pt_clust_4="14000.00000" pt_clust_5="54.35244" pt_clust_6="110.71327"></scales>
<clustering>
<clus scale="   54.352">  1  5  2 -1</clus>
<clus scale="   76.613">  2  3  1 -1</clus>
<clus scale="  110.713">  2  6  1 -1</clus>
<clus scale="   54.352">  1  3  2 -1</clus>
</clustering>
</event>
<event>
 6    0  0.1438923E+002  0.1048360E+03  0.7546771E-02  0.1270443E+00
         21   -1    0    0  504  501  0.00000000000E+00  0.00000000000E+00  0.18384799495E+03  0.18384799495E+03  0.00000000000E+00 0. -1.
         21   -1    0    0  501  502 -0.00000000000E+00 -0.00000000000E+00 -0.14355832472E+03  0.14355832472E+03  0.00000000000E+00 0.  1.
         21    1    1    2  503  505 -0.70598940739E+01 -0.66430938074E+02 -0.10295662788E+02  0.67593729812E+02  0.00000000000E+00 0.  1.
         21    1    1    2  504  503 -0.10660832341E+02  0.90672800862E+02  0.10863498799E+03  0.14190409007E+03  0.00000000000E+00 0. -1.
         21    1    1    2  505  506  0.31474328734E+02 -0.52235362915E+02 -0.11786446977E+02  0.62113499663E+02  0.00000000000E+00 0.  1.
         21    1    1    2  506  502 -0.13753602319E+02  0.27993500126E+02 -0.46263207985E+02  0.55795000127E+02  0.00000000000E+00 0.  1.
<scales pt_clust_3="37.88773" pt_clust_4="96.60229" pt_clust_5="37.88773" pt_clust_6="31.18970"></scales>
<clustering>
<clus scale="   31.190">  2  6  1 -1</clus>
<clus scale="   37.888">  3  5 -1 -1</clus>
<clus scale="   96.602">  1  4  2 -1</clus>
<clus scale="   96.602">  1  3  2 -1</clus>
</clustering>
</event>
<event>
 6    0  0.1438923E+002  0.7869518E+02  0.7546771E-02  0.1332796E+00
         21   -1    0    0  505  501  0.00000000000E+00  0.00000000000E+00  0.13874535998E+03  0.13874535998E+03  0.00000000000E+00 0. -1.
         21   -1    0    0  503  502 -0.00000000000E+00 -0.00000000000E+00 -0.29506688233E+03  0.29506688233E+03  0.00000000000E+00 0. -1.
         21    1    1    2  503  506  0.83938557452E+02 -0.21109452021E+02 -0.77194575243E+02  0.11597539756E+03  0.00000000000E+00 0. -1.
         21    1    1    2  504  502 -0.27262315340E+02  0.12598397457E+02 -0.13406644761E+03  0.13738910376E+03  0.00000000000E+00 0. -1.
         21    1    1    2  505  504 -0.56634343496E+02 -0.67221167459E+02  0.56868779729E+02  0.10469093717E+03  0.00000000000E+00 0. -1.
         21    1    1    2  506  501 -0.41898615831E-01  0.75732222022E+02 -0.19292792339E+01  0.75756803828E+02  0.00000000000E+00 0.  1.
<scales pt_clust_3="68.74635" pt_clust_4="30.03254" pt_clust_5="78.69518" pt_clust_6="14000.00000"></scales>
<clustering>
<clus scale="   30.033">  2  4  1 -1</clus>
<clus scale="   68.746">  2  3  1 -1</clus>
<clus scale="   78.695">  1  5  2 -1</clus>
<clus scale="   78.695">  1  3  2 -1</clus>
</clustering>
</event>
<event>
 6    0  0.1438923E+002  0.1321159E+03  0.7546771E-02  0.1224349E+00
         21   -1    0    0  504  501  0.00000000000E+00  0.00000000000E+00  0.12342679864E+04  0.12342679864E+04  0.00000000000E+00 0.  1.
         21   -1    0    0  503  502 -0.00000000000E+00 -0.00000000000E+00 -0.35149483093E+02  0.35149483093E+02  0.00000000000E+00 0.  1.
         21    1    1    2  503  505  0.16297918250E+02 -0.73218978077E+02  0.54073266574E+02  0.92469232980E+02  0.00000000000E+00 0.  1.
         21    1    1    2  504  502  0.10949360835E+03  0.78025121166E+02  0.69496429622E+03  0.70785036753E+03  0.00000000000E+00 0.  1.
         21    1    1    2  505  506 -0.56214091028E+02  0.64396884603E+01  0.13784059495E+03  0.14900175581E+03  0.00000000000E+00 0.  1.
         21    1    1    2  506  501 -0.69577435569E+02 -0.11245831549E+02  0.31224034554E+03  0.32009611315E+03  0.00000000000E+00 0.  1.
<scales pt_clust_3="75.01094" pt_clust_4="125.78260" pt_clust_5="36.21126" pt_clust_6="36.21126"></scales>
<clustering>
<clus scale="   36.211">  5  6 -1 -1</clus>
<clus scale="   75.011">  2  3  1 -1</clus>
<clus scale="  125.783">  1  4  2 -1</clus>
<clus scale="  125.783">  1  3  2 -1</clus>
</clustering>
</event>
<event>
 6    0  0.1438923E+002  0.2245264E+03  0.7546771E-02  0.1130553E+00
         21   -1    0    0  504  501  0.00000000000E+00  0.00000000000E+00  0.11697093062E+04  0.11697093062E+04  0.00000000000E+00 0. -1.
         21   -1    0    0  505  502 -0.00000000000E+00 -0.00000000000E+00 -0.94934831868E+02  0.94934831868E+02  0.00000000000E+00 0. -1.
         21    1    1    2  503  506  0.29575087330E+02 -0.70419612380E+02  0.18050816612E+03  0.19600205518E+03  0.00000000000E+00 0. -1.
         21    1    1    2  504  502 -0.13518019506E+03  0.20329633241E+03  0.20723645684E+03  0.32023434069E+03  0.00000000000E+00 0. -1.
         21    1    1    2  505  503  0.18088238411E+02 -0.45442998161E+02 -0.14202204796E+01  0.48931252558E+02  0.00000000000E+00 0. -1.
         21    1    1    2  506  501  0.87516869322E+02 -0.87433721873E+02  0.68845007183E+03  0.69947648962E+03  0.00000000000E+00 0. -1.
<scales pt_clust_3="72.44770" pt_clust_4="205.54055" pt_clust_5="48.91064" pt_clust_6="72.44770"></scales>
<clustering>
<clus scale="   48.911">  2  5  1 -1</clus>
<clus scale="   72.448">  3  6 -1 -1</clus>
<clus scale="  205.541">  2  4  1 -1</clus>
<clus scale="  224.526">  1  3  2 -1</clus>
</clustering>
</event>
<event>
 6    0  0.1504579E+002  0.1024068E+03  0.7546771E-02  0.1275315E+00
         21   -1    0    0  504  501  0.00000000000E+00  0.00000000000E+00  0.54350963274E+03  0.54350963274E+03  0.00000000000E+00 0.  1.
         21   -1    0    0  506  502 -0.00000000000E+00 -0.00000000000E+00 -0.53197244863E+03  0.53197244863E+03  0.00000000000E+00 0. -1.
         21    1    1    2  503  501 -0.78165427124E+02 -0.10711938397E+03  0.48918709125E+03  0.50684159919E+03  0.00000000000E+00 0.  1.
         21    1    1    2  504  505 -0.25565740230E+00  0.40154186206E+02  0.18393389724E+02  0.44167191626E+02  0.00000000000E+00 0.  1.
         21    1    1    2  505  502  0.53992519900E+02  0.37159935375E+02 -0.47701026145E+03  0.48149230786E+03  0.00000000000E+00 0. -1.
         21    1    1    2  506  503  0.24428564627E+02  0.29805262392E+02 -0.19033035412E+02  0.42980982689E+02  0.00000000000E+00 0.  1.
<scales pt_clust_3="14000.00000" pt_clust_4="40.92260" pt_clust_5="102.40683" pt_clust_6="38.53710"></scales>
<clustering>
<clus scale="   38.537">  2  6  1 -1</clus>
<clus scale="   40.923">  1  4  2 -1</clus>
<clus scale="  102.407">  2  5  1 -1</clus>
<clus scale="   40.923">  1  3  2 -1</clus>
</clustering>
</event>
<event>
 6    0  0.1438923E+002  0.2826588E+03  0.7546771E-02  0.1094246E+00
         21   -1    0    0  503  501  0.00000000000E+00  0.00000000000E+00  0.17337853746E+03  0.17337853746E+03  0.00000000000E+00 0.  1.
         21   -1    0    0  506  502 -0.00000000000E+00 -0.00000000000E+00 -0.12706545571E+04  0.12706545571E+04  0.00000000000E+00 0.  1.
         21    1    1    2  503  502 -0.27774246893E+03 -0.37769352080E+02 -0.11009375663E+04  0.11360593857E+04  0.00000000000E+00 0.  1.
         21    1    1    2  504  501  0.17235082795E+02  0.38355730541E+02  0.37786300017E+01  0.42219523789E+02  0.00000000000E+00 0. -1.
         21    1    1    2  505  504  0.13867360096E+03  0.82792802591E+01  0.24709529298E+02  0.14110093878E+03  0.00000000000E+00 0.  1.
         21    1    1    2  506  505  0.12183378517E+03 -0.88656587203E+01 -0.24826612652E+02  0.12465324629E+03  0.00000000000E+00 0.  1.
<scales pt_clust_3="277.73218" pt_clust_4="42.05009" pt_clust_5="48.29252" pt_clust_6="48.29252"></scales>
<clustering>
<clus scale="   42.050">  1  4  2 -1</clus>
<clus scale="   48.293">  5  6 -1 -1</clus>
<clus scale="  277.732">  2  3  1 -1</clus>
<clus scale="   42.050">  1  3  2 -1</clus>
</clustering>
</event>
<event>
 6    0  0.1438923E+002  0.9102594E+02  0.7546771E-02  0.1300386E+00
         21   -1    0    0  504  501  0.00000000000E+00  0.00000000000E+00  0.25548773419E+02  0.25548773419E+02  0.00000000000E+00 0. -1.
         21   -1    0    0  506  502 -0.00000000000E+00 -0.00000000000E+00 -0.10524039466E+04  0.10524039466E+04  0.00000000000E+00 0. -1.
         21    1    1    2  503  501  0.35121369046E+02  0.58540331391E+02 -0.21070146351E+03  0.22148496041E+03  0.00000000000E+00 0. -1.
         21    1    1    2  504  505 -0.47764052111E+02 -0.40827824781E+02 -0.14037014705E+03  0.15379237346E+03  0.00000000000E+00 0. -1.
         21    1    1    2  505  502  0.98860141630E+02 -0.20401921723E+02 -0.28108316820E+03  0.29865919282E+03  0.00000000000E+00 0. -1.
         21    1    1    2  506  503 -0.86217458564E+02  0.26894151122E+01 -0.39470039442E+03  0.40401619332E+03  0.00000000000E+00 0. -1.
<scales pt_clust_3="51.53115" pt_clust_4="62.83563" pt_clust_5="14000.00000" pt_clust_6="91.02594"></scales>
<clustering>
<clus scale="   62.836">  1  4  2 -1</clus>
<clus scale="   51.531">  1  3  2 -1</clus>
<clus scale="   91.026">  2  6  1 -1</clus>
<clus scale="   62.836">  1  3  2 -1</clus>
</clustering>
</event>
<event>
 6    0  0.1438923E+002  0.7049929E+02  0.7546771E-02  0.1358403E+00
         21   -1    0    0  506  501  0.00000000000E+00  0.00000000000E+00  0.14209439549E+03  0.14209439549E+03  0.00000000000E+00 0. -1.
         21   -1    0    0  503  502 -0.00000000000E+00 -0.00000000000E+00 -0.16940926418E+03  0.16940926418E+03  0.00000000000E+00 0. -1.
         21    1    1    2  503  505  0.17052331332E+02  0.36477565130E+02 -0.82321349916E+01  0.41099425887E+02  0.00000000000E+00 0. -1.
         21    1    1    2  504  501  0.42359478050E+02 -0.23599936864E+02  0.56543539735E+01  0.48818583752E+02  0.00000000000E+00 0. -1.
         21    1    1    2  505  504 -0.79352154270E+02 -0.67471372597E+02 -0.87507267744E+02  0.13603923116E+03  0.00000000000E+00 0. -1.
         21    1    1    2  506  502  0.19940344887E+02  0.54593744331E+02  0.62770180078E+02  0.85546418869E+02  0.00000000000E+00 0. -1.
<scales pt_clust_3="40.26655" pt_clust_4="48.43569" pt_clust_5="14000.00000" pt_clust_6="70.49929"></scales>
<clustering>
<clus scale="   40.267">  2  3  1 -1</clus>
<clus scale="   48.436">  1  4  2 -1</clus>
<clus scale="   70.499">  1  6  2 -1</clus>
<clus scale="   48.436">  1  3  2 -1</clus>
</clustering>
</event>
<event>
 6    0  0.1438923E+002  0.7095765E+02  0.7546771E-02  0.1356866E+00
         21   -1    0    0  506  501  0.00000000000E+00  0.00000000000E+00  0.22618002558E+03  0.22618002558E+03  0.00000000000E+00 0. -1.
         21   -1    0    0  505  502 -0.00000000000E+00 -0.00000000000E+00 -0.14741961117E+04  0.14741961117E+04  0.00000000000E+00 0.  1.
         21    1    1    2  503  502 -0.68964543047E+02 -0.16921024732E+02 -0.13905969580E+04  0.13924088225E+04  0.00000000000E+00 0.  1.
         21    1    1    2  504  501  0.81250805392E+01  0.44567875104E+02 -0.33817217591E+02  0.56532438747E+02  0.00000000000E+00 0. -1.
         21    1    1    2  505  504 -0.19846976603E+02  0.48502318624E+02  0.13108655933E+02  0.54020498448E+02  0.00000000000E+00 0. -1.
         21    1    1    2  506  503  0.80686439111E+02 -0.76149168997E+02  0.16328943353E+03  0.19741437764E+03  0.00000000000E+00 0. -1.
<scales pt_clust_3="14000.00000" pt_clust_4="45.30245" pt_clust_5="58.49421" pt_clust_6="70.95765"></scales>
<clustering>
<clus scale="   45.302">  1  4  2 -1</clus>
<clus scale="   58.494">  1  5  2 -1</clus>
<clus scale="   70.958">  1  6  2 -1</clus>
<clus scale="   45.302">  1  3  2 -1</clus>
</clustering>
</event>
<event>
 6    0  0.1438923E+002  0.9833803E+02  0.7546771E-02  0.1283830E+00
         21   -1    0    0  505  501  0.00000000000E+00  0.00000000000E+00  0.37081304620E+02  0.37081304620E+02  0.00000000000E+00 0. -1.
         21   -1    0    0  506  502 -0.00000000000E+00 -0.00000000000E+00 -0.71699465206E+03  0.71699465206E+03  0.00000000000E+00 0. -1.
         21    1    1    2  503  501  0.10003250312E+02 -0.63814354795E+02 -0.83422653891E+02  0.10550675844E+03  0.00000000000E+00 0. -1.
         21    1    1    2  504  502 -0.64579247380E+02 -0.57631531005E+02 -0.19096891953E+03  0.20966878830E+03  0.00000000000E+00 0. -1.
         21    1    1    2  505  504  0.83737045065E+02  0.73997129112E+02 -0.28533316849E+03  0.30643512343E+03  0.00000000000E+00 0. -1.
         21    1    1    2  506  503 -0.29161047996E+02  0.47448756688E+02 -0.12018860553E+03  0.13246528651E+03  0.00000000000E+00 0.  1.
<scales pt_clust_3="56.47891" pt_clust_4="14000.00000" pt_clust_5="98.33803" pt_clust_6="55.69337"></scales>
<clustering>
<clus scale="   55.693">  2  6  1 -1</clus>
<clus scale="   56.479">  1  3  2 -1</clus>
<clus scale="   98.338">  1  5  2 -1</clus>
<clus scale="   56.479">  1  3  2 -1</clus>
</clustering>
</event>
<event>
 6    0  0.1438923E+002  0.1182306E+03  0.7546771E-02  0.1246045E+00
         21   -1    0    0  506  501  0.00000000000E+00  0.00000000000E+00  0.30230953178E+03  0.30230953178E+03  0.00000000000E+00 0.  1.
         21   -1    0    0  504  502 -0.00000000000E+00 -0.00000000000E+00 -0.30981050965E+03  0.30981050965E+03  0.00000000000E+00 0.  1.
         21    1    1    2  503  501 -0.28974081454E+02  0.20557279144E+02  0.36171912904E+02  0.50700161785E+02  0.00000000000E+00 0. -1.
         21    1    1    2  504  503  0.56753470717E+02  0.65452254782E+02  0.21074321452E+03  0.22785446356E+03  0.00000000000E+00 0.  1.
         21    1    1    2  505  502 -0.60523458624E+02 -0.10381152779E+03 -0.26815079440E+03  0.29384480748E+03  0.00000000000E+00 0.  1.
         21    1    1    2  506  505  0.32744069361E+02  0.17801993862E+02  0.13734689104E+02  0.39720608612E+02  0.00000000000E+00 0.  1.
<scales pt_clust_3="35.52603" pt_clust_4="14000.00000" pt_clust_5="118.23059" pt_clust_6="35.80784"></scales>
<clustering>
<clus scale="   35.526">  1  3  2 -1</clus>
<clus scale="   35.808">  1  6  2 -1</clus>
<clus scale="  118.231">  2  5  1 -1</clus>
<clus scale="   35.526">  1  3  2 -1</clus>
</clustering>
</event>
<event>
 6    0  0.1438923E+002  0.1303324E+03  0.7546771E-02  0.1226963E+00
         21   -1    0    0  504  501  0.00000000000E+00  0.00000000000E+00  0.18893653537E+04  0.18893653537E+04  0.00000000000E+00 0.  1.
         21   -1    0    0  503  502 -0.00000000000E+00 -0.00000000000E+00 -0.69988027132E+02  0.69988027132E+02  0.00000000000E+00 0.  1.
         21    1    1    2  503  506  0.18850365665E+02  0.41213548729E+02 -0.44044422935E+02  0.63196551142E+02  0.00000000000E+00 0.  1.
         21    1    1    2  504  505  0.57223649358E+02  0.93630879571E+02  0.45584648068E+03  0.46886810683E+03  0.00000000000E+00 0.  1.
         21    1    1    2  505  502  0.18789582906E+02 -0.28126322723E+02  0.40457607035E+02  0.52734774321E+02  0.00000000000E+00 0.  1.
         21    1    1    2  506  501 -0.94863597929E+02 -0.10671810558E+03  0.13671176617E+04  0.13745539485E+04  0.00000000000E+00 0.  1.
<scales pt_clust_3="38.84252" pt_clust_4="14000.00000" pt_clust_5="33.82512" pt_clust_6="130.33237"></scales>
<clustering>
<clus scale="   33.825">  2  5  1 -1</clus>
<clus scale="   38.843">  2  3  1 -1</clus>
<clus scale="  130.332">  1  6  2 -1</clus>
<clus scale="  130.332">  1  3  2 -1</clus>
</clustering>
</event>
<event>
 6    0  0.1438923E+002  0.1652683E+03  0.7546771E-02  0.1182874E+00
         21   -1    0    0  504  501  0.00000000000E+00  0.00000000000E+00  0.13709633039E+04  0.13709633039E+04  0.00000000000E+00 0. -1.
         21   -1    0    0  505  502 -0.00000000000E+00 -0.00000000000E+00 -0.20881862920E+04  0.20881862920E+04  0.00000000000E+00 0. -1.
         21    1    1    2  503  506  0.61716458671E+02  0.69953702707E+02  0.48757495042E+03  0.49641895015E+03  0.00000000000E+00 0. -1.
         21    1    1    2  504  502 -0.27321266865E+02  0.43238793908E+02  0.80288190403E+03  0.80450941370E+03  0.00000000000E+00 0.  1.
         21    1    1    2  505  503 -0.50208409987E+02 -0.15802142206E+03 -0.20717877885E+04  0.20784119647E+04  0.00000000000E+00 0. -1.
         21    1    1    2  506  501  0.15813218181E+02  0.44828925446E+02  0.64107945916E+02  0.79809267353E+02  0.00000000000E+00 0.  1.
<scales pt_clust_3="14000.00000" pt_clust_4="73.10915" pt_clust_5="165.26832" pt_clust_6="47.53620"></scales>
<clustering>
<clus scale="   47.536">  1  6  2 -1</clus>
<clus scale="   73.109">  1  4  2 -1</clus>
<clus scale="  165.268">  2  5  1 -1</clus>
<clus scale="   47.536">  1  3  2 -1</clus>
</clustering>
</event>
<event>
 6    0  0.1438923E+002  0.2055205E+03  0.7546771E-02  0.1145163E+00
         21   -1    0    0  506  501  0.00000000000E+00  0.00000000000E+00  0.13712244506E+03  0.13712244506E+03  0.00000000000E+00 0.  1.
         21   -1    0    0  503  502 -0.00000000000E+00 -0.00000000000E+00 -0.61499910616E+03  0.61499910616E+03  0.00000000000E+00 0.  1.
         21    1    1    2  503  505 -0.14644056729E+03 -0.43383135735E+02 -0.68294946382E+01  0.15288419870E+03  0.00000000000E+00 0.  1.
         21    1    1    2  504  502  0.33867596080E+02  0.22895491529E+02 -0.21803699963E+03  0.22183631534E+03  0.00000000000E+00 0. -1.
         21    1    1    2  505  501 -0.58167205546E+02  0.17320244011E+02  0.12259448322E+02  0.61916950239E+02  0.00000000000E+00 0.  1.
         21    1    1    2  506  504  0.17074017676E+03  0.31674001946E+01 -0.26526961516E+03  0.31548408694E+03  0.00000000000E+00 0.  1.
<scales pt_clust_3="37.64570" pt_clust_4="40.88053" pt_clust_5="37.64570" pt_clust_6="196.65262"></scales>
<clustering>
<clus scale="   37.646">  3  5 -1 -1</clus>
<clus scale="   40.881">  2  4  1 -1</clus>
<clus scale="  196.653">  2  6  1 -1</clus>
<clus scale="  205.521">  1  3  2 -1</clus>
</clustering>
</event>
<event>
 6    0  0.1438923E+002  0.1338387E+03  0.7546771E-02  0.1221868E+00
         21   -1    0    0  503  501  0.00000000000E+00  0.00000000000E+00  0.35353645790E+02  0.35353645790E+02  0.00000000000E+00 0. -1.
         21   -1    0    0  504  502 -0.00000000000E+00 -0.00000000000E+00 -0.78483770661E+03  0.78483770661E+03  0.00000000000E+00 0.  1.
         21    1    1    2  503  502  0.28264800737E+02  0.18534693470E+02 -0.25829222870E+03  0.26049435546E+03  0.00000000000E+00 0.  1.
         21    1    1    2  504  506 -0.11287140099E+02  0.11702677014E+03 -0.29345845131E+03  0.31613371713E+03  0.00000000000E+00 0.  1.
         21    1    1    2  505  501  0.10666919958E+02 -0.71464885757E+02 -0.10620932436E+03  0.12845790617E+03  0.00000000000E+00 0. -1.
         21    1    1    2  506  505 -0.27644580597E+02 -0.64096577855E+02 -0.91524056450E+02  0.11510537363E+03  0.00000000000E+00 0. -1.
<scales pt_clust_3="33.79991" pt_clust_4="127.88032" pt_clust_5="38.01963" pt_clust_6="38.01963"></scales>
<clustering>
<clus scale="   33.800">  2  3  1 -1</clus>
<clus scale="   38.020">  5  6 -1 -1</clus>
<clus scale="  127.880">  2  4  1 -1</clus>
<clus scale="  133.839">  1  3  2 -1</clus>
</clustering>
</event>
<event>
 6    0  0.1438923E+002  0.1126455E+03  0.7546771E-02  0.1255748E+00
         21   -1    0    0  504  501  0.00000000000E+00  0.00000000000E+00  0.13307975320E+04  0.13307975320E+04  0.00000000000E+00 0.  1.
         21   -1    0    0  503  502 -0.00000000000E+00 -0.00000000000E+00 -0.50288249147E+02  0.50288249147E+02  0.00000000000E+00 0. -1.
         21    1    1    2  503  506 -0.37188328042E+02  0.45538099258E+02  0.13293197861E+03  0.14535336653E+03  0.00000000000E+00 0. -1.
         21    1    1    2  504  505  0.81957498128E+02 -0.80599954285E+02  0.10623286581E+04  0.10685296261E+04  0.00000000000E+00 0.  1.
         21    1    1    2  505  502  0.91421441045E+01 -0.30802682457E+02  0.74849965812E+02  0.81454904257E+02  0.00000000000E+00 0.  1.
         21    1    1    2  506  501 -0.53911314190E+02  0.65864537484E+02  0.10398680346E+02  0.85747884222E+02  0.00000000000E+00 0. -1.
<scales pt_clust_3="54.90014" pt_clust_4="112.64548" pt_clust_5="32.13073" pt_clust_6="14000.00000"></scales>
<clustering>
<clus scale="   32.131">  2  5  1 -1</clus>
<clus scale="   54.900">  2  3  1 -1</clus>
<clus scale="  112.645">  1  4  2 -1</clus>
<clus scale="  112.645">  1  3  2 -1</clus>
</clustering>
</event>
<event>
 6    0  0.1438923E+002  0.1436846E+03  0.7546771E-02  0.1208455E+00
         21   -1    0    0  505  501  0.00000000000E+00  0.00000000000E+00  0.32519131135E+03  0.32519131135E+03  0.00000000000E+00 0. -1.
         21   -1    0    0  506  502 -0.00000000000E+00 -0.00000000000E+00 -0.65311339133E+03  0.65311339133E+03  0.00000000000E+00 0. -1.
         21    1    1    2  503  501  0.14258599423E+02  0.45253260108E+02  0.87863523120E+02  0.99855715425E+02  0.00000000000E+00 0. -1.
         21    1    1    2  504  502  0.30481007901E+02  0.82991525269E+01 -0.36725693677E+03  0.36861311070E+03  0.00000000000E+00 0. -1.
         21    1    1    2  505  504 -0.11633411824E+02 -0.14346345192E+03 -0.24902120508E+03  0.28762590093E+03  0.00000000000E+00 0. -1.
         21    1    1    2  506  503 -0.33106195500E+02  0.89911039286E+02  0.20049253876E+03  0.22220997561E+03  0.00000000000E+00 0. -1.
<scales pt_clust_3="31.09448" pt_clust_4="31.59063" pt_clust_5="136.72159" pt_clust_6="31.09448"></scales>
<clustering>
<clus scale="   31.094">  3  6 -1 -1</clus>
<clus scale="   31.591">  2  4  1 -1</clus>
<clus scale="  136.722">  2  5  1 -1</clus>
<clus scale="  143.685">  1  3  2 -1</clus>
</clustering>
</event>
<event>
 6    0  0.1438923E+002  0.1126797E+03  0.7546771E-02  0.1255686E+00
         21   -1    0    0  504  501  0.00000000000E+00  0.00000000000E+00  0.10007148502E+03  0.10007148502E+03  0.00000000000E+00 0.  1.
         21   -1    0    0  503  502 -0.00000000000E+00 -0.00000000000E+00 -0.37108654438E+03  0.37108654438E+03  0.00000000000E+00 0.  1.
         21    1    1    2  503  505  0.47432392766E+02 -0.10286021971E+03 -0.19671650283E+03  0.22699656202E+03  0.00000000000E+00 0.  1.
         21    1    1    2  504  502 -0.61423724655E+02  0.43518963590E+01 -0.15931463829E+01  0.61598304099E+02  0.00000000000E+00 0.  1.
         21    1    1    2  505  506  0.26272005674E+02  0.12604270814E+03 -0.79951082467E+02  0.15155579219E+03  0.00000000000E+00 0.  1.
         21    1    1    2  506  501 -0.12280673785E+02 -0.27534384792E+02  0.72456723244E+01  0.31007371090E+02  0.00000000000E+00 0.  1.
<scales pt_clust_3="112.67974" pt_clust_4="66.23479" pt_clust_5="14000.00000" pt_clust_6="30.14892"></scales>
<clustering>
<clus scale="   30.149">  1  6  2 -1</clus>
<clus scale="   66.235">  1  4  2 -1</clus>
<clus scale="  112.680">  2  3  1 -1</clus>
<clus scale="   30.149">  1  3  2 -1</clus>
</clustering>
</event>
<event>
 6    0  0.1438923E+002  0.2134886E+03  0.7546771E-02  0.1138833E+00
         21   -1    0    0  505  501  0.00000000000E+00  0.00000000000E+00  0.86653260506E+03  0.86653260506E+03  0.00000000000E+00 0. -1.
         21   -1    0    0  503  502 -0.00000000000E+00 -0.00000000000E+00 -0.31532777768E+03  0.31532777768E+03  0.00000000000E+00 0. -1.
         21    1    1    2  503  501  0.14652788747E+02  0.36127430826E+02  0.47865986959E+02  0.61733687591E+02  0.00000000000E+00 0.  1.
         21    1    1    2  504  502  0.60164261855E+02 -0.20127344804E+03 -0.25999967860E+03  0.33426123341E+03  0.00000000000E+00 0. -1.
         21    1    1    2  505  506 -0.49743729349E+02  0.56821968843E+02  0.32176198289E+03  0.33050559509E+03  0.00000000000E+00 0. -1.
         21    1    1    2  506  504 -0.25073321253E+02  0.10832404837E+03  0.44157653613E+03  0.45535986665E+03  0.00000000000E+00 0. -1.
<scales pt_clust_3="38.98584" pt_clust_4="208.68478" pt_clust_5="37.11398" pt_clust_6="37.11398"></scales>
<clustering>
<clus scale="   37.114">  5  6 -1 -1</clus>
<clus scale="   38.986">  1  3  2 -1</clus>
<clus scale="  208.685">  2  4  1 -1</clus>
<clus scale="   38.986">  1  3  2 -1</clus>
</clustering>
</event>
<event>
 6    0  0.1438923E+002  0.1065012E+03  0.7546771E-02  0.1267190E+00
         21   -1    0    0  505  501  0.00000000000E+00  0.00000000000E+00  0.75939092925E+03  0.75939092925E+03  0.00000000000E+00 0.  1.
         21   -1    0    0  504  502 -0.00000000000E+00 -0.00000000000E+00 -0.95054434917E+03  0.95054434917E+03  0.00000000000E+00 0.  1.
         21    1    1    2  503  501 -0.57955642837E+02  0.60022433907E+02  0.41645108733E+03  0.42472703852E+03  0.00000000000E+00 0.  1.
         21    1    1    2  504  503 -0.98934380891E+00 -0.10683625181E+03 -0.93382879818E+03  0.93992084125E+03  0.00000000000E+00 0.  1.
         21    1    1    2  505  506  0.35735953985E+02  0.63937765584E+01  0.26920609072E+03  0.27164288701E+03  0.00000000000E+00 0.  1.
         21    1    1    2  506  502  0.23209032661E+02  0.40420041341E+02  0.57018200211E+02  0.73644511638E+02  0.00000000000E+00 0. -1.
<scales pt_clust_3="106.50115" pt_clust_4="14000.00000" pt_clust_5="36.30343" pt_clust_6="49.86642"></scales>
<clustering>
<clus scale="   36.303">  1  5  2 -1</clus>
<clus scale="   49.866">  1  6  2 -1</clus>
<clus scale="  106.501">  1  3  2 -1</clus>
<clus scale="   36.303">  1  3  2 -1</clus>
</clustering>
</event>
<event>
 6    0  0.1438923E+002  0.1547016E+03  0.7546771E-02  0.1194812E+00
         21   -1    0    0  506  501  0.00000000000E+00  0.00000000000E+00  0.85911193081E+03  0.85911193081E+03  0.00000000000E+00 0.  1.
         21   -1    0    0  504  502 -0.00000000000E+00 -0.00000000000E+00 -0.22033437258E+03  0.22033437258E+03  0.00000000000E+00 0.  1.
         21    1    1    2  503  502  0.20378420177E+02  0.29583402481E+02 -0.17018582610E+03  0.17393583046E+03  0.00000000000E+00 0.  1.
         21    1    1    2  504  505 -0.72641097765E+02 -0.25406670409E+02  0.51332910200E+02  0.92505652019E+02  0.00000000000E+00 0.  1.
         21    1    1    2  505  501 -0.63077175771E+02 -0.81202099997E+02  0.10953358416E+03  0.15023354221E+03  0.00000000000E+00 0.  1.
         21    1    1    2  506  503  0.11533985336E+03  0.77025367925E+02  0.64809688997E+03  0.66277127870E+03  0.00000000000E+00 0.  1.
<scales pt_clust_3="35.92294" pt_clust_4="49.23006" pt_clust_5="49.23006" pt_clust_6="143.78170"></scales>
<clustering>
<clus scale="   35.923">  2  3  1 -1</clus>
<clus scale="   49.230">  4  5 -1 -1</clus>
<clus scale="  143.782">  1  6  2 -1</clus>
<clus scale="  143.782">  1  3  2 -1</clus>
</clustering>
</event>
<event>
 6    0  0.1438923E+002  0.1463708E+03  0.7546771E-02  0.1205005E+00
         21   -1    0    0  505  501  0.00000000000E+00  0.00000000000E+00  0.82220630971E+02  0.82220630971E+02  0.00000000000E+00 0. -1.
         21   -1    0    0  504  502 -0.00000000000E+00 -0.00000000000E+00 -0.10396284813E+04  0.10396284813E+04  0.00000000000E+00 0.  1.
         21    1    1    2  503  502  0.11350417408E+03 -0.76380947317E+02 -0.86257614082E+03  0.87335837166E+03  0.00000000000E+00 0.  1.
         21    1    1    2  504  501  0.27652627569E+02  0.61802369127E+02  0.27161155985E+01  0.67761183026E+02  0.00000000000E+00 0. -1.
         21    1    1    2  505  506 -0.42140028136E+02 -0.20637610235E+02 -0.26712804744E+02  0.53993211284E+02  0.00000000000E+00 0. -1.
         21    1    1    2  506  503 -0.99016773515E+02  0.35216188425E+02 -0.70835020384E+02  0.12673634632E+03  0.00000000000E+00 0. -1.
<scales pt_clust_3="135.70034" pt_clust_4="67.70673" pt_clust_5="36.65833" pt_clust_6="36.65833"></scales>
<clustering>
<clus scale="   36.658">  5  6 -1 -1</clus>
<clus scale="   67.707">  1  4  2 -1</clus>
<clus scale="  135.700">  2  3  1 -1</clus>
<clus scale="   67.707">  1  3  2 -1</clus>
</clustering>
</event>
<event>
 6    0  0.1438923E+002  0.6684641E+02  0.7546771E-02  0.1371158E+00
         21   -1    0    0  503  501  0.00000000000E+00  0.00000000000E+00  0.23209045308E+03  0.23209045308E+03  0.00000000000E+00 0.  1.
         21   -1    0    0  505  502 -0.00000000000E+00 -0.00000000000E+00 -0.15988797333E+04  0.15988797333E+04  0.00000000000E+00 0. -1.
         21    1    1    2  503  504 -0.62011894600E+02  0.19631316009E+02  0.32287814023E+02  0.72617949396E+02  0.00000000000E+00 0.  1.
         21    1    1    2  504  502  0.75374221046E+02 -0.28643073648E+01  0.14299430781E+03  0.16166895039E+03  0.00000000000E+00 0.  1.
         21    1    1    2  505  506 -0.49316932456E+02 -0.45217330507E+02 -0.15488858975E+04  0.15503303810E+04  0.00000000000E+00 0. -1.
         21    1    1    2  506  501  0.35954606010E+02  0.28450321863E+02  0.68144954502E+01  0.46352905579E+02  0.00000000000E+00 0. -1.
<scales pt_clust_3="59.28541" pt_clust_4="14000.00000" pt_clust_5="66.84641" pt_clust_6="45.84926"></scales>
<clustering>
<clus scale="   45.849">  1  6  2 -1</clus>
<clus scale="   59.285">  1  3  2 -1</clus>
<clus scale="   66.846">  2  5  1 -1</clus>
<clus scale="   45.849">  1  3  2 -1</clus>
</clustering>
</event>
<event>
 6    0  0.1438923E+002  0.2481134E+03  0.7546771E-02  0.1114503E+00
         21   -1    0    0  505  501  0.00000000000E+00  0.00000000000E+00  0.25978846426E+03  0.25978846426E+03  0.00000000000E+00 0. -1.
         21   -1    0    0  503  502 -0.00000000000E+00 -0.00000000000E+00 -0.21649877828E+04  0.21649877828E+04  0.00000000000E+00 0. -1.
         21    1    1    2  503  504 -0.18990305123E+03  0.15209951038E+03 -0.19978049464E+04  0.20125660321E+04  0.00000000000E+00 0. -1.
         21    1    1    2  504  501 -0.65728138510E+02 -0.10411172214E+03 -0.19134707118E+02  0.12460166891E+03  0.00000000000E+00 0. -1.
         21    1    1    2  505  506  0.11490185911E+03  0.12470520506E+01  0.61145834837E+02  0.13016453236E+03  0.00000000000E+00 0. -1.
         21    1    1    2  506  502  0.14072933063E+03 -0.49234840290E+02  0.50594500104E+02  0.15744401367E+03  0.00000000000E+00 0. -1.
<scales pt_clust_3="242.85310" pt_clust_4="123.12367" pt_clust_5="44.61483" pt_clust_6="44.61483"></scales>
<clustering>
<clus scale="   44.615">  5  6 -1 -1</clus>
<clus scale="  123.124">  1  4  2 -1</clus>
<clus scale="  242.853">  2  3  1 -1</clus>
<clus scale="  123.124">  1  3  2 -1</clus>
</clustering>
</event>
<event>
 6    0  0.1438923E+002  0.1468494E+03  0.7546771E-02  0.1204399E+00
         21   -1    0    0  503  501  0.00000000000E+00  0.00000000000E+00  0.10432706351E+04  0.10432706351E+04  0.00000000000E+00 0. -1.
         21   -1    0    0  505  502 -0.00000000000E+00 -0.00000000000E+00 -0.20154111823E+03  0.20154111823E+03  0.00000000000E+00 0. -1.
         21    1    1    2  503  504  0.83025092868E+01  0.48078822598E+02  0.17752261722E+03  0.18410536241E+03  0.00000000000E+00 0.  1.
         21    1    1    2  504  506 -0.12739961061E+03 -0.10452276679E+03  0.33860207639E+03  0.37657274954E+03  0.00000000000E+00 0. -1.
         21    1    1    2  505  501  0.13473390402E+02 -0.43468911178E+02  0.47411927275E+03  0.47629839731E+03  0.00000000000E+00 0. -1.
         21    1    1    2  506  502  0.10562371092E+03  0.99912855374E+02 -0.14851444948E+03  0.20783524408E+03  0.00000000000E+00 0. -1.
<scales pt_clust_3="36.48419" pt_clust_4="146.84939" pt_clust_5="45.50910" pt_clust_6="14000.00000"></scales>
<clustering>
<clus scale="   45.509">  1  5  2 -1</clus>
<clus scale="   36.484">  1  3  2 -1</clus>
<clus scale="  146.849">  1  4  2 -1</clus>
<clus scale="   45.509">  1  3  2 -1</clus>
</clustering>
</event>
<event>
 6    0  0.1438923E+002  0.8453845E+02  0.7546771E-02  0.1316644E+00
         21   -1    0    0  505  501  0.00000000000E+00  0.00000000000E+00  0.42920769375E+03  0.42920769375E+03  0.00000000000E+00 0.  1.
         21   -1    0    0  504  502 -0.00000000000E+00 -0.00000000000E+00 -0.25848313839E+03  0.25848313839E+03  0.00000000000E+00 0.  1.
         21    1    1    2  503  501  0.61460527688E+02  0.36515236898E+02  0.19673620860E+03  0.20932246598E+03  0.00000000000E+00 0.  1.
         21    1    1    2  504  503  0.30287915408E+02 -0.80233441130E+02 -0.22239203012E+03  0.23835473135E+03  0.00000000000E+00 0.  1.
         21    1    1    2  505  506 -0.82682357341E+01  0.53316440492E+02  0.75673494127E+02  0.92938066810E+02  0.00000000000E+00 0.  1.
         21    1    1    2  506  502 -0.83480207362E+02 -0.95982362601E+01  0.12070688275E+03  0.14707556801E+03  0.00000000000E+00 0.  1.
<scales pt_clust_3="77.19260" pt_clust_4="84.53845" pt_clust_5="53.95374" pt_clust_6="14000.00000"></scales>
<clustering>
<clus scale="   53.954">  1  5  2 -1</clus>
<clus scale="   84.538">  2  4  1 -1</clus>
<clus scale="   77.193">  1  3  2 -1</clus>
<clus scale="   53.954">  1  3  2 -1</clus>
</clustering>
</event>
<event>
 6    0  0.1438923E+002  0.2284981E+03  0.7546771E-02  0.1127701E+00
         21   -1    0    0  504  501  0.00000000000E+00  0.00000000000E+00  0.36754827903E+03  0.36754827903E+03  0.00000000000E+00 0. -1.
         21   -1    0    0  506  502 -0.00000000000E+00 -0.00000000000E+00 -0.10830462706E+04  0.10830462706E+04  0.00000000000E+00 0.  1.
         21    1    1    2  503  501  0.20208444167E+03  0.11104174543E+03  0.26502340426E+03  0.35129161048E+03  0.00000000000E+00 0. -1.
         21    1    1    2  504  505 -0.21621180098E+03 -0.50103490265E+02 -0.24339948981E+03  0.32939522501E+03  0.00000000000E+00 0.  1.
         21    1    1    2  505  502  0.42657614891E+02 -0.10968306376E+03 -0.67801953867E+03  0.68815735221E+03  0.00000000000E+00 0.  1.
         21    1    1    2  506  503 -0.28530255580E+02  0.48744808595E+02 -0.59102367312E+02  0.81750361897E+02  0.00000000000E+00 0.  1.
<scales pt_clust_3="228.49808" pt_clust_4="14000.00000" pt_clust_5="80.29015" pt_clust_6="56.48037"></scales>
<clustering>
<clus scale="   56.480">  2  6  1 -1</clus>
<clus scale="   80.290">  2  5  1 -1</clus>
<clus scale="  228.498">  1  3  2 -1</clus>
<clus scale="  228.498">  1  3  2 -1</clus>
</clustering>
</event>
<event>
 6    0  0.1438923E+002  0.1392110E+03  0.7546771E-02  0.1214395E+00
         21   -1    0    0  505  501  0.00000000000E+00  0.00000000000E+00  0.34848107456E+03  0.34848107456E+03  0.00000000000E+00 0. -1.
         21   -1    0    0  506  502 -0.00000000000E+00 -0.00000000000E+00 -0.81315957921E+03  0.81315957921E+03  0.00000000000E+00 0.  1.
         21    1    1    2  503  502  0.59215669078E+02  0.48895403808E+02 -0.72426896318E+03  0.72832876300E+03  0.00000000000E+00 0.  1.
         21    1    1    2  504  503  0.18078373157E+02  0.11811353586E+03  0.21613755651E+02  0.12142812427E+03  0.00000000000E+00 0. -1.
         21    1    1    2  505  504 -0.19900560975E+02 -0.28190770548E+02  0.10754094413E+03  0.11294160675E+03  0.00000000000E+00 0. -1.
         21    1    1    2  506  501 -0.57393481260E+02 -0.13881816912E+03  0.13043575875E+03  0.19894215976E+03  0.00000000000E+00 0. -1.
<scales pt_clust_3="76.50995" pt_clust_4="139.21097" pt_clust_5="34.50727" pt_clust_6="14000.00000"></scales>
<clustering>
<clus scale="   34.507">  1  5  2 -1</clus>
<clus scale="   76.510">  2  3  1 -1</clus>
<clus scale="  139.211">  1  4  2 -1</clus>
<clus scale="   34.507">  1  3  2 -1</clus>
</clustering>
</event>
<event>
 6    0  0.1438923E+002  0.2516737E+03  0.7546771E-02  0.1112252E+00
         21   -1    0    0  505  501  0.00000000000E+00  0.00000000000E+00  0.49612900939E+03  0.49612900939E+03  0.00000000000E+00 0.  1.
         21   -1    0    0  503  502 -0.00000000000E+00 -0.00000000000E+00 -0.51965100620E+03  0.51965100620E+03  0.00000000000E+00 0. -1.
         21    1    1    2  503  506  0.69137407015E+02  0.15185858116E+02 -0.39244677487E+03  0.39877946592E+03  0.00000000000E+00 0. -1.
         21    1    1    2  504  502 -0.64604350611E+02  0.25657142047E+02  0.21908251648E+02  0.72883348895E+02  0.00000000000E+00 0.  1.
         21    1    1    2  505  504 -0.19779363901E+03  0.37698340146E+02  0.22704834266E+03  0.30347065491E+03  0.00000000000E+00 0.  1.
         21    1    1    2  506  501  0.19326058261E+03 -0.78541340309E+02  0.11996818374E+03  0.24064654587E+03  0.00000000000E+00 0.  1.
<scales pt_clust_3="70.78553" pt_clust_4="48.43830" pt_clust_5="48.43830" pt_clust_6="237.78843"></scales>
<clustering>
<clus scale="   48.438">  4  5 -1 -1</clus>
<clus scale="   70.786">  2  3  1 -1</clus>
<clus scale="  237.788">  2  6  1 -1</clus>
<clus scale="  251.674">  1  3  2 -1</clus>
</clustering>
</event>
<event>
 6    0  0.1438923E+002  0.1644726E+03  0.7546771E-02  0.1183738E+00
         21   -1    0    0  504  501  0.00000000000E+00  0.00000000000E+00  0.21773810245E+03  0.21773810245E+03  0.00000000000E+00 0.  1.
         21   -1    0    0  503  502 -0.00000000000E+00 -0.00000000000E+00 -0.24164559040E+03  0.24164559040E+03  0.00000000000E+00 0.  1.
         21    1    1    2  503  501  0.67315525433E+02 -0.13710387023E+02 -0.82223752971E+02  0.10714522962E+03  0.00000000000E+00 0.  1.
         21    1    1    2  504  505  0.26359016609E+02 -0.93801969722E+02  0.59965555484E+02  0.11440924405E+03  0.00000000000E+00 0. -1.
         21    1    1    2  505  506  0.23195472730E+02 -0.42044641966E+02 -0.39670287735E+00  0.48020196234E+02  0.00000000000E+00 0. -1.
         21    1    1    2  506  502 -0.11687001477E+03  0.14955699871E+03 -0.12525875933E+01  0.18980902295E+03  0.00000000000E+00 0.  1.
<scales pt_clust_3="68.69756" pt_clust_4="30.80021" pt_clust_5="30.80021" pt_clust_6="158.51281"></scales>
<clustering>
<clus scale="   30.800">  4  5 -1 -1</clus>
<clus scale="   68.698">  2  3  1 -1</clus>
<clus scale="  158.513">  2  6  1 -1</clus>
<clus scale="  164.473">  1  3  2 -1</clus>
</clustering>
</event>
<event>
 6    0  0.1438923E+002  0.5736112E+02  0.7546771E-02  0.1409252E+00
         21   -1    0    0  506  501  0.00000000000E+00  0.00000000000E+00  0.76954330058E+03  0.76954330058E+03  0.00000000000E+00 0.  1.
         21   -1    0    0  504  502 -0.00000000000E+00 -0.00000000000E+00 -0.20766082336E+03  0.20766082336E+03  0.00000000000E+00 0. -1.
         21    1    1    2  503  505 -0.31428179328E+02  0.63114611062E+02  0.39606309524E+03  0.40228989547E+03  0.00000000000E+00 0.  1.
         21    1    1    2  504  503 -0.76476992151E+02 -0.47966047003E+02  0.32548954087E+02  0.95963047084E+02  0.00000000000E+00 0. -1.
         21    1    1    2  505  501  0.52047662679E+02 -0.15897465666E+02  0.29907648572E+03  0.30398755388E+03  0.00000000000E+00 0.  1.
         21    1    1    2  506  502  0.55857508799E+02  0.74890160720E+00 -0.16580605782E+03  0.17496362751E+03  0.00000000000E+00 0. -1.
<scales pt_clust_3="51.22309" pt_clust_4="57.36112" pt_clust_5="54.42140" pt_clust_6="14000.00000"></scales>
<clustering>
<clus scale="   54.421">  1  5  2 -1</clus>
<clus scale="   51.223">  1  3  2 -1</clus>
<clus scale="   57.361">  1  4  2 -1</clus>
<clus scale="   54.421">  1  3  2 -1</clus>
</clustering>
</event>
<event>
 6    0  0.1438923E+002  0.1738080E+03  0.7546771E-02  0.1173934E+00
         21   -1    0    0  504  501  0.00000000000E+00  0.00000000000E+00  0.34427698453E+04  0.34427698453E+04  0.00000000000E+00 0. -1.
         21   -1    0    0  505  502 -0.00000000000E+00 -0.00000000000E+00 -0.89839027090E+02  0.89839027090E+02  0.00000000000E+00 0. -1.
         21    1    1    2  503  502 -0.55543339272E+02 -0.42662832676E+02  0.12103623870E+04  0.12123870206E+04  0.00000000000E+00 0. -1.
         21    1    1    2  504  503  0.56824580313E+01 -0.10486867387E+03  0.21466312846E+04  0.21491988278E+04  0.00000000000E+00 0. -1.
         21    1    1    2  505  506  0.51288406327E+01  0.43046872601E+02 -0.32119805233E+02  0.53953870437E+02  0.00000000000E+00 0. -1.
         21    1    1    2  506  501  0.44732040608E+02  0.10448463395E+03  0.28056951854E+02  0.11706915365E+03  0.00000000000E+00 0. -1.
<scales pt_clust_3="66.41103" pt_clust_4="66.41103" pt_clust_5="43.35134" pt_clust_6="153.64880"></scales>
<clustering>
<clus scale="   43.351">  2  5  1 -1</clus>
<clus scale="   66.411">  3  4 -1 -1</clus>
<clus scale="  153.649">  2  6  1 -1</clus>
<clus scale="  173.808">  1  3  2 -1</clus>
</clustering>
</event>
<event>
 6    0  0.1438923E+002  0.1444759E+03  0.7546771E-02  0.1207430E+00
         21   -1    0    0  503  501  0.00000000000E+00  0.00000000000E+00  0.29548270842E+04  0.29548270842E+04  0.00000000000E+00 0.  1.
         21   -1    0    0  505  502 -0.00000000000E+00 -0.00000000000E+00 -0.18663787623E+03  0.18663787623E+03  0.00000000000E+00 0.  1.
         21    1    1    2  503  502  0.40351052452E+02 -0.20762322846E+02  0.13742175113E+04  0.13749665631E+04  0.00000000000E+00 0. -1.
         21    1    1    2  504  501 -0.72854028670E+01  0.11173409173E+03  0.13644098459E+04  0.13689966443E+04  0.00000000000E+00 0.  1.
         21    1    1    2  505  506 -0.50472454024E+02 -0.12038318216E+03 -0.15908427434E+03  0.20578480387E+03  0.00000000000E+00 0.  1.
         21    1    1    2  506  504  0.17406804439E+02  0.29411413274E+02  0.18864612517E+03  0.19171694921E+03  0.00000000000E+00 0. -1.
<scales pt_clust_3="45.37931" pt_clust_4="34.14423" pt_clust_5="130.58984" pt_clust_6="34.14423"></scales>
<clustering>
<clus scale="   34.144">  4  6 -1 -1</clus>
<clus scale="   45.379">  1  3  2 -1</clus>
<clus scale="  130.590">  2  5  1 -1</clus>
<clus scale="   45.379">  1  3  2 -1</clus>
</clustering>
</event>
<event>
 6    0  0.2299325E+002  0.1028939E+03  0.7546771E-02  0.1274326E+00
         21   -1    0    0  504  501  0.00000000000E+00  0.00000000000E+00  0.63856072547E+03  0.63856072547E+03  0.00000000000E+00 0. -1.
         21   -1    0    0  506  502 -0.00000000000E+00 -0.00000000000E+00 -0.67039607616E+03  0.67039607616E+03  0.00000000000E+00 0.  1.
         21    1    1    2  503  505  0.42657708812E+02 -0.14549076757E+02  0.15913298853E+02  0.47797372689E+02  0.00000000000E+00 0. -1.
         21    1    1    2  504  502 -0.34053738791E+02  0.95256471086E+02  0.54078898226E+03  0.55016922464E+03  0.00000000000E+00 0. -1.
         21    1    1    2  505  501 -0.27662584194E+02  0.20428782304E+02  0.51942436145E+02  0.62294224318E+02  0.00000000000E+00 0. -1.
         21    1    1    2  506  503  0.19058614173E+02 -0.10113617663E+03 -0.64048006795E+03  0.64869597998E+03  0.00000000000E+00 0.  1.
<scales pt_clust_3="43.27862" pt_clust_4="102.89390" pt_clust_5="34.38828" pt_clust_6="14000.00000"></scales>
<clustering>
<clus scale="   34.388">  1  5  2 -1</clus>
<clus scale="   43.279">  1  3  2 -1</clus>
<clus scale="  102.894">  1  4  2 -1</clus>
<clus scale="   34.388">  1  3  2 -1</clus>
</clustering>
</event>
<event>
 6    0  0.1438923E+002  0.7557679E+02  0.7546771E-02  0.1342094E+00
         21   -1    0    0  504  501  0.00000000000E+00  0.00000000000E+00  0.10822571953E+03  0.10822571953E+03  0.00000000000E+00 0.  1.
         21   -1    0    0  506  502 -0.00000000000E+00 -0.00000000000E+00 -0.75951715458E+03  0.75951715458E+03  0.00000000000E+00 0. -1.
         21    1    1    2  503  501 -0.18792069289E+02  0.30948822993E+02 -0.10074705078E+02  0.37582857731E+02  0.00000000000E+00 0. -1.
         21    1    1    2  504  502 -0.29084454863E+02 -0.10470660824E+03  0.48100515071E+02  0.11884039243E+03  0.00000000000E+00 0.  1.
         21    1    1    2  505  503  0.52739091780E+02  0.20323446867E+02 -0.71331416136E+02  0.91008929355E+02  0.00000000000E+00 0. -1.
         21    1    1    2  506  505 -0.48625676282E+01  0.53434338381E+02 -0.61798582891E+03  0.62031069459E+03  0.00000000000E+00 0. -1.
<scales pt_clust_3="36.20734" pt_clust_4="75.57679" pt_clust_5="14000.00000" pt_clust_6="54.05569"></scales>
<clustering>
<clus scale="   36.207">  1  3  2 -1</clus>
<clus scale="   54.056">  2  6  1 -1</clus>
<clus scale="   75.577">  1  4  2 -1</clus>
<clus scale="   36.207">  1  3  2 -1</clus>
</clustering>
</event>
<event>
 6    0  0.1438923E+002  0.1428210E+03  0.7546771E-02  0.1209583E+00
         21   -1    0    0  504  501  0.00000000000E+00  0.00000000000E+00  0.63896211478E+03  0.63896211478E+03  0.00000000000E+00 0. -1.
         21   -1    0    0  505  502 -0.00000000000E+00 -0.00000000000E+00 -0.97439319232E+02  0.97439319232E+02  0.00000000000E+00 0. -1.
         21    1    1    2  503  502  0.29720828861E+02  0.80420113210E+01  0.23733915526E+02  0.38875446755E+02  0.00000000000E+00 0. -1.
         21    1    1    2  504  506 -0.11541776127E+02 -0.73879070740E+02  0.36885292086E+03  0.37635595773E+03  0.00000000000E+00 0. -1.
         21    1    1    2  505  501 -0.28431666351E+02  0.12848386170E+03 -0.26823538703E+02  0.13429804391E+03  0.00000000000E+00 0. -1.
         21    1    1    2  506  503  0.10252613617E+02 -0.62646802278E+02  0.17575949786E+03  0.18687198562E+03  0.00000000000E+00 0. -1.
<scales pt_clust_3="30.78963" pt_clust_4="41.10821" pt_clust_5="135.70475" pt_clust_6="41.10821"></scales>
<clustering>
<clus scale="   30.790">  2  3  1 -1</clus>
<clus scale="   41.108">  4  6 -1 -1</clus>
<clus scale="  135.705">  2  5  1 -1</clus>
<clus scale="  142.821">  1  3  2 -1</clus>
</clustering>
</event>
<event>
 6    0  0.1438923E+002  0.9743470E+02  0.7546771E-02  0.1285785E+00
         21   -1    0    0  506  501  0.00000000000E+00  0.00000000000E+00  0.21642086536E+03  0.21642086536E+03  0.00000000000E+00 0. -1.
         21   -1    0    0  503  502 -0.00000000000E+00 -0.00000000000E+00 -0.50234892963E+03  0.50234892963E+03  0.00000000000E+00 0.  1.
         21    1    1    2  503  505  0.34222803159E+02  0.26634841564E+02 -0.39632388243E+03  0.39868939643E+03  0.00000000000E+00 0.  1.
         21    1    1    2  504  502  0.21264475209E+02  0.21723820557E+02 -0.29558592625E+02  0.42400621263E+02  0.00000000000E+00 0.  1.
         21    1    1    2  505  501 -0.77413498741E+02 -0.12761522375E+03  0.54010279787E+02  0.15873123651E+03  0.00000000000E+00 0. -1.
         21    1    1    2  506  504  0.21926220373E+02  0.79256561629E+02  0.85944131001E+02  0.11894854078E+03  0.00000000000E+00 0. -1.
<scales pt_clust_3="69.12934" pt_clust_4="30.39905" pt_clust_5="14000.00000" pt_clust_6="97.43470"></scales>
<clustering>
<clus scale="   30.399">  2  4  1 -1</clus>
<clus scale="   69.129">  2  3  1 -1</clus>
<clus scale="   97.435">  1  6  2 -1</clus>
<clus scale="   97.435">  1  3  2 -1</clus>
</clustering>
</event>
<event>
 6    0  0.1438923E+002  0.1354270E+03  0.7546771E-02  0.1219618E+00
         21   -1    0    0  505  501  0.00000000000E+00  0.00000000000E+00  0.57871865177E+03  0.57871865177E+03  0.00000000000E+00 0.  1.
         21   -1    0    0  503  502 -0.00000000000E+00 -0.00000000000E+00 -0.28673680187E+03  0.28673680187E+03  0.00000000000E+00 0.  1.
         21    1    1    2  503  504  0.43080486229E+02  0.10825409750E+03  0.12642714780E+03  0.17192644247E+03  0.00000000000E+00 0. -1.
         21    1    1    2  504  506 -0.83557712818E+02 -0.24503521669E+02  0.25302842893E+03  0.26759241356E+03  0.00000000000E+00 0.  1.
         21    1    1    2  505  502  0.10013640300E+03 -0.44741614666E+02 -0.23652570743E+03  0.26071732118E+03  0.00000000000E+00 0.  1.
         21    1    1    2  506  501 -0.59659176414E+02 -0.39008961170E+02  0.14905198060E+03  0.16521927642E+03  0.00000000000E+00 0.  1.
<scales pt_clust_3="131.25580" pt_clust_4="30.17614" pt_clust_5="109.67731" pt_clust_6="30.17614"></scales>
<clustering>
<clus scale="   30.176">  4  6 -1 -1</clus>
<clus scale="  109.677">  2  5  1 -1</clus>
<clus scale="  131.256">  2  3  1 -1</clus>
<clus scale="  135.427">  1  3  2 -1</clus>
</clustering>
</event>
<event>
 6    0  0.1438923E+002  0.1435375E+03  0.7546771E-02  0.1208647E+00
         21   -1    0    0  504  501  0.00000000000E+00  0.00000000000E+00  0.11352559039E+04  0.11352559039E+04  0.00000000000E+00 0. -1.
         21   -1    0    0  503  502 -0.00000000000E+00 -0.00000000000E+00 -0.22114766532E+03  0.22114766532E+03  0.00000000000E+00 0.  1.
         21    1    1    2  503  501  0.10488585051E+03  0.53004522627E+02  0.62568819071E+02  0.13313668982E+03  0.00000000000E+00 0. -1.
         21    1    1    2  504  505 -0.72830137530E+02 -0.66047869402E+02  0.90157679334E+03  0.90692186228E+03  0.00000000000E+00 0. -1.
         21    1    1    2  505  506 -0.30404526587E+02 -0.19182868469E+02  0.12926045538E+03  0.13416662403E+03  0.00000000000E+00 0. -1.
         21    1    1    2  506  502 -0.16511863887E+01  0.32226215244E+02 -0.17929782919E+03  0.18217839312E+03  0.00000000000E+00 0.  1.
<scales pt_clust_3="131.47200" pt_clust_4="34.62092" pt_clust_5="34.62092" pt_clust_6="32.26849"></scales>
<clustering>
<clus scale="   32.268">  2  6  1 -1</clus>
<clus scale="   34.621">  4  5 -1 -1</clus>
<clus scale="  131.472">  2  3  1 -1</clus>
<clus scale="  143.538">  1  3  2 -1</clus>
</clustering>
</event>
<event>
 6    0  0.1438923E+002  0.1287088E+03  0.7546771E-02  0.1229384E+00
         21   -1    0    0  506  501  0.00000000000E+00  0.00000000000E+00  0.81256141790E+02  0.81256141790E+02  0.00000000000E+00 0. -1.
         21   -1    0    0  505  502 -0.00000000000E+00 -0.00000000000E+00 -0.98733194667E+03  0.98733194667E+03  0.00000000000E+00 0.  1.
         21    1    1    2  503  504  0.11151588473E+03 -0.37623546418E+02 -0.18547797120E+03  0.21966656913E+03  0.00000000000E+00 0.  1.
         21    1    1    2  504  502  0.20192037478E+02 -0.36214542034E+02 -0.66131696321E+03  0.66261552748E+03  0.00000000000E+00 0.  1.
         21    1    1    2  505  501 -0.90622357273E+02  0.93665524661E+02 -0.50938335969E+02  0.13992982605E+03  0.00000000000E+00 0. -1.
         21    1    1    2  506  503 -0.41085564932E+02 -0.19827436209E+02 -0.83425345040E+01  0.46376165801E+02  0.00000000000E+00 0. -1.
<scales pt_clust_3="128.70884" pt_clust_4="41.46337" pt_clust_5="14000.00000" pt_clust_6="45.54718"></scales>
<clustering>
<clus scale="   41.463">  2  4  1 -1</clus>
<clus scale="   45.547">  1  6  2 -1</clus>
<clus scale="  128.709">  2  3  1 -1</clus>
<clus scale="   45.547">  1  3  2 -1</clus>
</clustering>
</event>
<event>
 6    0  0.1438923E+002  0.8452506E+02  0.7546771E-02  0.1316679E+00
         21   -1    0    0  505  501  0.00000000000E+00  0.00000000000E+00  0.11474519727E+03  0.11474519727E+03  0.00000000000E+00 0.  1.
         21   -1    0    0  503  502 -0.00000000000E+00 -0.00000000000E+00 -0.13342851806E+04  0.13342851806E+04  0.00000000000E+00 0.  1.
         21    1    1    2  503  504 -0.40621137838E+02  0.36025394287E+02 -0.95773486387E+03  0.95927262827E+03  0.00000000000E+00 0.  1.
         21    1    1    2  504  506 -0.62346689860E+02  0.20220599386E+02 -0.80703613211E+02  0.10396660792E+03  0.00000000000E+00 0.  1.
         21    1    1    2  505  502  0.14728353100E+03 -0.11855680013E+03 -0.22791919049E+03  0.29613394056E+03  0.00000000000E+00 0.  1.
         21    1    1    2  506  501 -0.44315703300E+02  0.62310806456E+02  0.46817684227E+02  0.89657201142E+02  0.00000000000E+00 0.  1.
<scales pt_clust_3="54.29462" pt_clust_4="77.95217" pt_clust_5="14000.00000" pt_clust_6="84.52506"></scales>
<clustering>
<clus scale="   54.295">  2  3  1 -1</clus>
<clus scale="   77.952">  2  4  1 -1</clus>
<clus scale="   84.525">  1  6  2 -1</clus>
<clus scale="   84.525">  1  3  2 -1</clus>
</clustering>
</event>
<event>
 6    0  0.1493141E+002  0.8903151E+02  0.7546771E-02  0.1305214E+00
         21   -1    0    0  504  501  0.00000000000E+00  0.00000000000E+00  0.57064660979E+03  0.57064660979E+03  0.00000000000E+00 0. -1.
         21   -1    0    0  505  502 -0.00000000000E+00 -0.00000000000E+00 -0.84218059959E+03  0.84218059959E+03  0.00000000000E+00 0.  1.
         21    1    1    2  503  502  0.55208378867E+02 -0.22845132593E+02 -0.77551491147E+03  0.77781311579E+03  0.00000000000E+00 0.  1.
         21    1    1    2  504  503 -0.88881720623E+01 -0.55520517504E+02  0.16524026206E+03  0.17454475550E+03  0.00000000000E+00 0. -1.
         21    1    1    2  505  506  0.26065386351E+02  0.77217081775E+02 -0.28365498317E+02  0.86293010020E+02  0.00000000000E+00 0. -1.
         21    1    1    2  506  501 -0.72385593156E+02  0.11485683222E+01  0.36710615793E+03  0.37417632808E+03  0.00000000000E+00 0. -1.
<scales pt_clust_3="59.78588" pt_clust_4="56.22746" pt_clust_5="89.03151" pt_clust_6="14000.00000"></scales>
<clustering>
<clus scale="   56.227">  1  4  2 -1</clus>
<clus scale="   59.786">  2  3  1 -1</clus>
<clus scale="   89.032">  2  5  1 -1</clus>
<clus scale="   56.227">  1  3  2 -1</clus>
</clustering>
</event>
<event>
 6    0  0.1438923E+002  0.1178317E+03  0.7546771E-02  0.1246718E+00
         21   -1    0    0  505  501  0.00000000000E+00  0.00000000000E+00  0.24075190400E+04  0.24075190400E+04  0.00000000000E+00 0. -1.
         21   -1    0    0  504  502 -0.00000000000E+00 -0.00000000000E+00 -0.42239601468E+03  0.42239601468E+03  0.00000000000E+00 0.  1.
         21    1    1    2  503  502 -0.14108110359E+03  0.64410380840E+02  0.13009231008E+04  0.13101349126E+04  0.00000000000E+00 0. -1.
         21    1    1    2  504  506  0.30798489586E+02 -0.97128460932E+02 -0.40739280949E+03  0.41994212233E+03  0.00000000000E+00 0.  1.
         21    1    1    2  505  503  0.96177132936E+02  0.62309504717E+00  0.89406057502E+03  0.89921896163E+03  0.00000000000E+00 0. -1.
         21    1    1    2  506  501  0.14105481069E+02  0.32094985045E+02  0.19753215904E+03  0.20061905820E+03  0.00000000000E+00 0. -1.
<scales pt_clust_3="117.83167" pt_clust_4="101.81969" pt_clust_5="14000.00000" pt_clust_6="35.05785"></scales>
<clustering>
<clus scale="   35.058">  1  6  2 -1</clus>
<clus scale="  101.820">  2  4  1 -1</clus>
<clus scale="  117.832">  2  3  1 -1</clus>
<clus scale="   35.058">  1  3  2 -1</clus>
</clustering>
</event>
<event>
 6    0  0.1438923E+002  0.1082080E+03  0.7546771E-02  0.1263925E+00
         21   -1    0    0  505  501  0.00000000000E+00  0.00000000000E+00  0.22395209657E+03  0.22395209657E+03  0.00000000000E+00 0.  1.
         21   -1    0    0  503  502 -0.00000000000E+00 -0.00000000000E+00 -0.17512629306E+04  0.17512629306E+04  0.00000000000E+00 0.  1.
         21    1    1    2  503  501 -0.60708152347E+02 -0.78417838242E+02 -0.16539685495E+04  0.16569389849E+04  0.00000000000E+00 0.  1.
         21    1    1    2  504  502  0.13953695658E+02  0.74007600953E+02 -0.38013345709E+02  0.84361395634E+02  0.00000000000E+00 0.  1.
         21    1    1    2  505  506  0.28759263881E+02 -0.56202988671E+02  0.15822893436E+03  0.17035922887E+03  0.00000000000E+00 0.  1.
         21    1    1    2  506  504  0.17995192808E+02  0.60613225959E+02  0.64421268037E+01  0.63555417733E+02  0.00000000000E+00 0.  1.
<scales pt_clust_3="99.84899" pt_clust_4="38.21130" pt_clust_5="63.13376" pt_clust_6="38.21130"></scales>
<clustering>
<clus scale="   38.211">  4  6 -1 -1</clus>
<clus scale="   63.134">  1  5  2 -1</clus>
<clus scale="   99.849">  2  3  1 -1</clus>
<clus scale="   63.134">  1  3  2 -1</clus>
</clustering>
</event>
<event>
 6    0  0.1438923E+002  0.1343021E+03  0.7546771E-02  0.1221208E+00
         21   -1    0    0  506  501  0.00000000000E+00  0.00000000000E+00  0.10824999378E+04  0.10824999378E+04  0.00000000000E+00 0. -1.
         21   -1    0    0  504  502 -0.00000000000E+00 -0.00000000000E+00 -0.13511935555E+03  0.13511935555E+03  0.00000000000E+00 0.  1.
         21    1    1    2  503  501  0.96828017947E+02  0.31772665440E+02  0.24876041000E+03  0.26882505261E+03  0.00000000000E+00 0.  1.
         21    1    1    2  504  503  0.60532041107E+02 -0.65813775001E+02 -0.99556933450E+02  0.13381765197E+03  0.00000000000E+00 0.  1.
         21    1    1    2  505  502 -0.73402384785E+02  0.30899393414E+02  0.34452859943E+03  0.35361368530E+03  0.00000000000E+00 0. -1.
         21    1    1    2  506  505 -0.83957674269E+02  0.31417161472E+01  0.45364850627E+03  0.46136290346E+03  0.00000000000E+00 0.  1.
<scales pt_clust_3="129.83793" pt_clust_4="89.41801" pt_clust_5="33.43282" pt_clust_6="33.43282"></scales>
<clustering>
<clus scale="   33.433">  5  6 -1 -1</clus>
<clus scale="   89.418">  2  4  1 -1</clus>
<clus scale="  129.838">  2  3  1 -1</clus>
<clus scale="  134.302">  1  3  2 -1</clus>
</clustering>
</event>
<event>
 6    0  0.1438923E+002  0.8496218E+02  0.7546771E-02  0.1315531E+00
         21   -1    0    0  506  501  0.00000000000E+00  0.00000000000E+00  0.39075557545E+03  0.39075557545E+03  0.00000000000E+00 0.  1.
         21   -1    0    0  504  502 -0.00000000000E+00 -0.00000000000E+00 -0.97447641663E+03  0.97447641663E+03  0.00000000000E+00 0. -1.
         21    1    1    2  503  501 -0.94727651938E+02 -0.68095661620E+01  0.14045376941E+03  0.16954928361E+03  0.00000000000E+00 0.  1.
         21    1    1    2  504  503 -0.48600916810E+02  0.22355721633E+02 -0.82835612840E+03  0.83008174468E+03  0.00000000000E+00 0. -1.
         21    1    1    2  505  502  0.91107444588E+02 -0.93629136220E+02 -0.83972822056E+02  0.15530105104E+03  0.00000000000E+00 0. -1.
         21    1    1    2  506  505  0.52221124160E+02  0.78082980748E+02  0.18815433987E+03  0.21029991275E+03  0.00000000000E+00 0.  1.
<scales pt_clust_3="14000.00000" pt_clust_4="53.49605" pt_clust_5="90.92066" pt_clust_6="84.96218"></scales>
<clustering>
<clus scale="   53.496">  2  4  1 -1</clus>
<clus scale="   90.921">  2  5  1 -1</clus>
<clus scale="   84.962">  1  6  2 -1</clus>
<clus scale="   84.962">  1  3  2 -1</clus>
</clustering>
</event>
<event>
 6    0  0.1438923E+002  0.1103817E+03  0.7546771E-02  0.1259865E+00
         21   -1    0    0  505  501  0.00000000000E+00  0.00000000000E+00  0.77486827318E+02  0.77486827318E+02  0.00000000000E+00 0. -1.
         21   -1    0    0  503  502 -0.00000000000E+00 -0.00000000000E+00 -0.65818296105E+03  0.65818296105E+03  0.00000000000E+00 0.  1.
         21    1    1    2  503  506  0.86874570136E+01 -0.46713707908E+02 -0.72765840879E+02  0.86905178296E+02  0.00000000000E+00 0.  1.
         21    1    1    2  504  501 -0.81286424430E+02  0.12561899951E+03 -0.58608702622E+02  0.16069410648E+03  0.00000000000E+00 0. -1.
         21    1    1    2  505  502 -0.12574211747E+02 -0.61450951383E+02 -0.35210143779E+03  0.35764472976E+03  0.00000000000E+00 0.  1.
         21    1    1    2  506  504  0.85173179163E+02 -0.17454340216E+02 -0.97220152443E+02  0.13042577384E+03  0.00000000000E+00 0. -1.
<scales pt_clust_3="47.51465" pt_clust_4="14000.00000" pt_clust_5="90.40507" pt_clust_6="110.38168"></scales>
<clustering>
<clus scale="   47.515">  2  3  1 -1</clus>
<clus scale="   90.405">  2  5  1 -1</clus>
<clus scale="  110.382">  2  6  1 -1</clus>
<clus scale="  110.382">  1  3  2 -1</clus>
</clustering>
</event>
<event>
 6    0  0.1438923E+002  0.1242627E+03  0.7546771E-02  0.1236226E+00
         21   -1    0    0  505  501  0.00000000000E+00  0.00000000000E+00  0.14134518914E+04  0.14134518914E+04  0.00000000000E+00 0.  1.
         21   -1    0    0  504  502 -0.00000000000E+00 -0.00000000000E+00 -0.18752816111E+02  0.18752816111E+02  0.00000000000E+00 0. -1.
         21    1    1    2  503  506  0.15586143075E+02 -0.54524097356E+02  0.49091094358E+03  0.49417543401E+03  0.00000000000E+00 0.  1.
         21    1    1    2  504  503 -0.45273025963E+02  0.10810628161E+03  0.23964961513E+03  0.26677434853E+03  0.00000000000E+00 0. -1.
         21    1    1    2  505  502 -0.25612329372E+02 -0.20148653290E+02  0.19941751934E+03  0.20206263055E+03  0.00000000000E+00 0. -1.
         21    1    1    2  506  501  0.55299212259E+02 -0.33433530962E+02  0.46472099719E+03  0.46919229437E+03  0.00000000000E+00 0.  1.
<scales pt_clust_3="45.06637" pt_clust_4="115.57478" pt_clust_5="32.58772" pt_clust_6="45.06637"></scales>
<clustering>
<clus scale="   32.588">  1  5  2 -1</clus>
<clus scale="   45.066">  3  6 -1 -1</clus>
<clus scale="  115.575">  2  4  1 -1</clus>
<clus scale="   32.588">  1  3  2 -1</clus>
</clustering>
</event>
<event>
 6    0  0.1438923E+002  0.1334022E+03  0.7546771E-02  0.1222493E+00
         21   -1    0    0  502  501  0.00000000000E+00  0.00000000000E+00  0.99231738645E+02  0.99231738645E+02  0.00000000000E+00 0. -1.
         21   -1    0    0  503  502 -0.00000000000E+00 -0.00000000000E+00 -0.19723158940E+03  0.19723158940E+03  0.00000000000E+00 0. -1.
         21    1    1    2  503  505 -0.39130566926E+02  0.29330680703E+02 -0.69660704875E+02  0.85112301709E+02  0.00000000000E+00 0. -1.
         21    1    1    2  504  501  0.20224576231E+02 -0.47782627295E+02  0.87649799504E+01  0.52621647907E+02  0.00000000000E+00 0. -1.
         21    1    1    2  505  506 -0.54253996626E+02  0.50352919282E+02 -0.24233455697E+02  0.77885640558E+02  0.00000000000E+00 0. -1.
         21    1    1    2  506  504  0.73159987321E+02 -0.31900972689E+02 -0.12870670135E+02  0.80843737872E+02  0.00000000000E+00 0. -1.
<scales pt_clust_3="42.09476" pt_clust_4="42.09732" pt_clust_5="133.23744" pt_clust_6="42.09732"></scales>
<clustering>
<clus scale="   42.095">  3  5 -1 -1</clus>
<clus scale="   42.097">  4  6 -1 -1</clus>
<clus scale="  133.237">  2  3  1 -1</clus>
<clus scale="  133.402">  1  3  2 -1</clus>
</clustering>
</event>
<event>
 6    0  0.1438923E+002  0.1077492E+03  0.7546771E-02  0.1264796E+00
         21   -1    0    0  505  501  0.00000000000E+00  0.00000000000E+00  0.10272684864E+04  0.10272684864E+04  0.00000000000E+00 0. -1.
         21   -1    0    0  506  502 -0.00000000000E+00 -0.00000000000E+00 -0.29784665332E+03  0.29784665332E+03  0.00000000000E+00 0.  1.
         21    1    1    2  503  501 -0.80557015011E+02 -0.67299258967E+02  0.75189983325E+03  0.75919166365E+03  0.00000000000E+00 0. -1.
         21    1    1    2  504  502  0.26824660702E+00  0.64604379940E+02  0.91002900068E+01  0.65242724820E+02  0.00000000000E+00 0.  1.
         21    1    1    2  505  504  0.19709959691E+02 -0.23347869055E+02  0.22943833174E+03  0.23146393579E+03  0.00000000000E+00 0. -1.
         21    1    1    2  506  503  0.60578808714E+02  0.26042748082E+02 -0.26101662192E+03  0.26921681544E+03  0.00000000000E+00 0.  1.
<scales pt_clust_3="107.74925" pt_clust_4="63.52631" pt_clust_5="30.55496" pt_clust_6="14000.00000"></scales>
<clustering>
<clus scale="   30.555">  1  5  2 -1</clus>
<clus scale="   63.526">  2  4  1 -1</clus>
<clus scale="  107.749">  1  3  2 -1</clus>
<clus scale="   30.555">  1  3  2 -1</clus>
</clustering>
</event>
<event>
 6    0  0.1438923E+002  0.7456788E+02  0.7546771E-02  0.1345214E+00
         21   -1    0    0  505  501  0.00000000000E+00  0.00000000000E+00  0.38616716026E+03  0.38616716026E+03  0.00000000000E+00 0. -1.
         21   -1    0    0  503  502 -0.00000000000E+00 -0.00000000000E+00 -0.44610031085E+03  0.44610031085E+03  0.00000000000E+00 0. -1.
         21    1    1    2  503  506  0.69205068607E+02 -0.27444994656E+02 -0.40153098695E+03  0.40837446386E+03  0.00000000000E+00 0. -1.
         21    1    1    2  504  501 -0.20398707000E+02  0.74607293837E+02  0.17757111075E+03  0.19368493724E+03  0.00000000000E+00 0. -1.
         21    1    1    2  505  502  0.27857929775E+02 -0.68605269229E+02  0.43847121994E+02  0.86054153442E+02  0.00000000000E+00 0.  1.
         21    1    1    2  506  504 -0.76664291382E+02  0.21442970049E+02  0.12017960361E+03  0.14415391657E+03  0.00000000000E+00 0. -1.
<scales pt_clust_3="74.56788" pt_clust_4="35.22438" pt_clust_5="74.04558" pt_clust_6="14000.00000"></scales>
<clustering>
<clus scale="   74.046">  1  5  2 -1</clus>
<clus scale="   35.224">  1  4  2 -1</clus>
<clus scale="   74.568">  2  3  1 -1</clus>
<clus scale="   74.046">  1  3  2 -1</clus>
</clustering>
</event>
<event>
 6    0  0.1438923E+002  0.1317667E+03  0.7546771E-02  0.1224858E+00
         21   -1    0    0  503  501  0.00000000000E+00  0.00000000000E+00  0.91256355083E+02  0.91256355083E+02  0.00000000000E+00 0. -1.
         21   -1    0    0  506  502 -0.00000000000E+00 -0.00000000000E+00 -0.41076206221E+03  0.41076206221E+03  0.00000000000E+00 0. -1.
         21    1    1    2  503  502  0.75900797394E+02 -0.96187784050E+02 -0.53548717188E+02  0.13371793432E+03  0.00000000000E+00 0. -1.
         21    1    1    2  504  501 -0.44200897188E+02 -0.21813176537E+01 -0.12151774234E+02  0.45892734458E+02  0.00000000000E+00 0. -1.
         21    1    1    2  505  504 -0.50456378059E+02  0.69490470962E+02 -0.22802129586E+02  0.88852173609E+02  0.00000000000E+00 0. -1.
         21    1    1    2  506  505  0.18756477853E+02  0.28878630741E+02 -0.23100308612E+03  0.23355557491E+03  0.00000000000E+00 0. -1.
<scales pt_clust_3="117.97703" pt_clust_4="39.65290" pt_clust_5="39.65290" pt_clust_6="34.43517"></scales>
<clustering>
<clus scale="   34.435">  2  6  1 -1</clus>
<clus scale="   39.653">  4  5 -1 -1</clus>
<clus scale="  117.977">  2  3  1 -1</clus>
<clus scale="  131.767">  1  3  2 -1</clus>
</clustering>
</event>
<event>
 6    0  0.1438923E+002  0.1147806E+03  0.7546771E-02  0.1251965E+00
         21   -1    0    0  504  501  0.00000000000E+00  0.00000000000E+00  0.10341580878E+04  0.10341580878E+04  0.00000000000E+00 0.  1.
         21   -1    0    0  503  502 -0.00000000000E+00 -0.00000000000E+00 -0.12062538858E+03  0.12062538858E+03  0.00000000000E+00 0. -1.
         21    1    1    2  503  505 -0.31524066056E+02 -0.29791666061E+02 -0.96269052201E+02  0.10558901704E+03  0.00000000000E+00 0. -1.
         21    1    1    2  504  506  0.84845353112E+02  0.29688602281E+02  0.18804632625E+03  0.20842640875E+03  0.00000000000E+00 0. -1.
         21    1    1    2  505  501 -0.90952548182E+02  0.25804504622E+02  0.74883364067E+03  0.75477815276E+03  0.00000000000E+00 0.  1.
         21    1    1    2  506  502  0.37631261126E+02 -0.25701440841E+02  0.72921784515E+02  0.85989897849E+02  0.00000000000E+00 0. -1.
<scales pt_clust_3="43.37407" pt_clust_4="42.48385" pt_clust_5="98.05306" pt_clust_6="42.48385"></scales>
<clustering>
<clus scale="   42.484">  4  6 -1 -1</clus>
<clus scale="   43.374">  2  3  1 -1</clus>
<clus scale="   98.053">  1  5  2 -1</clus>
<clus scale="   98.053">  1  3  2 -1</clus>
</clustering>
</event>
<event>
 6    0  0.1438923E+002  0.1270441E+03  0.7546771E-02  0.1231909E+00
         21   -1    0    0  505  501  0.00000000000E+00  0.00000000000E+00  0.22191784147E+04  0.22191784147E+04  0.00000000000E+00 0.  1.
         21   -1    0    0  501  502 -0.00000000000E+00 -0.00000000000E+00 -0.15290688892E+03  0.15290688892E+03  0.00000000000E+00 0. -1.
         21    1    1    2  503  506 -0.89819957037E+01  0.57539942405E+02  0.14950674778E+04  0.14962012847E+04  0.00000000000E+00 0.  1.
         21    1    1    2  504  502  0.81360981905E+02 -0.87181070079E+02 -0.12570535585E+03  0.17326853392E+03  0.00000000000E+00 0. -1.
         21    1    1    2  505  503 -0.45701182437E+02  0.60186062296E+01  0.24466490711E+03  0.24896935247E+03  0.00000000000E+00 0. -1.
         21    1    1    2  506  504 -0.26677803764E+02  0.23622521444E+02  0.45224449675E+03  0.45364613255E+03  0.00000000000E+00 0.  1.
<scales pt_clust_3="35.17433" pt_clust_4="118.81977" pt_clust_5="46.09579" pt_clust_6="35.17433"></scales>
<clustering>
<clus scale="   35.174">  3  6 -1 -1</clus>
<clus scale="   46.096">  1  5  2 -1</clus>
<clus scale="  118.820">  2  4  1 -1</clus>
<clus scale="   46.096">  1  3  2 -1</clus>
</clustering>
</event>
<event>
 6    0  0.1438923E+002  0.1120755E+03  0.7546771E-02  0.1256774E+00
         21   -1    0    0  505  501  0.00000000000E+00  0.00000000000E+00  0.60393234888E+03  0.60393234888E+03  0.00000000000E+00 0.  1.
         21   -1    0    0  503  502 -0.00000000000E+00 -0.00000000000E+00 -0.82756726319E+02  0.82756726319E+02  0.00000000000E+00 0.  1.
         21    1    1    2  503  506 -0.68243762853E+02 -0.83061364850E+01  0.20566527846E+03  0.21685112366E+03  0.00000000000E+00 0.  1.
         21    1    1    2  504  502  0.99834485458E+02  0.37748583234E+00 -0.35681928933E+02  0.10602012561E+03  0.00000000000E+00 0.  1.
         21    1    1    2  505  504  0.19109669665E+02 -0.27258250703E+02  0.12543907926E+03  0.12978117857E+03  0.00000000000E+00 0.  1.
         21    1    1    2  506  501 -0.50700392270E+02  0.35186901355E+02  0.22575319378E+03  0.23403664735E+03  0.00000000000E+00 0.  1.
<scales pt_clust_3="41.42593" pt_clust_4="101.25864" pt_clust_5="33.28951" pt_clust_6="41.42593"></scales>
<clustering>
<clus scale="   33.290">  1  5  2 -1</clus>
<clus scale="   41.426">  3  6 -1 -1</clus>
<clus scale="  101.259">  2  4  1 -1</clus>
<clus scale="   33.290">  1  3  2 -1</clus>
</clustering>
</event>
<event>
 6    0  0.1438923E+002  0.1106677E+03  0.7546771E-02  0.1259338E+00
         21   -1    0    0  503  501  0.00000000000E+00  0.00000000000E+00  0.90698294610E+02  0.90698294610E+02  0.00000000000E+00 0. -1.
         21   -1    0    0  504  502 -0.00000000000E+00 -0.00000000000E+00 -0.55533703828E+03  0.55533703828E+03  0.00000000000E+00 0. -1.
         21    1    1    2  503  502 -0.13202435909E+02 -0.86470624303E+02  0.21273598216E+02  0.90022436993E+02  0.00000000000E+00 0. -1.
         21    1    1    2  504  505 -0.94168639054E+02 -0.11141114390E+02 -0.30682276228E+03  0.32114181364E+03  0.00000000000E+00 0. -1.
         21    1    1    2  505  506  0.36542195634E+02  0.58735291787E+02 -0.10165834533E+03  0.12296172469E+03  0.00000000000E+00 0. -1.
         21    1    1    2  506  501  0.70828879329E+02  0.38876446905E+02 -0.77431234274E+02  0.11190935757E+03  0.00000000000E+00 0. -1.
<scales pt_clust_3="87.47270" pt_clust_4="101.05731" pt_clust_5="41.73811" pt_clust_6="41.73811"></scales>
<clustering>
<clus scale="   41.738">  5  6 -1 -1</clus>
<clus scale="   87.473">  1  3  2 -1</clus>
<clus scale="  101.057">  2  4  1 -1</clus>
<clus scale="   87.473">  1  3  2 -1</clus>
</clustering>
</event>
<event>
 6    0  0.1438923E+002  0.1349045E+03  0.7546771E-02  0.1220355E+00
         21   -1    0    0  503  501  0.00000000000E+00  0.00000000000E+00  0.17660252994E+03  0.17660252994E+03  0.00000000000E+00 0.  1.
         21   -1    0    0  506  502 -0.00000000000E+00 -0.00000000000E+00 -0.50058000665E+03  0.50058000665E+03  0.00000000000E+00 0. -1.
         21    1    1    2  503  505 -0.29800138988E+01 -0.43679472101E+02  0.23530719621E+02  0.49703838199E+02  0.00000000000E+00 0.  1.
         21    1    1    2  504  502  0.24743129783E+02 -0.43174397673E+02  0.10143217622E+03  0.11298113762E+03  0.00000000000E+00 0.  1.
         21    1    1    2  505  504  0.29830472985E+02 -0.47882744156E+02 -0.16731069202E+02  0.58843376714E+02  0.00000000000E+00 0. -1.
         21    1    1    2  506  501 -0.51593588870E+02  0.13473661393E+03 -0.43220930335E+03  0.45565418406E+03  0.00000000000E+00 0. -1.
<scales pt_clust_3="43.78101" pt_clust_4="134.90451" pt_clust_5="61.87432" pt_clust_6="14000.00000"></scales>
<clustering>
<clus scale="   43.781">  1  3  2 -1</clus>
<clus scale="   61.874">  1  5  2 -1</clus>
<clus scale="  134.905">  1  4  2 -1</clus>
<clus scale="   43.781">  1  3  2 -1</clus>
</clustering>
</event>
<event>
 6    0  0.1438923E+002  0.1337295E+03  0.7546771E-02  0.1222024E+00
         21   -1    0    0  506  501  0.00000000000E+00  0.00000000000E+00  0.18214761107E+03  0.18214761107E+03  0.00000000000E+00 0.  1.
         21   -1    0    0  503  502 -0.00000000000E+00 -0.00000000000E+00 -0.27205657513E+03  0.27205657513E+03  0.00000000000E+00 0.  1.
         21    1    1    2  503  504  0.73007522941E+02  0.79418526889E+02 -0.16097756874E+02  0.10907125467E+03  0.00000000000E+00 0.  1.
         21    1    1    2  504  505 -0.25049957270E+02 -0.54714396952E+02  0.52654958739E+02  0.79960679542E+02  0.00000000000E+00 0.  1.
         21    1    1    2  505  501 -0.62762256645E+02 -0.56773717874E+02  0.40987596536E+02  0.94033711882E+02  0.00000000000E+00 0.  1.
         21    1    1    2  506  502  0.14804690974E+02  0.32069587936E+02 -0.16745376246E+03  0.17113854010E+03  0.00000000000E+00 0.  1.
<scales pt_clust_3="128.52644" pt_clust_4="31.14874" pt_clust_5="31.14874" pt_clust_6="35.32191"></scales>
<clustering>
<clus scale="   31.149">  4  5 -1 -1</clus>
<clus scale="   35.322">  2  6  1 -1</clus>
<clus scale="  128.526">  2  3  1 -1</clus>
<clus scale="  133.730">  1  3  2 -1</clus>
</clustering>
</event>
<event>
 6    0  0.1438923E+002  0.1172683E+03  0.7546771E-02  0.1247673E+00
         21   -1    0    0  504  501  0.00000000000E+00  0.00000000000E+00  0.14287080353E+04  0.14287080353E+04  0.00000000000E+00 0.  1.
         21   -1    0    0  506  502 -0.00000000000E+00 -0.00000000000E+00 -0.26815244189E+03  0.26815244189E+03  0.00000000000E+00 0. -1.
         21    1    1    2  503  502  0.59816910860E+02  0.35334581706E+02  0.56331090136E+03  0.56757886419E+03  0.00000000000E+00 0.  1.
         21    1    1    2  504  503  0.37423738797E+02  0.37907265422E+02  0.75320128150E+03  0.75508255671E+03  0.00000000000E+00 0.  1.
         21    1    1    2  505  501  0.12567512059E+02 -0.56137833232E+02  0.88564673085E+02  0.10560823831E+03  0.00000000000E+00 0. -1.
         21    1    1    2  506  505 -0.10980816172E+03 -0.17104013896E+02 -0.24452126254E+03  0.26859081798E+03  0.00000000000E+00 0. -1.
<scales pt_clust_3="32.86605" pt_clust_4="32.86605" pt_clust_5="57.52737" pt_clust_6="111.09933"></scales>
<clustering>
<clus scale="   32.866">  3  4 -1 -1</clus>
<clus scale="   57.527">  1  5  2 -1</clus>
<clus scale="  111.099">  2  6  1 -1</clus>
<clus scale="   57.527">  1  3  2 -1</clus>
</clustering>
</event>
<event>
 6    0  0.1438923E+002  0.1388403E+03  0.7546771E-02  0.1214898E+00
         21   -1    0    0  503  501  0.00000000000E+00  0.00000000000E+00  0.49960142399E+02  0.49960142399E+02  0.00000000000E+00 0. -1.
         21   -1    0    0  505  502 -0.00000000000E+00 -0.00000000000E+00 -0.81085724448E+03  0.81085724448E+03  0.00000000000E+00 0. -1.
         21    1    1    2  503  506  0.63748626424E+02  0.64874160267E+02 -0.52496722093E+02  0.10501642668E+03  0.00000000000E+00 0. -1.
         21    1    1    2  504  501 -0.10351539660E+03 -0.38595052224E+02 -0.37008361681E+03  0.38622130808E+03  0.00000000000E+00 0. -1.
         21    1    1    2  505  504  0.96858027400E+01 -0.75579282419E+02 -0.26781161558E+03  0.27844048582E+03  0.00000000000E+00 0. -1.
         21    1    1    2  506  502  0.30080967431E+02  0.49300174376E+02 -0.70505147602E+02  0.91139166298E+02  0.00000000000E+00 0. -1.
<scales pt_clust_3="30.94183" pt_clust_4="133.29982" pt_clust_5="76.19739" pt_clust_6="30.94183"></scales>
<clustering>
<clus scale="   30.942">  3  6 -1 -1</clus>
<clus scale="   76.197">  2  5  1 -1</clus>
<clus scale="  133.300">  2  4  1 -1</clus>
<clus scale="  138.840">  1  3  2 -1</clus>
</clustering>
</event>
<event>
 6    0  0.1438923E+002  0.1062971E+03  0.7546771E-02  0.1267585E+00
         21   -1    0    0  504  501  0.00000000000E+00  0.00000000000E+00  0.23617805547E+03  0.23617805547E+03  0.00000000000E+00 0. -1.
         21   -1    0    0  505  502 -0.00000000000E+00 -0.00000000000E+00 -0.36393302304E+03  0.36393302304E+03  0.00000000000E+00 0.  1.
         21    1    1    2  503  506  0.70165385142E+02 -0.50845073801E+02 -0.78058799534E+02  0.11662580755E+03  0.00000000000E+00 0.  1.
         21    1    1    2  504  502 -0.11152724886E+02  0.56927058085E+02  0.47697917334E+02  0.75101028838E+02  0.00000000000E+00 0. -1.
         21    1    1    2  505  503  0.22476622830E+02 -0.27681588943E+02 -0.24004812412E+03  0.24268203649E+03  0.00000000000E+00 0.  1.
         21    1    1    2  506  501 -0.81489283085E+02  0.21599604659E+02  0.14265403875E+03  0.16570220563E+03  0.00000000000E+00 0. -1.
<scales pt_clust_3="14000.00000" pt_clust_4="54.52156" pt_clust_5="35.65766" pt_clust_6="106.29712"></scales>
<clustering>
<clus scale="   35.658">  2  5  1 -1</clus>
<clus scale="   54.522">  1  4  2 -1</clus>
<clus scale="  106.297">  1  6  2 -1</clus>
<clus scale="   54.522">  1  3  2 -1</clus>
</clustering>
</event>
<event>
 6    0  0.1438923E+002  0.2554810E+03  0.7546771E-02  0.1109889E+00
         21   -1    0    0  503  501  0.00000000000E+00  0.00000000000E+00  0.27172198833E+04  0.27172198833E+04  0.00000000000E+00 0. -1.
         21   -1    0    0  504  502 -0.00000000000E+00 -0.00000000000E+00 -0.15671336775E+03  0.15671336775E+03  0.00000000000E+00 0. -1.
         21    1    1    2  503  506  0.45759574415E+02 -0.91254646037E+02  0.36495088833E+03  0.37895976035E+03  0.00000000000E+00 0. -1.
         21    1    1    2  504  505 -0.18818034226E+03  0.18204037987E+03 -0.10041163376E+02  0.26201405703E+03  0.00000000000E+00 0. -1.
         21    1    1    2  505  501  0.12259303737E+03  0.12299303549E+02  0.19832967954E+04  0.19871201534E+04  0.00000000000E+00 0. -1.
         21    1    1    2  506  502  0.19827730481E+02 -0.10308503738E+03  0.22229999519E+03  0.24583928020E+03  0.00000000000E+00 0. -1.
<scales pt_clust_3="57.84397" pt_clust_4="248.65617" pt_clust_5="123.20846" pt_clust_6="57.84397"></scales>
<clustering>
<clus scale="   57.844">  3  6 -1 -1</clus>
<clus scale="  123.208">  1  5  2 -1</clus>
<clus scale="  248.656">  2  4  1 -1</clus>
<clus scale="  123.208">  1  3  2 -1</clus>
</clustering>
</event>
<event>
 6    0  0.1438923E+002  0.1305949E+03  0.7546771E-02  0.1226576E+00
         21   -1    0    0  502  501  0.00000000000E+00  0.00000000000E+00  0.15731133306E+03  0.15731133306E+03  0.00000000000E+00 0.  1.
         21   -1    0    0  505  502 -0.00000000000E+00 -0.00000000000E+00 -0.31532298032E+03  0.31532298032E+03  0.00000000000E+00 0. -1.
         21    1    1    2  503  504 -0.48152061486E+02 -0.49937215417E+02  0.19073312741E+02  0.71945380449E+02  0.00000000000E+00 0.  1.
         21    1    1    2  504  506 -0.43120929486E+02 -0.30325833129E+02  0.64947945817E+02  0.83649903649E+02  0.00000000000E+00 0.  1.
         21    1    1    2  505  503  0.11234347073E+03  0.46995775703E+02 -0.24887430164E+03  0.27707052598E+03  0.00000000000E+00 0. -1.
         21    1    1    2  506  501 -0.21070479754E+02  0.33267272843E+02  0.68413958213E+01  0.39968503302E+02  0.00000000000E+00 0.  1.
<scales pt_clust_3="44.45446" pt_clust_4="44.45446" pt_clust_5="121.15120" pt_clust_6="39.37863"></scales>
<clustering>
<clus scale="   39.379">  1  6  2 -1</clus>
<clus scale="   44.454">  3  4 -1 -1</clus>
<clus scale="  121.151">  2  5  1 -1</clus>
<clus scale="   39.379">  1  3  2 -1</clus>
</clustering>
</event>
<event>
 6    0  0.1438923E+002  0.2369023E+03  0.7546771E-02  0.1121874E+00
         21   -1    0    0  503  501  0.00000000000E+00  0.00000000000E+00  0.14317720267E+04  0.14317720267E+04  0.00000000000E+00 0. -1.
         21   -1    0    0  505  502 -0.00000000000E+00 -0.00000000000E+00 -0.58948597961E+02  0.58948597961E+02  0.00000000000E+00 0. -1.
         21    1    1    2  503  502 -0.10841302112E+02  0.21720110279E+03  0.20415867328E+03  0.29828613237E+03  0.00000000000E+00 0. -1.
         21    1    1    2  504  506 -0.66154098082E+01 -0.75749873875E+02  0.33841800799E+03  0.34685523662E+03  0.00000000000E+00 0. -1.
         21    1    1    2  505  504  0.21753845808E+02 -0.37839257498E+02  0.11782023622E+03  0.12564492540E+03  0.00000000000E+00 0. -1.
         21    1    1    2  506  501 -0.42971338881E+01 -0.10361197142E+03  0.71242651128E+03  0.71993433030E+03  0.00000000000E+00 0. -1.
<scales pt_clust_3="217.47150" pt_clust_4="32.89809" pt_clust_5="41.51584" pt_clust_6="41.51584"></scales>
<clustering>
<clus scale="   32.898">  4  6 -1 -1</clus>
<clus scale="   41.516">  4  5 -1 -1</clus>
<clus scale="  217.471">  2  3  1 -1</clus>
<clus scale="  236.902">  1  3  2 -1</clus>
</clustering>
</event>
<event>
 6    0  0.1438923E+002  0.1922188E+03  0.7546771E-02  0.1156475E+00
         21   -1    0    0  506  501  0.00000000000E+00  0.00000000000E+00  0.79621691541E+03  0.79621691541E+03  0.00000000000E+00 0. -1.
         21   -1    0    0  505  502 -0.00000000000E+00 -0.00000000000E+00 -0.53429675449E+03  0.53429675449E+03  0.00000000000E+00 0.  1.
         21    1    1    2  503  501  0.10670100564E+03 -0.37759994267E+02  0.41964140820E+03  0.43463758840E+03  0.00000000000E+00 0. -1.
         21    1    1    2  504  502 -0.17619340792E+03  0.29481635092E+02 -0.49243283126E+03  0.52383525760E+03  0.00000000000E+00 0.  1.
         21    1    1    2  505  503  0.84882051976E+02 -0.52154617762E+02  0.19231770137E+03  0.21658985470E+03  0.00000000000E+00 0.  1.
         21    1    1    2  506  504 -0.15389649703E+02  0.60432976937E+02  0.14239388261E+03  0.15545096920E+03  0.00000000000E+00 0.  1.
<scales pt_clust_3="65.70169" pt_clust_4="179.25834" pt_clust_5="65.70169" pt_clust_6="62.36174"></scales>
<clustering>
<clus scale="   62.362">  1  6  2 -1</clus>
<clus scale="   65.702">  3  5 -1 -1</clus>
<clus scale="  179.258">  2  4  1 -1</clus>
<clus scale="   62.362">  1  3  2 -1</clus>
</clustering>
</event>
<event>
 6    0  0.1438923E+002  0.2901041E+03  0.7546771E-02  0.1090295E+00
         21   -1    0    0  505  501  0.00000000000E+00  0.00000000000E+00  0.11900680437E+04  0.11900680437E+04  0.00000000000E+00 0.  1.
         21   -1    0    0  503  502 -0.00000000000E+00 -0.00000000000E+00 -0.33738504996E+03  0.33738504996E+03  0.00000000000E+00 0. -1.
         21    1    1    2  503  504  0.89910534822E+02  0.25133847372E+03 -0.24511824152E+03  0.36240569114E+03  0.00000000000E+00 0. -1.
         21    1    1    2  504  501  0.44680347219E+01  0.52958108534E+02  0.12379489362E+03  0.13472082348E+03  0.00000000000E+00 0.  1.
         21    1    1    2  505  506  0.57800936190E+01 -0.14438573259E+03  0.48920288750E+03  0.51009814192E+03  0.00000000000E+00 0.  1.
         21    1    1    2  506  502 -0.10015866316E+03 -0.15991084967E+03  0.48480345416E+03  0.52022843714E+03  0.00000000000E+00 0.  1.
<scales pt_clust_3="269.77701" pt_clust_4="53.14626" pt_clust_5="90.39937" pt_clust_6="90.39937"></scales>
<clustering>
<clus scale="   53.146">  1  4  2 -1</clus>
<clus scale="   90.399">  5  6 -1 -1</clus>
<clus scale="  269.777">  2  3  1 -1</clus>
<clus scale="   53.146">  1  3  2 -1</clus>
</clustering>
</event>
<event>
 6    0  0.1438923E+002  0.1042063E+03  0.7546771E-02  0.1271691E+00
         21   -1    0    0  504  501  0.00000000000E+00  0.00000000000E+00  0.22511722276E+03  0.22511722276E+03  0.00000000000E+00 0.  1.
         21   -1    0    0  503  502 -0.00000000000E+00 -0.00000000000E+00 -0.98664212549E+03  0.98664212549E+03  0.00000000000E+00 0.  1.
         21    1    1    2  503  505  0.48793801755E+02  0.91096606740E+02 -0.87981580094E+03  0.88586413768E+03  0.00000000000E+00 0.  1.
         21    1    1    2  504  502 -0.13383201051E+03 -0.10194998696E+03  0.13112733085E+03  0.21330537680E+03  0.00000000000E+00 0.  1.
         21    1    1    2  505  506  0.43847113070E+02  0.27883174934E+02 -0.35159768752E+02  0.62739541819E+02  0.00000000000E+00 0.  1.
         21    1    1    2  506  501  0.41191095687E+02 -0.17029794717E+02  0.22323336111E+02  0.49850291946E+02  0.00000000000E+00 0. -1.
<scales pt_clust_3="104.20630" pt_clust_4="14000.00000" pt_clust_5="53.89663" pt_clust_6="44.57264"></scales>
<clustering>
<clus scale="   44.573">  1  6  2 -1</clus>
<clus scale="   53.897">  1  5  2 -1</clus>
<clus scale="  104.206">  2  3  1 -1</clus>
<clus scale="   44.573">  1  3  2 -1</clus>
</clustering>
</event>
<event>
 6    0  0.1438923E+002  0.1695829E+03  0.7546771E-02  0.1178283E+00
         21   -1    0    0  503  501  0.00000000000E+00  0.00000000000E+00  0.12178088996E+03  0.12178088996E+03  0.00000000000E+00 0.  1.
         21   -1    0    0  505  502 -0.00000000000E+00 -0.00000000000E+00 -0.12824326368E+04  0.12824326368E+04  0.00000000000E+00 0. -1.
         21    1    1    2  503  504 -0.21468821481E+03 -0.23403879042E+02 -0.25281107768E+03  0.33249392796E+03  0.00000000000E+00 0. -1.
         21    1    1    2  504  502  0.51191382514E+02  0.33540725452E+02 -0.97135399681E+02  0.11480776881E+03  0.00000000000E+00 0.  1.
         21    1    1    2  505  506  0.12458946880E+02 -0.51849572742E+02 -0.79791907506E+03  0.79969897705E+03  0.00000000000E+00 0. -1.
         21    1    1    2  506  501  0.15103788541E+03  0.41712726332E+02 -0.12786194431E+02  0.15721285296E+03  0.00000000000E+00 0.  1.
<scales pt_clust_3="169.58293" pt_clust_4="58.30475" pt_clust_5="53.32545" pt_clust_6="14000.00000"></scales>
<clustering>
<clus scale="   53.325">  2  5  1 -1</clus>
<clus scale="   58.305">  2  4  1 -1</clus>
<clus scale="  169.583">  2  3  1 -1</clus>
<clus scale="  169.583">  1  3  2 -1</clus>
</clustering>
</event>
<event>
 6    0  0.1438923E+002  0.2141278E+03  0.7546771E-02  0.1138338E+00
         21   -1    0    0  505  501  0.00000000000E+00  0.00000000000E+00  0.18401575662E+04  0.18401575662E+04  0.00000000000E+00 0.  1.
         21   -1    0    0  503  502 -0.00000000000E+00 -0.00000000000E+00 -0.44016589076E+02  0.44016589076E+02  0.00000000000E+00 0.  1.
         21    1    1    2  503  501  0.42464241567E+02  0.39211471505E+01  0.45604203816E+01  0.42888047762E+02  0.00000000000E+00 0.  1.
         21    1    1    2  504  506 -0.16140476961E+02 -0.34947393958E+02  0.27292287809E+03  0.27562426004E+03  0.00000000000E+00 0.  1.
         21    1    1    2  505  504 -0.17239997563E+03 -0.78444057621E+02  0.94006420439E+03  0.95895564556E+03  0.00000000000E+00 0.  1.
         21    1    1    2  506  502  0.14607621102E+03  0.10947030443E+03  0.57859347428E+03  0.60670620193E+03  0.00000000000E+00 0.  1.
<scales pt_clust_3="42.64490" pt_clust_4="30.05560" pt_clust_5="30.05560" pt_clust_6="203.48457"></scales>
<clustering>
<clus scale="   30.056">  4  5 -1 -1</clus>
<clus scale="   42.645">  2  3  1 -1</clus>
<clus scale="  203.485">  2  6  1 -1</clus>
<clus scale="  214.128">  1  3  2 -1</clus>
</clustering>
</event>
<event>
 6    0  0.1438923E+002  0.9756298E+02  0.7546771E-02  0.1285506E+00
         21   -1    0    0  503  501  0.00000000000E+00  0.00000000000E+00  0.11449003128E+03  0.11449003128E+03  0.00000000000E+00 0. -1.
         21   -1    0    0  504  502 -0.00000000000E+00 -0.00000000000E+00 -0.11401599891E+04  0.11401599891E+04  0.00000000000E+00 0. -1.
         21    1    1    2  503  502 -0.48439988691E+02 -0.73425419830E+02 -0.11050645811E+03  0.14124235224E+03  0.00000000000E+00 0. -1.
         21    1    1    2  504  506 -0.70449678352E+02 -0.10586385177E+02 -0.93196423994E+03  0.93468314056E+03  0.00000000000E+00 0. -1.
         21    1    1    2  505  501  0.53019220015E+02  0.12614473828E+02  0.52072959880E+02  0.75377422293E+02  0.00000000000E+00 0. -1.
         21    1    1    2  506  505  0.65870447028E+02  0.71397331180E+02 -0.35272219659E+02  0.10334710529E+03  0.00000000000E+00 0. -1.
<scales pt_clust_3="97.56298" pt_clust_4="69.78649" pt_clust_5="54.49920" pt_clust_6="14000.00000"></scales>
<clustering>
<clus scale="   54.499">  1  5  2 -1</clus>
<clus scale="   69.786">  2  4  1 -1</clus>
<clus scale="   97.563">  1  3  2 -1</clus>
<clus scale="   54.499">  1  3  2 -1</clus>
</clustering>
</event>
<event>
 6    0  0.1438923E+002  0.3632423E+03  0.7546771E-02  0.1057307E+00
         21   -1    0    0  503  501  0.00000000000E+00  0.00000000000E+00  0.17710121584E+04  0.17710121584E+04  0.00000000000E+00 0.  1.
         21   -1    0    0  504  502 -0.00000000000E+00 -0.00000000000E+00 -0.14292599889E+03  0.14292599889E+03  0.00000000000E+00 0.  1.
         21    1    1    2  503  505  0.31655557803E+02 -0.42038347903E+02  0.23451266768E+03  0.24034452009E+03  0.00000000000E+00 0.  1.
         21    1    1    2  504  501  0.12756931050E+03  0.34198906011E+03  0.16974124272E+03  0.40254507287E+03  0.00000000000E+00 0.  1.
         21    1    1    2  505  506 -0.87161884217E+02 -0.19923556196E+03  0.84233121552E+03  0.86995050425E+03  0.00000000000E+00 0.  1.
         21    1    1    2  506  502 -0.72062984086E+02 -0.10071515025E+03  0.38150103356E+03  0.40109806004E+03  0.00000000000E+00 0.  1.
<scales pt_clust_3="52.62411" pt_clust_4="359.81786" pt_clust_5="37.55076" pt_clust_6="37.55076"></scales>
<clustering>
<clus scale="   37.551">  5  6 -1 -1</clus>
<clus scale="   52.624">  1  3  2 -1</clus>
<clus scale="  359.818">  2  4  1 -1</clus>
<clus scale="   52.624">  1  3  2 -1</clus>
</clustering>
</event>
<event>
 6    0  0.1438923E+002  0.9017010E+02  0.7546771E-02  0.1302440E+00
         21   -1    0    0  506  501  0.00000000000E+00  0.00000000000E+00  0.43336545316E+03  0.43336545316E+03  0.00000000000E+00 0.  1.
         21   -1    0    0  503  502 -0.00000000000E+00 -0.00000000000E+00 -0.24295965192E+03  0.24295965192E+03  0.00000000000E+00 0. -1.
         21    1    1    2  503  501  0.53392515425E+02 -0.88355187422E+02  0.32539048697E+03  0.34137423579E+03  0.00000000000E+00 0.  1.
         21    1    1    2  504  505  0.16307222253E+02  0.46422744771E+02  0.25071678908E+02  0.55223055085E+02  0.00000000000E+00 0.  1.
         21    1    1    2  505  502 -0.57041618867E+02  0.69398037142E+02 -0.20599378213E+03  0.22472933079E+03  0.00000000000E+00 0. -1.
         21    1    1    2  506  504 -0.12658118811E+02 -0.27465594491E+02  0.45937417489E+02  0.54998483417E+02  0.00000000000E+00 0. -1.
<scales pt_clust_3="14000.00000" pt_clust_4="46.04767" pt_clust_5="90.17010" pt_clust_6="30.24214"></scales>
<clustering>
<clus scale="   30.242">  1  6  2 -1</clus>
<clus scale="   46.048">  1  4  2 -1</clus>
<clus scale="   90.170">  2  5  1 -1</clus>
<clus scale="   30.242">  1  3  2 -1</clus>
</clustering>
</event>
<event>
 6    0  0.1438923E+002  0.8680136E+02  0.7546771E-02  0.1310788E+00
         21   -1    0    0  503  501  0.00000000000E+00  0.00000000000E+00  0.76314207122E+03  0.76314207122E+03  0.00000000000E+00 0.  1.
         21   -1    0    0  504  502 -0.00000000000E+00 -0.00000000000E+00 -0.44751075197E+02  0.44751075197E+02  0.00000000000E+00 0. -1.
         21    1    1    2  503  502 -0.79791482813E+02 -0.63382542763E+01  0.50902283644E+02  0.94857243671E+02  0.00000000000E+00 0. -1.
         21    1    1    2  504  505  0.35213762787E+02 -0.26506580578E+02  0.46611633023E+02  0.64150231774E+02  0.00000000000E+00 0.  1.
         21    1    1    2  505  506 -0.41221732158E+02  0.55013853965E+02  0.10533265975E+03  0.12578046168E+03  0.00000000000E+00 0. -1.
         21    1    1    2  506  501  0.85799452184E+02 -0.22169019111E+02  0.51554441961E+03  0.52310520930E+03  0.00000000000E+00 0.  1.
<scales pt_clust_3="86.80136" pt_clust_4="44.07503" pt_clust_5="56.82434" pt_clust_6="14000.00000"></scales>
<clustering>
<clus scale="   44.075">  2  4  1 -1</clus>
<clus scale="   56.824">  2  5  1 -1</clus>
<clus scale="   86.801">  2  3  1 -1</clus>
<clus scale="   86.801">  1  3  2 -1</clus>
</clustering>
</event>
<event>
 6    0  0.1438923E+002  0.1295655E+03  0.7546771E-02  0.1228102E+00
         21   -1    0    0  506  501  0.00000000000E+00  0.00000000000E+00  0.25836898908E+03  0.25836898908E+03  0.00000000000E+00 0. -1.
         21   -1    0    0  503  502 -0.00000000000E+00 -0.00000000000E+00 -0.76647224331E+03  0.76647224331E+03  0.00000000000E+00 0.  1.
         21    1    1    2  503  501  0.16214779304E+03 -0.54506075090E+02  0.11814958581E+03  0.20789935940E+03  0.00000000000E+00 0. -1.
         21    1    1    2  504  502 -0.77051368917E+02 -0.18158289212E+02 -0.66352607644E+03  0.66823161481E+03  0.00000000000E+00 0.  1.
         21    1    1    2  505  504 -0.92263674591E+02  0.25602938145E+02  0.31282145556E+02  0.10073067418E+03  0.00000000000E+00 0.  1.
         21    1    1    2  506  505  0.71672504706E+01  0.47061426157E+02  0.59910908334E+01  0.47979583998E+02  0.00000000000E+00 0.  1.
<scales pt_clust_3="14000.00000" pt_clust_4="78.98267" pt_clust_5="129.56547" pt_clust_6="47.60407"></scales>
<clustering>
<clus scale="   47.604">  1  6  2 -1</clus>
<clus scale="   78.983">  2  4  1 -1</clus>
<clus scale="  129.565">  2  5  1 -1</clus>
<clus scale="   47.604">  1  3  2 -1</clus>
</clustering>
</event>
<event>
 6    0  0.1438923E+002  0.8949642E+02  0.7546771E-02  0.1304076E+00
         21   -1    0    0  503  501  0.00000000000E+00  0.00000000000E+00  0.40284907438E+03  0.40284907438E+03  0.00000000000E+00 0. -1.
         21   -1    0    0  505  502 -0.00000000000E+00 -0.00000000000E+00 -0.12498551530E+03  0.12498551530E+03  0.00000000000E+00 0.  1.
         21    1    1    2  503  506  0.34924708791E+02 -0.14836560959E+01  0.11993028013E+03  0.12492080936E+03  0.00000000000E+00 0. -1.
         21    1    1    2  504  502 -0.83593170496E+02 -0.28020509185E+02 -0.70429974651E+02  0.11284213937E+03  0.00000000000E+00 0.  1.
         21    1    1    2  505  501  0.75638233169E+02  0.86102288565E+02  0.16532330678E+03  0.20116297417E+03  0.00000000000E+00 0. -1.
         21    1    1    2  506  504 -0.26969771464E+02 -0.56598123284E+02  0.63039946817E+02  0.88908666770E+02  0.00000000000E+00 0. -1.
<scales pt_clust_3="34.95621" pt_clust_4="14000.00000" pt_clust_5="89.49642" pt_clust_6="59.62827"></scales>
<clustering>
<clus scale="   34.956">  1  3  2 -1</clus>
<clus scale="   59.628">  1  6  2 -1</clus>
<clus scale="   89.496">  1  5  2 -1</clus>
<clus scale="   34.956">  1  3  2 -1</clus>
</clustering>
</event>
<event>
 6    0  0.1438923E+002  0.1781342E+03  0.7546771E-02  0.1169621E+00
         21   -1    0    0  505  501  0.00000000000E+00  0.00000000000E+00  0.20688591592E+04  0.20688591592E+04  0.00000000000E+00 0.  1.
         21   -1    0    0  506  502 -0.00000000000E+00 -0.00000000000E+00 -0.37490173451E+02  0.37490173451E+02  0.00000000000E+00 0. -1.
         21    1    1    2  503  502  0.30630567274E+02 -0.56945037766E+01 -0.16378842745E+01  0.31198424474E+02  0.00000000000E+00 0. -1.
         21    1    1    2  504  503  0.54842803854E+02  0.55153728841E+01  0.30755136005E+03  0.31245158272E+03  0.00000000000E+00 0. -1.
         21    1    1    2  505  504  0.10765041372E+03  0.14725060613E+02  0.11583690162E+04  0.11634535730E+04  0.00000000000E+00 0.  1.
         21    1    1    2  506  501 -0.19312378485E+03 -0.14545929721E+02  0.56708649378E+03  0.59924575240E+03  0.00000000000E+00 0. -1.
<scales pt_clust_3="31.15540" pt_clust_4="36.56114" pt_clust_5="36.56114" pt_clust_6="170.79818"></scales>
<clustering>
<clus scale="   31.155">  2  3  1 -1</clus>
<clus scale="   36.561">  4  5 -1 -1</clus>
<clus scale="  170.798">  2  6  1 -1</clus>
<clus scale="  178.134">  1  3  2 -1</clus>
</clustering>
</event>
<event>
 6    0  0.1438923E+002  0.1056895E+03  0.7546771E-02  0.1268767E+00
         21   -1    0    0  504  501  0.00000000000E+00  0.00000000000E+00  0.72065646326E+02  0.72065646326E+02  0.00000000000E+00 0.  1.
         21   -1    0    0  506  502 -0.00000000000E+00 -0.00000000000E+00 -0.40734595573E+03  0.40734595573E+03  0.00000000000E+00 0.  1.
         21    1    1    2  503  502 -0.30990621866E+02  0.58667641610E+02 -0.56336766436E+02  0.87041036690E+02  0.00000000000E+00 0.  1.
         21    1    1    2  504  503 -0.33473032531E+02  0.56072302101E+02 -0.89857888991E+01  0.65918824109E+02  0.00000000000E+00 0.  1.
         21    1    1    2  505  501  0.45312466415E+02 -0.25429331221E+02 -0.12742878678E+02  0.53500013607E+02  0.00000000000E+00 0.  1.
         21    1    1    2  506  505  0.19151187982E+02 -0.89310612490E+02 -0.25721487539E+03  0.27295172765E+03  0.00000000000E+00 0.  1.
<scales pt_clust_3="42.19405" pt_clust_4="42.19405" pt_clust_5="51.96028" pt_clust_6="96.75434"></scales>
<clustering>
<clus scale="   42.194">  3  4 -1 -1</clus>
<clus scale="   51.960">  1  5  2 -1</clus>
<clus scale="   96.754">  2  6  1 -1</clus>
<clus scale="   51.960">  1  3  2 -1</clus>
</clustering>
</event>
<event>
 6    0  0.2204903E+002  0.1463203E+03  0.7546771E-02  0.1205069E+00
         21   -1    0    0  505  501  0.00000000000E+00  0.00000000000E+00  0.21555192568E+04  0.21555192568E+04  0.00000000000E+00 0.  1.
         21   -1    0    0  506  502 -0.00000000000E+00 -0.00000000000E+00 -0.15016863938E+03  0.15016863938E+03  0.00000000000E+00 0. -1.
         21    1    1    2  503  502 -0.28075214939E+02  0.13979798235E+02  0.42277920575E+02  0.52641001327E+02  0.00000000000E+00 0. -1.
         21    1    1    2  504  501  0.35602833430E+02  0.11199972858E+01  0.16207038674E+03  0.16593862239E+03  0.00000000000E+00 0.  1.
         21    1    1    2  505  503  0.10619893985E+03 -0.45348503768E+02  0.19178190991E+04  0.19212924813E+04  0.00000000000E+00 0.  1.
         21    1    1    2  506  504 -0.11372655834E+03  0.30248708247E+02 -0.11681678900E+03  0.16581579121E+03  0.00000000000E+00 0. -1.
<scales pt_clust_3="31.36323" pt_clust_4="35.25253" pt_clust_5="14000.00000" pt_clust_6="146.32025"></scales>
<clustering>
<clus scale="   31.363">  2  3  1 -1</clus>
<clus scale="   35.253">  1  4  2 -1</clus>
<clus scale="  146.320">  2  6  1 -1</clus>
<clus scale="   35.253">  1  3  2 -1</clus>
</clustering>
</event>
<event>
 6    0  0.1438923E+002  0.8840416E+02  0.7546771E-02  0.1306763E+00
         21   -1    0    0  504  501  0.00000000000E+00  0.00000000000E+00  0.25902886040E+03  0.25902886040E+03  0.00000000000E+00 0.  1.
         21   -1    0    0  506  502 -0.00000000000E+00 -0.00000000000E+00 -0.49160905013E+03  0.49160905013E+03  0.00000000000E+00 0.  1.
         21    1    1    2  503  501 -0.54350827426E+02 -0.65152845186E+02  0.16258566952E+03  0.18339303588E+03  0.00000000000E+00 0.  1.
         21    1    1    2  504  505  0.75581071666E+02  0.68328794842E+02  0.32476770898E+02  0.10693953080E+03  0.00000000000E+00 0.  1.
         21    1    1    2  505  502  0.11290117560E+02 -0.36537928485E+02 -0.40792723162E+03  0.40971589335E+03  0.00000000000E+00 0.  1.
         21    1    1    2  506  503 -0.32520361800E+02  0.33361978830E+02 -0.19715398522E+02  0.50589450500E+02  0.00000000000E+00 0.  1.
<scales pt_clust_3="14000.00000" pt_clust_4="88.40416" pt_clust_5="38.24248" pt_clust_6="32.97413"></scales>
<clustering>
<clus scale="   38.242">  2  5  1 -1</clus>
<clus scale="   32.974">  2  6  1 -1</clus>
<clus scale="   88.404">  2  4  1 -1</clus>
<clus scale="   88.404">  1  3  2 -1</clus>
</clustering>
</event>
<event>
 6    0  0.1438923E+002  0.1017783E+03  0.7546771E-02  0.1276600E+00
         21   -1    0    0  506  501  0.00000000000E+00  0.00000000000E+00  0.55913007509E+03  0.55913007509E+03  0.00000000000E+00 0. -1.
         21   -1    0    0  503  502 -0.00000000000E+00 -0.00000000000E+00 -0.10126570596E+03  0.10126570596E+03  0.00000000000E+00 0. -1.
         21    1    1    2  503  501  0.57188946901E+02 -0.33733144445E+02 -0.67754068255E+02  0.94863662416E+02  0.00000000000E+00 0. -1.
         21    1    1    2  504  502 -0.12363046009E+03  0.65514269683E+00  0.36306222766E+03  0.38353500626E+03  0.00000000000E+00 0. -1.
         21    1    1    2  505  504  0.35992437007E+02  0.15887912021E+02  0.47141785054E+02  0.61402191884E+02  0.00000000000E+00 0. -1.
         21    1    1    2  506  505  0.30449076183E+02  0.17190089727E+02  0.11541442467E+03  0.12059492049E+03  0.00000000000E+00 0. -1.
<scales pt_clust_3="66.39654" pt_clust_4="95.75497" pt_clust_5="32.51827" pt_clust_6="32.51827"></scales>
<clustering>
<clus scale="   32.518">  5  6 -1 -1</clus>
<clus scale="   66.397">  2  3  1 -1</clus>
<clus scale="   95.755">  2  4  1 -1</clus>
<clus scale="  101.778">  1  3  2 -1</clus>
</clustering>
</event>
<event>
 6    0  0.1438923E+002  0.1542816E+03  0.7546771E-02  0.1195308E+00
         21   -1    0    0  503  501  0.00000000000E+00  0.00000000000E+00  0.10978993348E+03  0.10978993348E+03  0.00000000000E+00 0.  1.
         21   -1    0    0  501  502 -0.00000000000E+00 -0.00000000000E+00 -0.13926960355E+04  0.13926960355E+04  0.00000000000E+00 0.  1.
         21    1    1    2  503  505  0.38953065779E+02  0.76601632988E+02  0.13885662758E+02  0.87051497059E+02  0.00000000000E+00 0.  1.
         21    1    1    2  504  502  0.52071433198E+02 -0.50692986710E+02 -0.11707853855E+04  0.11730386319E+04  0.00000000000E+00 0.  1.
         21    1    1    2  505  506  0.20437339956E+02  0.61878151244E+02 -0.41354458679E+02  0.77180189935E+02  0.00000000000E+00 0.  1.
         21    1    1    2  506  504 -0.11146183893E+03 -0.87786797522E+02 -0.84651920543E+02  0.16521565001E+03  0.00000000000E+00 0.  1.
<scales pt_clust_3="51.61774" pt_clust_4="72.67196" pt_clust_5="51.61774" pt_clust_6="142.44010"></scales>
<clustering>
<clus scale="   51.618">  3  5 -1 -1</clus>
<clus scale="   72.672">  2  4  1 -1</clus>
<clus scale="  142.440">  2  6  1 -1</clus>
<clus scale="  154.282">  1  3  2 -1</clus>
</clustering>
</event>
<event>
 6    0  0.1438923E+002  0.2218844E+03  0.7546771E-02  0.1132486E+00
         21   -1    0    0  504  501  0.00000000000E+00  0.00000000000E+00  0.24801963240E+03  0.24801963240E+03  0.00000000000E+00 0. -1.
         21   -1    0    0  505  502 -0.00000000000E+00 -0.00000000000E+00 -0.82927218694E+03  0.82927218694E+03  0.00000000000E+00 0. -1.
         21    1    1    2  503  501  0.43062834254E+02 -0.13348426117E+02  0.99930028276E+02  0.10962936981E+03  0.00000000000E+00 0. -1.
         21    1    1    2  504  502 -0.20210002775E+03  0.89308049300E+02 -0.74211348293E+03  0.77430792998E+03  0.00000000000E+00 0. -1.
         21    1    1    2  505  506  0.69220938648E+02 -0.56487927113E+02  0.14934474940E+02  0.90584009618E+02  0.00000000000E+00 0. -1.
         21    1    1    2  506  503  0.89816254851E+02 -0.19471696071E+02  0.45996425167E+02  0.10277050993E+03  0.00000000000E+00 0. -1.
<scales pt_clust_3="45.08423" pt_clust_4="215.92129" pt_clust_5="48.75415" pt_clust_6="48.75415"></scales>
<clustering>
<clus scale="   45.084">  1  3  2 -1</clus>
<clus scale="   48.754">  5  6 -1 -1</clus>
<clus scale="  215.921">  2  4  1 -1</clus>
<clus scale="   45.084">  1  3  2 -1</clus>
</clustering>
</event>
<event>
 6    0  0.1438923E+002  0.1361954E+03  0.7546771E-02  0.1218542E+00
         21   -1    0    0  502  501  0.00000000000E+00  0.00000000000E+00  0.83491111369E+02  0.83491111369E+02  0.00000000000E+00 0. -1.
         21   -1    0    0  503  502 -0.00000000000E+00 -0.00000000000E+00 -0.39307306917E+03  0.39307306917E+03  0.00000000000E+00 0. -1.
         21    1    1    2  503  506 -0.10155914507E+03  0.79590611396E+02 -0.23384368125E+03  0.26708012399E+03  0.00000000000E+00 0. -1.
         21    1    1    2  504  505  0.53718154070E+02 -0.49579756119E+02 -0.22071741898E+02  0.76360684151E+02  0.00000000000E+00 0. -1.
         21    1    1    2  505  501  0.20049289083E+02  0.40947105455E+02 -0.21477732556E+02  0.50397742347E+02  0.00000000000E+00 0. -1.
         21    1    1    2  506  504  0.27791701917E+02 -0.70957960732E+02 -0.32188802093E+02  0.82725630048E+02  0.00000000000E+00 0. -1.
<scales pt_clust_3="131.75029" pt_clust_4="33.80118" pt_clust_5="45.59210" pt_clust_6="33.80118"></scales>
<clustering>
<clus scale="   33.801">  4  6 -1 -1</clus>
<clus scale="   45.592">  1  5  2 -1</clus>
<clus scale="  131.750">  2  3  1 -1</clus>
<clus scale="   45.592">  1  3  2 -1</clus>
</clustering>
</event>
<event>
 6    0  0.1438923E+002  0.6815796E+02  0.7546771E-02  0.1366471E+00
         21   -1    0    0  505  501  0.00000000000E+00  0.00000000000E+00  0.33151545727E+03  0.33151545727E+03  0.00000000000E+00 0.  1.
         21   -1    0    0  504  502 -0.00000000000E+00 -0.00000000000E+00 -0.30842340760E+03  0.30842340760E+03  0.00000000000E+00 0.  1.
         21    1    1    2  503  502 -0.72220294310E+02  0.14907320415E+02 -0.23937081948E+03  0.25047233047E+03  0.00000000000E+00 0.  1.
         21    1    1    2  504  501 -0.72980681144E-01  0.60740804309E+02  0.21916122869E+03  0.22742272268E+03  0.00000000000E+00 0.  1.
         21    1    1    2  505  506  0.50757321394E+02 -0.45343250122E+01  0.66886537130E+02  0.84087303606E+02  0.00000000000E+00 0.  1.
         21    1    1    2  506  503  0.21535953596E+02 -0.71113799711E+02 -0.23584896666E+02  0.77956508115E+02  0.00000000000E+00 0.  1.
<scales pt_clust_3="68.15796" pt_clust_4="71.95707" pt_clust_5="50.95945" pt_clust_6="14000.00000"></scales>
<clustering>
<clus scale="   50.959">  1  5  2 -1</clus>
<clus scale="   71.957">  1  4  2 -1</clus>
<clus scale="   68.158">  2  3  1 -1</clus>
<clus scale="   50.959">  1  3  2 -1</clus>
</clustering>
</event>
<event>
 6    0  0.1438923E+002  0.1455221E+03  0.7546771E-02  0.1206086E+00
         21   -1    0    0  505  501  0.00000000000E+00  0.00000000000E+00  0.56944602989E+03  0.56944602989E+03  0.00000000000E+00 0.  1.
         21   -1    0    0  503  502 -0.00000000000E+00 -0.00000000000E+00 -0.16616564809E+03  0.16616564809E+03  0.00000000000E+00 0. -1.
         21    1    1    2  503  501 -0.30103563089E+02 -0.32778636569E+02  0.63788628087E+02  0.77779512721E+02  0.00000000000E+00 0.  1.
         21    1    1    2  504  502 -0.84387137223E+02 -0.10275493350E+03 -0.10948258521E+03  0.17223879282E+03  0.00000000000E+00 0. -1.
         21    1    1    2  505  506  0.69585493558E+02  0.11219963342E+03  0.35675878628E+03  0.38040469272E+03  0.00000000000E+00 0.  1.
         21    1    1    2  506  504  0.44905206755E+02  0.23333936642E+02  0.92215552638E+02  0.10518867972E+03  0.00000000000E+00 0. -1.
<scales pt_clust_3="44.50465" pt_clust_4="135.76152" pt_clust_5="32.44000" pt_clust_6="32.44000"></scales>
<clustering>
<clus scale="   32.440">  5  6 -1 -1</clus>
<clus scale="   44.505">  1  3  2 -1</clus>
<clus scale="  135.762">  2  4  1 -1</clus>
<clus scale="   44.505">  1  3  2 -1</clus>
</clustering>
</event>
<event>
 6    0  0.1438923E+002  0.2573976E+03  0.7546771E-02  0.1108717E+00
         21   -1    0    0  503  501  0.00000000000E+00  0.00000000000E+00  0.23986895180E+04  0.23986895180E+04  0.00000000000E+00 0.  1.
         21   -1    0    0  506  502 -0.00000000000E+00 -0.00000000000E+00 -0.43817131866E+03  0.43817131866E+03  0.00000000000E+00 0. -1.
         21    1    1    2  503  504 -0.52231119643E+02  0.19979407693E+02  0.67317980302E+03  0.67549856683E+03  0.00000000000E+00 0.  1.
         21    1    1    2  504  505 -0.19714609916E+03  0.52519024383E+02  0.14295996485E+04  0.14440844807E+04  0.00000000000E+00 0.  1.
         21    1    1    2  505  502  0.58131951788E+02  0.14161127703E+02 -0.38884047278E+03  0.39341679505E+03  0.00000000000E+00 0. -1.
         21    1    1    2  506  501  0.19124526702E+03 -0.86659559779E+02  0.24657922051E+03  0.32386099402E+03  0.00000000000E+00 0. -1.
<scales pt_clust_3="30.99916" pt_clust_4="30.99916" pt_clust_5="59.83194" pt_clust_6="250.49490"></scales>
<clustering>
<clus scale="   30.999">  3  4 -1 -1</clus>
<clus scale="   59.832">  2  5  1 -1</clus>
<clus scale="  250.495">  2  6  1 -1</clus>
<clus scale="  257.398">  1  3  2 -1</clus>
</clustering>
</event>
<event>
 6    0  0.1438923E+002  0.8401665E+02  0.7546771E-02  0.1318024E+00
         21   -1    0    0  502  501  0.00000000000E+00  0.00000000000E+00  0.36668723725E+03  0.36668723725E+03  0.00000000000E+00 0.  1.
         21   -1    0    0  505  502 -0.00000000000E+00 -0.00000000000E+00 -0.24767840606E+03  0.24767840606E+03  0.00000000000E+00 0.  1.
         21    1    1    2  503  504 -0.17428982229E+02 -0.60856833362E+02  0.82134756157E+02  0.10369880307E+03  0.00000000000E+00 0. -1.
         21    1    1    2  504  501 -0.21301335609E+02  0.43321033895E+02  0.17916043466E+03  0.18555031723E+03  0.00000000000E+00 0.  1.
         21    1    1    2  505  506  0.56931886608E+01 -0.82359054936E+02 -0.19181467250E+03  0.20882599195E+03  0.00000000000E+00 0.  1.
         21    1    1    2  506  503  0.33037129178E+02  0.99894854403E+02  0.49528312883E+02  0.11629053107E+03  0.00000000000E+00 0. -1.
<scales pt_clust_3="48.12376" pt_clust_4="48.27483" pt_clust_5="14000.00000" pt_clust_6="84.01665"></scales>
<clustering>
<clus scale="   48.275">  1  4  2 -1</clus>
<clus scale="   48.124">  1  3  2 -1</clus>
<clus scale="   84.017">  1  6  2 -1</clus>
<clus scale="   48.275">  1  3  2 -1</clus>
</clustering>
</event>
<event>
 6    0  0.1438923E+002  0.1638758E+03  0.7546771E-02  0.1184389E+00
         21   -1    0    0  505  501  0.00000000000E+00  0.00000000000E+00  0.10765472289E+04  0.10765472289E+04  0.00000000000E+00 0.  1.
         21   -1    0    0  506  502 -0.00000000000E+00 -0.00000000000E+00 -0.77301492203E+02  0.77301492203E+02  0.00000000000E+00 0.  1.
         21    1    1    2  503  502 -0.27168589767E+02  0.30314750342E+02 -0.13052502346E+02  0.42749083917E+02  0.00000000000E+00 0.  1.
         21    1    1    2  504  503 -0.56273790398E+02 -0.48782959915E+02  0.54063800227E+03  0.54574349851E+03  0.00000000000E+00 0.  1.
         21    1    1    2  505  504 -0.49334001725E+02 -0.68741315275E+02  0.36339533254E+03  0.37311577274E+03  0.00000000000E+00 0.  1.
         21    1    1    2  506  501  0.13277638189E+03  0.87209524848E+02  0.10826490424E+03  0.19224036596E+03  0.00000000000E+00 0.  1.
<scales pt_clust_3="40.70769" pt_clust_4="42.80779" pt_clust_5="42.80779" pt_clust_6="157.46156"></scales>
<clustering>
<clus scale="   40.708">  2  3  1 -1</clus>
<clus scale="   42.808">  4  5 -1 -1</clus>
<clus scale="  157.462">  2  6  1 -1</clus>
<clus scale="  163.876">  1  3  2 -1</clus>
</clustering>
</event>
<event>
 6    0  0.1438923E+002  0.1108914E+03  0.7546771E-02  0.1258928E+00
         21   -1    0    0  503  501  0.00000000000E+00  0.00000000000E+00  0.85988125560E+02  0.85988125560E+02  0.00000000000E+00 0.  1.
         21   -1    0    0  505  502 -0.00000000000E+00 -0.00000000000E+00 -0.29594000702E+03  0.29594000702E+03  0.00000000000E+00 0.  1.
         21    1    1    2  503  504  0.35305615540E+02 -0.70313839170E+02 -0.91624732015E+02  0.12077091531E+03  0.00000000000E+00 0.  1.
         21    1    1    2  504  502  0.28785491565E+02 -0.45841833945E+02 -0.97087687740E+01  0.54993985628E+02  0.00000000000E+00 0.  1.
         21    1    1    2  505  506 -0.17259061177E+02  0.44700209339E+02 -0.11078234683E+03  0.12070092078E+03  0.00000000000E+00 0.  1.
         21    1    1    2  506  501 -0.46832045928E+02  0.71455463777E+02  0.21639661562E+01  0.85462310868E+02  0.00000000000E+00 0.  1.
<scales pt_clust_3="45.61960" pt_clust_4="45.61960" pt_clust_5="47.91643" pt_clust_6="96.29071"></scales>
<clustering>
<clus scale="   45.620">  3  4 -1 -1</clus>
<clus scale="   47.916">  2  5  1 -1</clus>
<clus scale="   96.291">  1  6  2 -1</clus>
<clus scale="   96.291">  1  3  2 -1</clus>
</clustering>
</event>
<event>
 6    0  0.1438923E+002  0.7850560E+02  0.7546771E-02  0.1333347E+00
         21   -1    0    0  503  501  0.00000000000E+00  0.00000000000E+00  0.60525226149E+03  0.60525226149E+03  0.00000000000E+00 0. -1.
         21   -1    0    0  506  502 -0.00000000000E+00 -0.00000000000E+00 -0.11147155069E+03  0.11147155069E+03  0.00000000000E+00 0.  1.
         21    1    1    2  503  505  0.22648371057E+02  0.41554936730E+02  0.16430825516E+03  0.17098819898E+03  0.00000000000E+00 0. -1.
         21    1    1    2  504  501 -0.12007500320E+03 -0.13443354122E+03  0.31067509433E+03  0.35917878228E+03  0.00000000000E+00 0. -1.
         21    1    1    2  505  502  0.56585461207E+02  0.32474489306E+02  0.71346303595E+02  0.96678859697E+02  0.00000000000E+00 0.  1.
         21    1    1    2  506  504  0.40841170931E+02  0.60404115188E+02 -0.52548942289E+02  0.89877971218E+02  0.00000000000E+00 0.  1.
<scales pt_clust_3="47.32612" pt_clust_4="14000.00000" pt_clust_5="73.13885" pt_clust_6="78.50560"></scales>
<clustering>
<clus scale="   47.326">  1  3  2 -1</clus>
<clus scale="   73.139">  1  5  2 -1</clus>
<clus scale="   78.506">  2  6  1 -1</clus>
<clus scale="   47.326">  1  3  2 -1</clus>
</clustering>
</event>
<event>
 6    0  0.1438923E+002  0.1812538E+03  0.7546771E-02  0.1166595E+00
         21   -1    0    0  505  501  0.00000000000E+00  0.00000000000E+00  0.55615421598E+03  0.55615421598E+03  0.00000000000E+00 0.  1.
         21   -1    0    0  503  502 -0.00000000000E+00 -0.00000000000E+00 -0.81076323080E+02  0.81076323080E+02  0.00000000000E+00 0.  1.
         21    1    1    2  503  506  0.21068483504E+02 -0.42912071670E+02  0.93367187026E+01  0.48708327916E+02  0.00000000000E+00 0. -1.
         21    1    1    2  504  502 -0.10064236530E+03 -0.22225558657E+02  0.10816713812E+03  0.14940880469E+03  0.00000000000E+00 0.  1.
         21    1    1    2  505  504 -0.66808778105E+02 -0.33931203746E+02  0.13998976903E+03  0.15878247653E+03  0.00000000000E+00 0.  1.
         21    1    1    2  506  501  0.14638265990E+03  0.99068834074E+02  0.21758426704E+03  0.28033092992E+03  0.00000000000E+00 0.  1.
<scales pt_clust_3="47.80509" pt_clust_4="40.05241" pt_clust_5="40.05241" pt_clust_6="175.06113"></scales>
<clustering>
<clus scale="   40.052">  4  5 -1 -1</clus>
<clus scale="   47.805">  2  3  1 -1</clus>
<clus scale="  175.061">  2  6  1 -1</clus>
<clus scale="  181.254">  1  3  2 -1</clus>
</clustering>
</event>
<event>
 6    0  0.1438923E+002  0.1269684E+03  0.7546771E-02  0.1232025E+00
         21   -1    0    0  504  501  0.00000000000E+00  0.00000000000E+00  0.18092268167E+03  0.18092268167E+03  0.00000000000E+00 0.  1.
         21   -1    0    0  505  502 -0.00000000000E+00 -0.00000000000E+00 -0.15846011026E+03  0.15846011026E+03  0.00000000000E+00 0.  1.
         21    1    1    2  503  501 -0.75851360786E+02 -0.33965008605E+01  0.33356082963E+02  0.82931257207E+02  0.00000000000E+00 0.  1.
         21    1    1    2  504  502  0.25625152688E+02 -0.35928173969E+02 -0.63637556943E+02  0.77441725115E+02  0.00000000000E+00 0.  1.
         21    1    1    2  505  506  0.97492781599E+02 -0.25029086470E+01  0.12185814940E+01  0.97532517431E+02  0.00000000000E+00 0.  1.
         21    1    1    2  506  503 -0.47266573500E+02  0.41827583477E+02  0.51525463903E+02  0.81477292176E+02  0.00000000000E+00 0.  1.
<scales pt_clust_3="50.45660" pt_clust_4="44.13029" pt_clust_5="113.71303" pt_clust_6="50.45660"></scales>
<clustering>
<clus scale="   44.130">  2  4  1 -1</clus>
<clus scale="   50.457">  3  6 -1 -1</clus>
<clus scale="  113.713">  2  5  1 -1</clus>
<clus scale="  126.968">  1  3  2 -1</clus>
</clustering>
</event>
<event>
 6    0  0.1438923E+002  0.1814298E+03  0.7546771E-02  0.1166426E+00
         21   -1    0    0  503  501  0.00000000000E+00  0.00000000000E+00  0.95331755586E+03  0.95331755586E+03  0.00000000000E+00 0.  1.
         21   -1    0    0  506  502 -0.00000000000E+00 -0.00000000000E+00 -0.65976765567E+03  0.65976765567E+03  0.00000000000E+00 0. -1.
         21    1    1    2  503  505 -0.55446879325E+02 -0.49513571897E+02  0.32462947090E+03  0.33303189578E+03  0.00000000000E+00 0.  1.
         21    1    1    2  504  502  0.38041512130E+02  0.18176661004E+03 -0.11483626555E+03  0.21834290704E+03  0.00000000000E+00 0.  1.
         21    1    1    2  505  504 -0.17810529294E+02 -0.10418895535E+03  0.56680056818E+03  0.57657214420E+03  0.00000000000E+00 0.  1.
         21    1    1    2  506  501  0.35215896488E+02 -0.28064082794E+02 -0.48304387335E+03  0.48513826450E+03  0.00000000000E+00 0. -1.
<scales pt_clust_3="51.08501" pt_clust_4="170.80952" pt_clust_5="51.08501" pt_clust_6="45.03057"></scales>
<clustering>
<clus scale="   45.031">  2  6  1 -1</clus>
<clus scale="   51.085">  3  5 -1 -1</clus>
<clus scale="  170.810">  2  4  1 -1</clus>
<clus scale="  181.430">  1  3  2 -1</clus>
</clustering>
</event>
<event>
 6    0  0.1438923E+002  0.1002980E+03  0.7546771E-02  0.1279670E+00
         21   -1    0    0  503  501  0.00000000000E+00  0.00000000000E+00  0.77955881132E+02  0.77955881132E+02  0.00000000000E+00 0.  1.
         21   -1    0    0  504  502 -0.00000000000E+00 -0.00000000000E+00 -0.13183420492E+04  0.13183420492E+04  0.00000000000E+00 0.  1.
         21    1    1    2  503  506 -0.31282617263E+02  0.16518412340E+02  0.82588757067E+01  0.36327250336E+02  0.00000000000E+00 0.  1.
         21    1    1    2  504  501  0.78085356600E+01  0.95590770102E+02  0.44308287918E+01  0.96011461824E+02  0.00000000000E+00 0.  1.
         21    1    1    2  505  502  0.43445540780E+02 -0.47229433285E+02 -0.99620475473E+03  0.99826952660E+03  0.00000000000E+00 0.  1.
         21    1    1    2  506  505 -0.19971459177E+02 -0.64879749157E+02 -0.25687111788E+03  0.26568969162E+03  0.00000000000E+00 0.  1.
<scales pt_clust_3="35.37598" pt_clust_4="100.29805" pt_clust_5="63.55479" pt_clust_6="14000.00000"></scales>
<clustering>
<clus scale="   35.376">  1  3  2 -1</clus>
<clus scale="   63.555">  2  5  1 -1</clus>
<clus scale="  100.298">  1  4  2 -1</clus>
<clus scale="   35.376">  1  3  2 -1</clus>
</clustering>
</event>
<event>
 6    0  0.1438923E+002  0.2002630E+03  0.7546771E-02  0.1149517E+00
         21   -1    0    0  504  501  0.00000000000E+00  0.00000000000E+00  0.32125029807E+03  0.32125029807E+03  0.00000000000E+00 0.  1.
         21   -1    0    0  505  502 -0.00000000000E+00 -0.00000000000E+00 -0.58923300007E+03  0.58923300007E+03  0.00000000000E+00 0.  1.
         21    1    1    2  503  506 -0.10328891255E+03 -0.31906593073E+02 -0.93565783326E+02  0.14297267552E+03  0.00000000000E+00 0.  1.
         21    1    1    2  504  503  0.18190228570E+03  0.58196020850E+02  0.23396035489E+03  0.30201434741E+03  0.00000000000E+00 0.  1.
         21    1    1    2  505  501 -0.13488324017E+02  0.48133230602E+02 -0.34373265345E+03  0.34734835514E+03  0.00000000000E+00 0.  1.
         21    1    1    2  506  502 -0.65125049130E+02 -0.74422658379E+02 -0.64644620118E+02  0.11814792006E+03  0.00000000000E+00 0. -1.
<scales pt_clust_3="53.35758" pt_clust_4="191.36616" pt_clust_5="49.98743" pt_clust_6="53.35758"></scales>
<clustering>
<clus scale="   49.987">  2  5  1 -1</clus>
<clus scale="   53.358">  3  6 -1 -1</clus>
<clus scale="  191.366">  1  4  2 -1</clus>
<clus scale="  191.366">  1  3  2 -1</clus>
</clustering>
</event>
<event>
 6    0  0.1438923E+002  0.1485628E+03  0.7546771E-02  0.1202250E+00
         21   -1    0    0  506  501  0.00000000000E+00  0.00000000000E+00  0.25779425694E+03  0.25779425694E+03  0.00000000000E+00 0. -1.
         21   -1    0    0  504  502 -0.00000000000E+00 -0.00000000000E+00 -0.67078348765E+03  0.67078348765E+03  0.00000000000E+00 0.  1.
         21    1    1    2  503  502 -0.27605505159E+02 -0.24010576165E+02 -0.53993226145E+03  0.54117041552E+03  0.00000000000E+00 0.  1.
         21    1    1    2  504  505  0.19326932232E+02  0.52521878471E+02 -0.34756920237E+02  0.65879598754E+02  0.00000000000E+00 0.  1.
         21    1    1    2  505  501  0.43542735369E+02  0.10193318329E+03  0.57148612015E-01  0.11084379516E+03  0.00000000000E+00 0.  1.
         21    1    1    2  506  503 -0.35264162442E+02 -0.13044448560E+03  0.16164280236E+03  0.21068393515E+03  0.00000000000E+00 0. -1.
<scales pt_clust_3="36.58650" pt_clust_4="33.46534" pt_clust_5="33.46534" pt_clust_6="140.89992"></scales>
<clustering>
<clus scale="   33.465">  4  5 -1 -1</clus>
<clus scale="   36.586">  2  3  1 -1</clus>
<clus scale="  140.900">  1  6  2 -1</clus>
<clus scale="  140.900">  1  3  2 -1</clus>
</clustering>
</event>
<event>
 6    0  0.1438923E+002  0.1075742E+03  0.7546771E-02  0.1265129E+00
         21   -1    0    0  503  501  0.00000000000E+00  0.00000000000E+00  0.79731778177E+03  0.79731778177E+03  0.00000000000E+00 0.  1.
         21   -1    0    0  506  502 -0.00000000000E+00 -0.00000000000E+00 -0.73174202418E+02  0.73174202418E+02  0.00000000000E+00 0.  1.
         21    1    1    2  503  504 -0.32014229543E+00  0.48790833758E+02  0.25189057148E+03  0.25657261730E+03  0.00000000000E+00 0.  1.
         21    1    1    2  504  502 -0.20648158528E+02  0.46818497762E+02  0.15696159356E+03  0.16509167161E+03  0.00000000000E+00 0. -1.
         21    1    1    2  505  501 -0.62047733742E+02 -0.30975399822E+02  0.33472846704E+03  0.34183701278E+03  0.00000000000E+00 0.  1.
         21    1    1    2  506  505  0.83016034566E+02 -0.64633931698E+02 -0.19437052729E+02  0.10699068249E+03  0.00000000000E+00 0.  1.
<scales pt_clust_3="31.79023" pt_clust_4="31.79023" pt_clust_5="69.34981" pt_clust_6="102.52973"></scales>
<clustering>
<clus scale="   31.790">  3  4 -1 -1</clus>
<clus scale="   69.350">  1  5  2 -1</clus>
<clus scale="  102.530">  2  6  1 -1</clus>
<clus scale="   69.350">  1  3  2 -1</clus>
</clustering>
</event>
<event>
 6    0  0.1438923E+002  0.1820426E+03  0.7546771E-02  0.1165841E+00
         21   -1    0    0  505  501  0.00000000000E+00  0.00000000000E+00  0.27392408053E+03  0.27392408053E+03  0.00000000000E+00 0.  1.
         21   -1    0    0  504  502 -0.00000000000E+00 -0.00000000000E+00 -0.56772177438E+03  0.56772177438E+03  0.00000000000E+00 0. -1.
         21    1    1    2  503  501 -0.19184850018E+03  0.10724974423E+02  0.19777089768E+03  0.27574299641E+03  0.00000000000E+00 0.  1.
         21    1    1    2  504  503  0.80114164182E+01 -0.36607779048E+02 -0.22041206553E+03  0.22357502300E+03  0.00000000000E+00 0. -1.
         21    1    1    2  505  506  0.13951395098E+03  0.42834120057E+02 -0.13755893449E+03  0.20055264849E+03  0.00000000000E+00 0. -1.
         21    1    1    2  506  502  0.44323132786E+02 -0.16951315432E+02 -0.13359759151E+03  0.14177518701E+03  0.00000000000E+00 0.  1.
<scales pt_clust_3="182.04256" pt_clust_4="37.47415" pt_clust_5="14000.00000" pt_clust_6="57.02381"></scales>
<clustering>
<clus scale="   37.474">  2  4  1 -1</clus>
<clus scale="   57.024">  2  6  1 -1</clus>
<clus scale="  182.043">  1  3  2 -1</clus>
<clus scale="  182.043">  1  3  2 -1</clus>
</clustering>
</event>
<event>
 6    0  0.1438923E+002  0.1260682E+03  0.7546771E-02  0.1233409E+00
         21   -1    0    0  504  501  0.00000000000E+00  0.00000000000E+00  0.75702837218E+02  0.75702837218E+02  0.00000000000E+00 0. -1.
         21   -1    0    0  503  502 -0.00000000000E+00 -0.00000000000E+00 -0.80771016800E+03  0.80771016800E+03  0.00000000000E+00 0. -1.
         21    1    1    2  503  506 -0.11485951435E+03  0.20078979468E-01 -0.14916011509E+03  0.18825899281E+03  0.00000000000E+00 0. -1.
         21    1    1    2  504  505  0.52302079331E+02 -0.58453667396E+02 -0.11967570833E+03  0.14308953106E+03  0.00000000000E+00 0. -1.
         21    1    1    2  505  502  0.12697721619E+03  0.40439417319E+02 -0.46643608717E+03  0.48509914792E+03  0.00000000000E+00 0. -1.
         21    1    1    2  506  501 -0.64419781167E+02  0.17994171097E+02  0.32645798095E+01  0.66965333423E+02  0.00000000000E+00 0. -1.
<scales pt_clust_3="14000.00000" pt_clust_4="63.04068" pt_clust_5="126.06818" pt_clust_6="66.88571"></scales>
<clustering>
<clus scale="   66.886">  1  6  2 -1</clus>
<clus scale="   63.041">  1  4  2 -1</clus>
<clus scale="  126.068">  2  5  1 -1</clus>
<clus scale="   66.886">  1  3  2 -1</clus>
</clustering>
</event>
<event>
 6    0  0.1438923E+002  0.1189805E+03  0.7546771E-02  0.1244788E+00
         21   -1    0    0  505  501  0.00000000000E+00  0.00000000000E+00  0.21882110475E+04  0.21882110475E+04  0.00000000000E+00 0. -1.
         21   -1    0    0  504  502 -0.00000000000E+00 -0.00000000000E+00 -0.38999049472E+02  0.38999049472E+02  0.00000000000E+00 0. -1.
         21    1    1    2  503  501 -0.64540506878E+02 -0.11061081091E+03  0.14352837203E+04  0.14409856301E+04  0.00000000000E+00 0. -1.
         21    1    1    2  504  503  0.12835515933E+02  0.11838082478E+03  0.74485641748E+02  0.14045241533E+03  0.00000000000E+00 0. -1.
         21    1    1    2  505  506  0.18253186027E+02  0.32318951825E+02  0.22280322398E+03  0.22587379233E+03  0.00000000000E+00 0. -1.
         21    1    1    2  506  502  0.33451804919E+02 -0.40088965693E+02  0.41663941207E+03  0.41989825924E+03  0.00000000000E+00 0.  1.
<scales pt_clust_3="14000.00000" pt_clust_4="118.98052" pt_clust_5="37.11729" pt_clust_6="49.96843"></scales>
<clustering>
<clus scale="   37.117">  1  5  2 -1</clus>
<clus scale="   49.968">  1  6  2 -1</clus>
<clus scale="  118.981">  2  4  1 -1</clus>
<clus scale="   37.117">  1  3  2 -1</clus>
</clustering>
</event>
<event>
 6    0  0.1438923E+002  0.3857639E+03  0.7546771E-02  0.1048824E+00
         21   -1    0    0  505  501  0.00000000000E+00  0.00000000000E+00  0.30766151358E+03  0.30766151358E+03  0.00000000000E+00 0.  1.
         21   -1    0    0  501  502 -0.00000000000E+00 -0.00000000000E+00 -0.14195976942E+04  0.14195976942E+04  0.00000000000E+00 0.  1.
         21    1    1    2  503  506 -0.10023081156E+02 -0.71955193786E+02  0.55769045708E+01  0.72863666756E+02  0.00000000000E+00 0.  1.
         21    1    1    2  504  502  0.67003617250E+02  0.38328969774E+03 -0.11312960228E+04  0.11963407409E+04  0.00000000000E+00 0.  1.
         21    1    1    2  505  503  0.12681720219E+03 -0.10967731560E+03  0.66117130531E+02  0.18023093874E+03  0.00000000000E+00 0.  1.
         21    1    1    2  506  504 -0.18379773828E+03 -0.20165718835E+03 -0.52334192915E+02  0.27782386139E+03  0.00000000000E+00 0.  1.
<scales pt_clust_3="47.19489" pt_clust_4="374.76466" pt_clust_5="167.66549" pt_clust_6="47.19489"></scales>
<clustering>
<clus scale="   47.195">  3  6 -1 -1</clus>
<clus scale="  167.665">  1  5  2 -1</clus>
<clus scale="  374.765">  2  4  1 -1</clus>
<clus scale="  167.665">  1  3  2 -1</clus>
</clustering>
</event>
<event>
 6    0  0.1438923E+002  0.1831905E+03  0.7546771E-02  0.1164750E+00
         21   -1    0    0  503  501  0.00000000000E+00  0.00000000000E+00  0.18317208707E+03  0.18317208707E+03  0.00000000000E+00 0.  1.
         21   -1    0    0  504  502 -0.00000000000E+00 -0.00000000000E+00 -0.69195173955E+03  0.69195173955E+03  0.00000000000E+00 0.  1.
         21    1    1    2  503  505  0.83814140181E+02  0.11640247881E+03 -0.10001136579E+03  0.17486171809E+03  0.00000000000E+00 0.  1.
         21    1    1    2  504  506 -0.87077358522E+02 -0.21687877560E+03 -0.89032223732E+02  0.25009119643E+03  0.00000000000E+00 0.  1.
         21    1    1    2  505  502  0.13690028162E+02  0.60233122682E+02 -0.37553896732E+03  0.38058502587E+03  0.00000000000E+00 0.  1.
         21    1    1    2  506  501 -0.10426809821E+02  0.40243174109E+02  0.55802904364E+02  0.69585886219E+02  0.00000000000E+00 0.  1.
<scales pt_clust_3="183.19052" pt_clust_4="14000.00000" pt_clust_5="62.54399" pt_clust_6="41.57200"></scales>
<clustering>
<clus scale="   41.572">  1  6  2 -1</clus>
<clus scale="   62.544">  2  5  1 -1</clus>
<clus scale="  183.191">  2  3  1 -1</clus>
<clus scale="   41.572">  1  3  2 -1</clus>
</clustering>
</event>
<event>
 6    0  0.1438923E+002  0.1504644E+03  0.7546771E-02  0.1199904E+00
         21   -1    0    0  506  501  0.00000000000E+00  0.00000000000E+00  0.69324887816E+02  0.69324887816E+02  0.00000000000E+00 0. -1.
         21   -1    0    0  503  502 -0.00000000000E+00 -0.00000000000E+00 -0.64422036273E+03  0.64422036273E+03  0.00000000000E+00 0. -1.
         21    1    1    2  503  501  0.45891622780E+02 -0.60883887558E+02 -0.16707574489E+02  0.78051469242E+02  0.00000000000E+00 0. -1.
         21    1    1    2  504  502  0.11075017137E+03  0.69603991980E+02 -0.29069890078E+03  0.31877290831E+03  0.00000000000E+00 0. -1.
         21    1    1    2  505  504 -0.12224237074E+03 -0.17031179676E+02 -0.24624529738E+03  0.27544510300E+03  0.00000000000E+00 0. -1.
         21    1    1    2  506  505 -0.34399423409E+02  0.83110752531E+01 -0.21243702266E+02  0.41275769996E+02  0.00000000000E+00 0. -1.
<scales pt_clust_3="76.24230" pt_clust_4="135.97968" pt_clust_5="34.49147" pt_clust_6="34.49147"></scales>
<clustering>
<clus scale="   34.491">  5  6 -1 -1</clus>
<clus scale="   76.242">  1  3  2 -1</clus>
<clus scale="  135.980">  2  4  1 -1</clus>
<clus scale="   76.242">  1  3  2 -1</clus>
</clustering>
</event>
<event>
 6    0  0.1438923E+002  0.5294612E+03  0.7546771E-02  0.1006363E+00
         21   -1    0    0  504  501  0.00000000000E+00  0.00000000000E+00  0.57242383050E+03  0.57242383050E+03  0.00000000000E+00 0. -1.
         21   -1    0    0  506  502 -0.00000000000E+00 -0.00000000000E+00 -0.98381102576E+03  0.98381102576E+03  0.00000000000E+00 0.  1.
         21    1    1    2  503  502  0.14923650819E+03 -0.52239371821E+03 -0.69872501140E+03  0.88508947218E+03  0.00000000000E+00 0.  1.
         21    1    1    2  504  505 -0.17037604091E+03  0.43824113783E+03  0.30544739965E+03  0.56069724821E+03  0.00000000000E+00 0. -1.
         21    1    1    2  505  503  0.14393027515E+02  0.51891098358E+02  0.22314450591E+02  0.58290479798E+02  0.00000000000E+00 0.  1.
         21    1    1    2  506  501  0.67465052018E+01  0.32261482018E+02 -0.40424034093E+02  0.52157656071E+02  0.00000000000E+00 0. -1.
<scales pt_clust_3="518.81740" pt_clust_4="35.81284" pt_clust_5="35.81284" pt_clust_6="32.95935"></scales>
<clustering>
<clus scale="   32.959">  2  6  1 -1</clus>
<clus scale="   35.813">  4  5 -1 -1</clus>
<clus scale="  518.817">  2  3  1 -1</clus>
<clus scale="  529.461">  1  3  2 -1</clus>
</clustering>
</event>
<event>
 6    0  0.1438923E+002  0.2323463E+03  0.7546771E-02  0.1124999E+00
         21   -1    0    0  505  501  0.00000000000E+00  0.00000000000E+00  0.15260463338E+03  0.15260463338E+03  0.00000000000E+00 0.  1.
         21   -1    0    0  506  502 -0.00000000000E+00 -0.00000000000E+00 -0.11289510677E+04  0.11289510677E+04  0.00000000000E+00 0.  1.
         21    1    1    2  503  501  0.10836484989E+03 -0.57823337298E+02  0.24953353863E+02  0.12533614362E+03  0.00000000000E+00 0.  1.
         21    1    1    2  504  502 -0.48124584809E+02 -0.10019638464E+03 -0.15745783881E+03  0.19273884445E+03  0.00000000000E+00 0.  1.
         21    1    1    2  505  504 -0.16755941687E+03  0.15073758002E+03 -0.82378514704E+03  0.85406085538E+03  0.00000000000E+00 0.  1.
         21    1    1    2  506  503  0.10731915178E+03  0.72821419145E+01 -0.20056802370E+02  0.10941985766E+03  0.00000000000E+00 0.  1.
<scales pt_clust_3="72.56287" pt_clust_4="111.15436" pt_clust_5="219.02604" pt_clust_6="72.56287"></scales>
<clustering>
<clus scale="   72.563">  3  6 -1 -1</clus>
<clus scale="  111.154">  2  4  1 -1</clus>
<clus scale="  219.026">  2  5  1 -1</clus>
<clus scale="  232.346">  1  3  2 -1</clus>
</clustering>
</event>
<event>
 6    0  0.1438923E+002  0.1337879E+03  0.7546771E-02  0.1221941E+00
         21   -1    0    0  506  501  0.00000000000E+00  0.00000000000E+00  0.28857916767E+03  0.28857916767E+03  0.00000000000E+00 0.  1.
         21   -1    0    0  504  502 -0.00000000000E+00 -0.00000000000E+00 -0.11994953832E+04  0.11994953832E+04  0.00000000000E+00 0. -1.
         21    1    1    2  503  502 -0.89111435925E+02 -0.99848219398E+02 -0.11377707217E+04  0.11456145644E+04  0.00000000000E+00 0. -1.
         21    1    1    2  504  501  0.14571956683E+03  0.46509078374E+02  0.84614151538E+02  0.17480515201E+03  0.00000000000E+00 0.  1.
         21    1    1    2  505  503 -0.44025698733E+02  0.22037729831E+02  0.11202424261E+03  0.12236565947E+03  0.00000000000E+00 0.  1.
         21    1    1    2  506  505 -0.12582432171E+02  0.31301411193E+02  0.30216112059E+02  0.45289174975E+02  0.00000000000E+00 0.  1.
<scales pt_clust_3="133.78793" pt_clust_4="14000.00000" pt_clust_5="61.92446" pt_clust_6="33.73568"></scales>
<clustering>
<clus scale="   33.736">  1  6  2 -1</clus>
<clus scale="   61.924">  1  5  2 -1</clus>
<clus scale="  133.788">  2  3  1 -1</clus>
<clus scale="   33.736">  1  3  2 -1</clus>
</clustering>
</event>
<event>
 6    0  0.1438923E+002  0.6741280E+02  0.7546771E-02  0.1369119E+00
         21   -1    0    0  505  501  0.00000000000E+00  0.00000000000E+00  0.50107084094E+03  0.50107084094E+03  0.00000000000E+00 0. -1.
         21   -1    0    0  504  502 -0.00000000000E+00 -0.00000000000E+00 -0.45756058643E+03  0.45756058643E+03  0.00000000000E+00 0. -1.
         21    1    1    2  503  501 -0.32882207512E+02  0.85900602354E+02  0.39856775283E+03  0.40904328213E+03  0.00000000000E+00 0. -1.
         21    1    1    2  504  503  0.67510896200E+02  0.49026009894E+01 -0.41314852120E+03  0.41865672952E+03  0.00000000000E+00 0. -1.
         21    1    1    2  505  506 -0.38456315704E+02 -0.32569959961E+02  0.26951470886E+01  0.50467359028E+02  0.00000000000E+00 0. -1.
         21    1    1    2  506  502  0.38276270155E+01 -0.58233243382E+02  0.55395875798E+02  0.80464056689E+02  0.00000000000E+00 0.  1.
<scales pt_clust_3="67.41280" pt_clust_4="14000.00000" pt_clust_5="50.39534" pt_clust_6="62.91848"></scales>
<clustering>
<clus scale="   50.395">  1  5  2 -1</clus>
<clus scale="   62.918">  1  6  2 -1</clus>
<clus scale="   67.413">  1  3  2 -1</clus>
<clus scale="   50.395">  1  3  2 -1</clus>
</clustering>
</event>
<event>
 6    0  0.1438923E+002  0.1545065E+03  0.7546771E-02  0.1195042E+00
         21   -1    0    0  504  501  0.00000000000E+00  0.00000000000E+00  0.35461177890E+03  0.35461177890E+03  0.00000000000E+00 0.  1.
         21   -1    0    0  503  502 -0.00000000000E+00 -0.00000000000E+00 -0.54158956708E+03  0.54158956708E+03  0.00000000000E+00 0.  1.
         21    1    1    2  503  505 -0.11183157165E+03 -0.90656127453E+02 -0.34024009080E+03  0.36944303113E+03  0.00000000000E+00 0.  1.
         21    1    1    2  504  506 -0.70054372583E+02  0.74709845213E+01  0.52205677523E+02  0.87686164778E+02  0.00000000000E+00 0.  1.
         21    1    1    2  505  501  0.23282974949E+03  0.19376629365E+03  0.93811480190E+02  0.31710512866E+03  0.00000000000E+00 0.  1.
         21    1    1    2  506  502 -0.50943805260E+02 -0.11058115072E+03  0.72451449118E+01  0.12196702142E+03  0.00000000000E+00 0.  1.
<scales pt_clust_3="14000.00000" pt_clust_4="70.45162" pt_clust_5="154.50645" pt_clust_6="127.76559"></scales>
<clustering>
<clus scale="   70.452">  1  4  2 -1</clus>
<clus scale="  127.766">  1  6  2 -1</clus>
<clus scale="  154.506">  1  5  2 -1</clus>
<clus scale="   70.452">  1  3  2 -1</clus>
</clustering>
</event>
<event>
 6    0  0.1438923E+002  0.6320811E+02  0.7546771E-02  0.1384841E+00
         21   -1    0    0  503  501  0.00000000000E+00  0.00000000000E+00  0.89253889828E+02  0.89253889828E+02  0.00000000000E+00 0.  1.
         21   -1    0    0  505  502 -0.00000000000E+00 -0.00000000000E+00 -0.35757124577E+04  0.35757124577E+04  0.00000000000E+00 0. -1.
         21    1    1    2  503  504  0.45300731887E+02 -0.19672288018E+02  0.23289850896E+02  0.54603776244E+02  0.00000000000E+00 0.  1.
         21    1    1    2  504  506  0.49092256928E+02  0.68270628939E+02 -0.26963875355E+02  0.88306166490E+02  0.00000000000E+00 0.  1.
         21    1    1    2  505  501 -0.59875084938E+02  0.41196922900E+01 -0.27191898148E+02  0.65889278231E+02  0.00000000000E+00 0.  1.
         21    1    1    2  506  502 -0.34517903877E+02 -0.52718033211E+02 -0.34555926453E+04  0.34561671266E+04  0.00000000000E+00 0. -1.
<scales pt_clust_3="49.38780" pt_clust_4="14000.00000" pt_clust_5="42.59157" pt_clust_6="63.20811"></scales>
<clustering>
<clus scale="   49.388">  1  3  2 -1</clus>
<clus scale="   42.592">  1  5  2 -1</clus>
<clus scale="   63.208">  2  6  1 -1</clus>
<clus scale="   49.388">  1  3  2 -1</clus>
</clustering>
</event>
<event>
 6    0  0.1438923E+002  0.1545279E+03  0.7546771E-02  0.1195017E+00
         21   -1    0    0  505  501  0.00000000000E+00  0.00000000000E+00  0.12025939998E+03  0.12025939998E+03  0.00000000000E+00 0. -1.
         21   -1    0    0  504  502 -0.00000000000E+00 -0.00000000000E+00 -0.57694722548E+03  0.57694722548E+03  0.00000000000E+00 0. -1.
         21    1    1    2  503  501 -0.26135127799E+02  0.11123550287E+03 -0.35663677934E+02  0.11970079334E+03  0.00000000000E+00 0. -1.
         21    1    1    2  504  506 -0.34100934391E+02 -0.87843634684E+02 -0.35350329303E+03  0.36584690250E+03  0.00000000000E+00 0. -1.
         21    1    1    2  505  502  0.11470228124E+03 -0.56267225361E+02 -0.14006183767E+02  0.12852543388E+03  0.00000000000E+00 0. -1.
         21    1    1    2  506  503 -0.54466219050E+02  0.32875357180E+02 -0.53514670763E+02  0.83133495742E+02  0.00000000000E+00 0. -1.
<scales pt_clust_3="57.43298" pt_clust_4="94.23045" pt_clust_5="133.99411" pt_clust_6="57.43298"></scales>
<clustering>
<clus scale="   57.433">  3  6 -1 -1</clus>
<clus scale="   94.230">  2  4  1 -1</clus>
<clus scale="  133.994">  1  5  2 -1</clus>
<clus scale="  133.994">  1  3  2 -1</clus>
</clustering>
</event>
<event>
 6    0  0.1438923E+002  0.1321104E+03  0.7546771E-02  0.1224357E+00
         21   -1    0    0  504  501  0.00000000000E+00  0.00000000000E+00  0.35591663674E+03  0.35591663674E+03  0.00000000000E+00 0. -1.
         21   -1    0    0  505  502 -0.00000000000E+00 -0.00000000000E+00 -0.67297090557E+03  0.67297090557E+03  0.00000000000E+00 0. -1.
         21    1    1    2  503  501  0.11402441338E+02 -0.75616715298E+02  0.18339923694E+03  0.19870375791E+03  0.00000000000E+00 0. -1.
         21    1    1    2  504  502 -0.86126553349E+02 -0.21230736928E+02  0.31069161934E+02  0.93988404634E+02  0.00000000000E+00 0.  1.
         21    1    1    2  505  506  0.38766400396E+02  0.11729320220E+03 -0.62335467396E+03  0.63547744148E+03  0.00000000000E+00 0. -1.
         21    1    1    2  506  503  0.35957711615E+02 -0.20445749977E+02  0.91832006263E+02  0.10071793828E+03  0.00000000000E+00 0. -1.
<scales pt_clust_3="36.25573" pt_clust_4="88.70472" pt_clust_5="122.56848" pt_clust_6="36.25573"></scales>
<clustering>
<clus scale="   36.256">  3  6 -1 -1</clus>
<clus scale="   88.705">  1  4  2 -1</clus>
<clus scale="  122.568">  2  5  1 -1</clus>
<clus scale="   88.705">  1  3  2 -1</clus>
</clustering>
</event>
<event>
 6    0  0.1438923E+002  0.1082730E+03  0.7546771E-02  0.1263802E+00
         21   -1    0    0  506  501  0.00000000000E+00  0.00000000000E+00  0.13651590792E+03  0.13651590792E+03  0.00000000000E+00 0. -1.
         21   -1    0    0  505  502 -0.00000000000E+00 -0.00000000000E+00 -0.39836174448E+03  0.39836174448E+03  0.00000000000E+00 0. -1.
         21    1    1    2  503  504 -0.43449617012E+02 -0.23616408607E+02 -0.20178190284E+03  0.20775355662E+03  0.00000000000E+00 0. -1.
         21    1    1    2  504  501 -0.33990123172E+02 -0.42325061024E+02  0.19902284422E+02  0.57817300085E+02  0.00000000000E+00 0. -1.
         21    1    1    2  505  503 -0.41496120599E+02 -0.27363326486E+02 -0.10491551597E+03  0.11609455264E+03  0.00000000000E+00 0. -1.
         21    1    1    2  506  502  0.11893586078E+03  0.93304796117E+02  0.24949297835E+02  0.15321224305E+03  0.00000000000E+00 0. -1.
<scales pt_clust_3="31.53560" pt_clust_4="54.28388" pt_clust_5="31.53560" pt_clust_6="103.55414"></scales>
<clustering>
<clus scale="   31.536">  3  5 -1 -1</clus>
<clus scale="   54.284">  1  4  2 -1</clus>
<clus scale="  103.554">  1  6  2 -1</clus>
<clus scale="   54.284">  1  3  2 -1</clus>
</clustering>
</event>
<event>
 6    0  0.1438923E+002  0.1735849E+03  0.7546771E-02  0.1174160E+00
         21   -1    0    0  503  501  0.00000000000E+00  0.00000000000E+00  0.37252324092E+03  0.37252324092E+03  0.00000000000E+00 0.  1.
         21   -1    0    0  504  502 -0.00000000000E+00 -0.00000000000E+00 -0.14059509983E+03  0.14059509983E+03  0.00000000000E+00 0.  1.
         21    1    1    2  503  506 -0.75850513824E+02 -0.42469313931E+02  0.11893598053E+03  0.14731839851E+03  0.00000000000E+00 0.  1.
         21    1    1    2  504  501  0.17216260971E+03  0.11014824449E+03  0.10566930996E+03  0.23008390429E+03  0.00000000000E+00 0.  1.
         21    1    1    2  505  502 -0.58701681755E+02 -0.19820554977E+02 -0.24983965954E+02  0.66805242274E+02  0.00000000000E+00 0.  1.
         21    1    1    2  506  505 -0.37610414126E+02 -0.47858375586E+02  0.32306816552E+02  0.68910795672E+02  0.00000000000E+00 0.  1.
<scales pt_clust_3="44.65760" pt_clust_4="165.17726" pt_clust_5="61.95758" pt_clust_6="44.65760"></scales>
<clustering>
<clus scale="   44.658">  3  6 -1 -1</clus>
<clus scale="   61.958">  2  5  1 -1</clus>
<clus scale="  165.177">  2  4  1 -1</clus>
<clus scale="  173.585">  1  3  2 -1</clus>
</clustering>
</event>
<event>
 6    0  0.1438923E+002  0.1186224E+03  0.7546771E-02  0.1245387E+00
         21   -1    0    0  502  501  0.00000000000E+00  0.00000000000E+00  0.90789288264E+02  0.90789288264E+02  0.00000000000E+00 0. -1.
         21   -1    0    0  505  502 -0.00000000000E+00 -0.00000000000E+00 -0.49399287161E+03  0.49399287161E+03  0.00000000000E+00 0. -1.
         21    1    1    2  503  501  0.81149539277E+02  0.49346414325E+02 -0.12741307513E+02  0.95826182480E+02  0.00000000000E+00 0. -1.
         21    1    1    2  504  506 -0.84694395790E+02 -0.37838719329E+02 -0.47725933716E+02  0.10432005612E+03  0.00000000000E+00 0. -1.
         21    1    1    2  505  504 -0.31294340899E+02 -0.18437454390E+01 -0.34683573525E+03  0.34824956915E+03  0.00000000000E+00 0. -1.
         21    1    1    2  506  503  0.34839197413E+02 -0.96639495568E+01  0.40993931264E+01  0.36386352131E+02  0.00000000000E+00 0. -1.
<scales pt_clust_3="30.08339" pt_clust_4="108.13827" pt_clust_5="31.34861" pt_clust_6="30.08339"></scales>
<clustering>
<clus scale="   30.083">  3  6 -1 -1</clus>
<clus scale="   31.349">  2  5  1 -1</clus>
<clus scale="  108.138">  2  4  1 -1</clus>
<clus scale="  118.622">  1  3  2 -1</clus>
</clustering>
</event>
<event>
 6    0  0.1438923E+002  0.1408202E+03  0.7546771E-02  0.1212230E+00
         21   -1    0    0  505  501  0.00000000000E+00  0.00000000000E+00  0.79382699785E+03  0.79382699785E+03  0.00000000000E+00 0.  1.
         21   -1    0    0  503  502 -0.00000000000E+00 -0.00000000000E+00 -0.14603941248E+04  0.14603941248E+04  0.00000000000E+00 0. -1.
         21    1    1    2  503  504  0.29891070123E+02 -0.13124979265E+03 -0.14237391443E+04  0.14300885060E+04  0.00000000000E+00 0. -1.
         21    1    1    2  504  501 -0.51721027301E+02 -0.53750287150E+02  0.45544464994E+02  0.87398262714E+02  0.00000000000E+00 0.  1.
         21    1    1    2  505  506  0.31304980326E+02  0.91601811618E+02  0.36536191695E+03  0.37796854902E+03  0.00000000000E+00 0.  1.
         21    1    1    2  506  502 -0.94750231479E+01  0.93398268182E+02  0.34626563535E+03  0.35876580493E+03  0.00000000000E+00 0.  1.
<scales pt_clust_3="134.78938" pt_clust_4="74.59328" pt_clust_5="40.14875" pt_clust_6="40.14875"></scales>
<clustering>
<clus scale="   40.149">  5  6 -1 -1</clus>
<clus scale="   74.593">  1  4  2 -1</clus>
<clus scale="  134.789">  2  3  1 -1</clus>
<clus scale="   74.593">  1  3  2 -1</clus>
</clustering>
</event>
<event>
 6    0  0.1438923E+002  0.1645233E+03  0.7546771E-02  0.1183683E+00
         21   -1    0    0  505  501  0.00000000000E+00  0.00000000000E+00  0.80903246727E+02  0.80903246727E+02  0.00000000000E+00 0.  1.
         21   -1    0    0  503  502 -0.00000000000E+00 -0.00000000000E+00 -0.31335312575E+04  0.31335312575E+04  0.00000000000E+00 0.  1.
         21    1    1    2  503  501  0.12742986663E+03 -0.11912136112E+03 -0.69502451844E+03  0.71658031707E+03  0.00000000000E+00 0.  1.
         21    1    1    2  504  506 -0.87537775803E+02 -0.65190712382E+02 -0.71029460676E+03  0.71863142122E+03  0.00000000000E+00 0.  1.
         21    1    1    2  505  504 -0.10340543733E+03  0.12635546834E+03 -0.38024715297E+02  0.16764327551E+03  0.00000000000E+00 0.  1.
         21    1    1    2  506  502  0.63513346496E+02  0.57956605157E+02 -0.16092841703E+04  0.16115794904E+04  0.00000000000E+00 0.  1.
<scales pt_clust_3="164.52334" pt_clust_4="69.12855" pt_clust_5="14000.00000" pt_clust_6="85.98205"></scales>
<clustering>
<clus scale="   85.982">  2  6  1 -1</clus>
<clus scale="   69.129">  2  4  1 -1</clus>
<clus scale="  164.523">  2  3  1 -1</clus>
<clus scale="  164.523">  1  3  2 -1</clus>
</clustering>
</event>
<event>
 6    0  0.1438923E+002  0.1938290E+03  0.7546771E-02  0.1155052E+00
         21   -1    0    0  504  501  0.00000000000E+00  0.00000000000E+00  0.22927769925E+02  0.22927769925E+02  0.00000000000E+00 0. -1.
         21   -1    0    0  503  502 -0.00000000000E+00 -0.00000000000E+00 -0.19922455569E+04  0.19922455569E+04  0.00000000000E+00 0. -1.
         21    1    1    2  503  505  0.49319147638E+02 -0.63906454722E+02 -0.77712493860E+03  0.78130633139E+03  0.00000000000E+00 0. -1.
         21    1    1    2  504  506 -0.41080141384E+02  0.12677385594E+03 -0.31459200946E+03  0.34165380282E+03  0.00000000000E+00 0. -1.
         21    1    1    2  505  501  0.19401826823E+02 -0.10622353831E+03 -0.64706771060E+03  0.65601561953E+03  0.00000000000E+00 0.  1.
         21    1    1    2  506  502 -0.27640833077E+02  0.43356137087E+02 -0.23053312831E+03  0.23619757307E+03  0.00000000000E+00 0. -1.
<scales pt_clust_3="54.01601" pt_clust_4="191.70497" pt_clust_5="54.01601" pt_clust_6="34.49515"></scales>
<clustering>
<clus scale="   34.495">  4  6 -1 -1</clus>
<clus scale="   54.016">  3  5 -1 -1</clus>
<clus scale="  191.705">  1  4  2 -1</clus>
<clus scale="  191.705">  1  3  2 -1</clus>
</clustering>
</event>
<event>
 6    0  0.1438923E+002  0.1008541E+03  0.7546771E-02  0.1278510E+00
         21   -1    0    0  506  501  0.00000000000E+00  0.00000000000E+00  0.13180756184E+04  0.13180756184E+04  0.00000000000E+00 0.  1.
         21   -1    0    0  505  502 -0.00000000000E+00 -0.00000000000E+00 -0.28347403715E+03  0.28347403715E+03  0.00000000000E+00 0. -1.
         21    1    1    2  503  501 -0.56611525659E+02 -0.23368438359E+01  0.51490529673E+03  0.51801331091E+03  0.00000000000E+00 0.  1.
         21    1    1    2  504  502  0.48929685534E+02 -0.85623035883E+01 -0.25940982075E+03  0.26412285451E+03  0.00000000000E+00 0. -1.
         21    1    1    2  505  503  0.11372461995E+03 -0.44392245037E+02  0.51848098981E+03  0.53265983272E+03  0.00000000000E+00 0.  1.
         21    1    1    2  506  504 -0.10604277983E+03  0.55291392461E+02  0.26062511549E+03  0.28675365744E+03  0.00000000000E+00 0. -1.
<scales pt_clust_3="53.19061" pt_clust_4="49.67320" pt_clust_5="14000.00000" pt_clust_6="100.85412"></scales>
<clustering>
<clus scale="   49.673">  2  4  1 -1</clus>
<clus scale="   53.191">  1  3  2 -1</clus>
<clus scale="  100.854">  2  6  1 -1</clus>
<clus scale="   53.191">  1  3  2 -1</clus>
</clustering>
</event>
<event>
 6    0  0.1438923E+002  0.1372131E+03  0.7546771E-02  0.1217129E+00
         21   -1    0    0  504  501  0.00000000000E+00  0.00000000000E+00  0.17050187622E+03  0.17050187622E+03  0.00000000000E+00 0. -1.
         21   -1    0    0  506  502 -0.00000000000E+00 -0.00000000000E+00 -0.13211123376E+04  0.13211123376E+04  0.00000000000E+00 0. -1.
         21    1    1    2  503  505 -0.91542879763E+02  0.51168428877E+02 -0.43820555164E+01  0.10496432422E+03  0.00000000000E+00 0. -1.
         21    1    1    2  504  503  0.19651389905E+02  0.75200457192E+02  0.84355768389E+02  0.11470475817E+03  0.00000000000E+00 0. -1.
         21    1    1    2  505  502  0.18445706733E+02  0.46468084308E+02 -0.84012230192E+03  0.84160858429E+03  0.00000000000E+00 0. -1.
         21    1    1    2  506  501  0.53445783125E+02 -0.17283697038E+03 -0.39046187238E+03  0.43033654719E+03  0.00000000000E+00 0.  1.
<scales pt_clust_3="137.21313" pt_clust_4="79.29386" pt_clust_5="49.99527" pt_clust_6="14000.00000"></scales>
<clustering>
<clus scale="   49.995">  2  5  1 -1</clus>
<clus scale="   79.294">  1  4  2 -1</clus>
<clus scale="  137.213">  1  3  2 -1</clus>
<clus scale="   79.294">  1  3  2 -1</clus>
</clustering>
</event>
<event>
 6    0  0.1438923E+002  0.1295129E+03  0.7546771E-02  0.1228180E+00
         21   -1    0    0  503  501  0.00000000000E+00  0.00000000000E+00  0.22419595139E+03  0.22419595139E+03  0.00000000000E+00 0.  1.
         21   -1    0    0  504  502 -0.00000000000E+00 -0.00000000000E+00 -0.45544042641E+03  0.45544042641E+03  0.00000000000E+00 0.  1.
         21    1    1    2  503  502  0.23340354185E+02 -0.29922750181E+02  0.11508066190E+02  0.39655752411E+02  0.00000000000E+00 0.  1.
         21    1    1    2  504  506 -0.13503261967E+03 -0.33436493676E+02 -0.38040829778E+03  0.40504602270E+03  0.00000000000E+00 0.  1.
         21    1    1    2  505  501  0.38203888588E+02 -0.18721921604E+01  0.13097331333E+03  0.13644431469E+03  0.00000000000E+00 0.  1.
         21    1    1    2  506  505  0.73488376895E+02  0.65231436017E+02  0.66824432348E+01  0.98490288004E+02  0.00000000000E+00 0. -1.
<scales pt_clust_3="37.94922" pt_clust_4="129.51294" pt_clust_5="58.23873" pt_clust_6="14000.00000"></scales>
<clustering>
<clus scale="   37.949">  1  3  2 -1</clus>
<clus scale="   58.239">  1  5  2 -1</clus>
<clus scale="  129.513">  2  4  1 -1</clus>
<clus scale="   37.949">  1  3  2 -1</clus>
</clustering>
</event>
<event>
 6    0  0.1438923E+002  0.9811339E+02  0.7546771E-02  0.1284314E+00
         21   -1    0    0  506  501  0.00000000000E+00  0.00000000000E+00  0.32987964557E+03  0.32987964557E+03  0.00000000000E+00 0. -1.
         21   -1    0    0  503  502 -0.00000000000E+00 -0.00000000000E+00 -0.99589795306E+02  0.99589795306E+02  0.00000000000E+00 0. -1.
         21    1    1    2  503  504 -0.56917239713E+02  0.99859112085E+02 -0.68995542508E+01  0.11514781062E+03  0.00000000000E+00 0. -1.
         21    1    1    2  504  501  0.33241678699E+02  0.20806159337E+02  0.25527158410E+02  0.46792534507E+02  0.00000000000E+00 0. -1.
         21    1    1    2  505  502 -0.34773882960E+02 -0.83545277227E+02  0.90522557074E+02  0.12799753756E+03  0.00000000000E+00 0. -1.
         21    1    1    2  506  505  0.58449443975E+02 -0.37119994194E+02  0.12113968903E+03  0.13953155818E+03  0.00000000000E+00 0. -1.
<scales pt_clust_3="14000.00000" pt_clust_4="39.21614" pt_clust_5="98.11339" pt_clust_6="78.33244"></scales>
<clustering>
<clus scale="   39.216">  1  4  2 -1</clus>
<clus scale="   78.332">  1  6  2 -1</clus>
<clus scale="   98.113">  1  5  2 -1</clus>
<clus scale="   39.216">  1  3  2 -1</clus>
</clustering>
</event>
<event>
 6    0  0.1438923E+002  0.1353145E+03  0.7546771E-02  0.1219776E+00
         21   -1    0    0  506  501  0.00000000000E+00  0.00000000000E+00  0.13107210482E+04  0.13107210482E+04  0.00000000000E+00 0. -1.
         21   -1    0    0  501  502 -0.00000000000E+00 -0.00000000000E+00 -0.14044456627E+03  0.14044456627E+03  0.00000000000E+00 0.  1.
         21    1    1    2  503  504  0.39598098766E+02 -0.65036972736E+02  0.28812894750E+02  0.81412530685E+02  0.00000000000E+00 0.  1.
         21    1    1    2  504  505  0.17394280276E+02 -0.63467587675E+02 -0.45367185773E+02  0.79930452373E+02  0.00000000000E+00 0.  1.
         21    1    1    2  505  502  0.31125081412E+02  0.13386258825E+02 -0.41155810281E+02  0.53308192035E+02  0.00000000000E+00 0.  1.
         21    1    1    2  506  503 -0.88117460454E+02  0.11511830159E+03  0.12279865832E+04  0.12365144393E+04  0.00000000000E+00 0. -1.
<scales pt_clust_3="135.31447" pt_clust_4="66.59566" pt_clust_5="33.88160" pt_clust_6="14000.00000"></scales>
<clustering>
<clus scale="   33.882">  2  5  1 -1</clus>
<clus scale="   66.596">  2  4  1 -1</clus>
<clus scale="  135.314">  2  3  1 -1</clus>
<clus scale="  135.314">  1  3  2 -1</clus>
</clustering>
</event>
<event>
 6    0  0.1438923E+002  0.3056089E+03  0.7546771E-02  0.1082470E+00
         21   -1    0    0  504  501  0.00000000000E+00  0.00000000000E+00  0.31896984144E+04  0.31896984144E+04  0.00000000000E+00 0. -1.
         21   -1    0    0  503  502 -0.00000000000E+00 -0.00000000000E+00 -0.13551832235E+03  0.13551832235E+03  0.00000000000E+00 0. -1.
         21    1    1    2  503  505  0.44073080988E+02 -0.11366860038E+03  0.99197306535E+03  0.99943661608E+03  0.00000000000E+00 0. -1.
         21    1    1    2  504  502 -0.39491089869E+02  0.27922112372E+03  0.27712595756E+02  0.28335837746E+03  0.00000000000E+00 0. -1.
         21    1    1    2  505  506  0.19438436906E+01 -0.87163156579E+02  0.66804500493E+03  0.67371011793E+03  0.00000000000E+00 0. -1.
         21    1    1    2  506  501 -0.65258348099E+01 -0.78389366765E+02  0.13664494260E+04  0.13687116252E+04  0.00000000000E+00 0. -1.
<scales pt_clust_3="66.43098" pt_clust_4="281.99997" pt_clust_5="30.59650" pt_clust_6="66.43098"></scales>
<clustering>
<clus scale="   30.596">  3  5 -1 -1</clus>
<clus scale="   66.431">  3  6 -1 -1</clus>
<clus scale="  282.000">  2  4  1 -1</clus>
<clus scale="  305.609">  1  3  2 -1</clus>
</clustering>
</event>
<event>
 6    0  0.2286255E+002  0.1397888E+03  0.7546771E-02  0.1213613E+00
         21   -1    0    0  503  501  0.00000000000E+00  0.00000000000E+00  0.36201225068E+03  0.36201225068E+03  0.00000000000E+00 0.  1.
         21   -1    0    0  506  502 -0.00000000000E+00 -0.00000000000E+00 -0.57892222354E+03  0.57892222354E+03  0.00000000000E+00 0. -1.
         21    1    1    2  503  504  0.66636412329E+01 -0.53406372648E+02  0.83184217406E+02  0.99077034571E+02  0.00000000000E+00 0.  1.
         21    1    1    2  504  505 -0.10535787759E+01 -0.80344644280E+02  0.24843712295E+03  0.26110797757E+03  0.00000000000E+00 0.  1.
         21    1    1    2  505  502 -0.10245123680E+02  0.31552583828E+02 -0.13156525880E+02  0.35687844971E+02  0.00000000000E+00 0. -1.
         21    1    1    2  506  501  0.46350612230E+01  0.10219843310E+03 -0.53537478734E+03  0.54506161710E+03  0.00000000000E+00 0. -1.
<scales pt_clust_3="35.02944" pt_clust_4="35.02944" pt_clust_5="33.17421" pt_clust_6="133.04580"></scales>
<clustering>
<clus scale="   33.174">  2  5  1 -1</clus>
<clus scale="   35.029">  3  4 -1 -1</clus>
<clus scale="  133.046">  2  6  1 -1</clus>
<clus scale="  139.789">  1  3  2 -1</clus>
</clustering>
</event>
<event>
 6    0  0.1438923E+002  0.1995615E+03  0.7546771E-02  0.1150109E+00
         21   -1    0    0  502  501  0.00000000000E+00  0.00000000000E+00  0.49152995527E+02  0.49152995527E+02  0.00000000000E+00 0. -1.
         21   -1    0    0  506  502 -0.00000000000E+00 -0.00000000000E+00 -0.20709513069E+04  0.20709513069E+04  0.00000000000E+00 0. -1.
         21    1    1    2  503  501 -0.54024932384E+02  0.93536905135E+02 -0.11333414764E+03  0.15656460316E+03  0.00000000000E+00 0. -1.
         21    1    1    2  504  505  0.76254295024E+02 -0.14169234342E+03 -0.65312182581E+03  0.67265114067E+03  0.00000000000E+00 0. -1.
         21    1    1    2  505  503  0.27198144945E+01  0.10408565373E+03 -0.14315188941E+03  0.17701323155E+03  0.00000000000E+00 0. -1.
         21    1    1    2  506  504 -0.24949177134E+02 -0.55930215439E+02 -0.11121904485E+04  0.11138753271E+04  0.00000000000E+00 0. -1.
<scales pt_clust_3="60.53952" pt_clust_4="189.79625" pt_clust_5="60.53952" pt_clust_6="61.24255"></scales>
<clustering>
<clus scale="   60.540">  3  5 -1 -1</clus>
<clus scale="   61.243">  2  6  1 -1</clus>
<clus scale="  189.796">  2  4  1 -1</clus>
<clus scale="  199.562">  1  3  2 -1</clus>
</clustering>
</event>
<event>
 6    0  0.1438923E+002  0.1847206E+03  0.7546771E-02  0.1163311E+00
         21   -1    0    0  504  501  0.00000000000E+00  0.00000000000E+00  0.14850896205E+03  0.14850896205E+03  0.00000000000E+00 0.  1.
         21   -1    0    0  503  502 -0.00000000000E+00 -0.00000000000E+00 -0.28950570097E+03  0.28950570097E+03  0.00000000000E+00 0.  1.
         21    1    1    2  503  505  0.12542763489E+02  0.33690642957E+02 -0.51955892826E+02  0.63180654778E+02  0.00000000000E+00 0.  1.
         21    1    1    2  504  502  0.10838111737E+03 -0.15185963056E+03 -0.50008514997E+02  0.19315451216E+03  0.00000000000E+00 0.  1.
         21    1    1    2  505  506 -0.10448956504E+03  0.76690431714E+02 -0.43791382039E+02  0.13681073298E+03  0.00000000000E+00 0.  1.
         21    1    1    2  506  501 -0.16434315820E+02  0.41478555893E+02  0.47590509358E+01  0.44868763090E+02  0.00000000000E+00 0.  1.
<scales pt_clust_3="35.94969" pt_clust_4="176.70388" pt_clust_5="31.58097" pt_clust_6="31.58097"></scales>
<clustering>
<clus scale="   31.581">  5  6 -1 -1</clus>
<clus scale="   35.950">  2  3  1 -1</clus>
<clus scale="  176.704">  2  4  1 -1</clus>
<clus scale="  184.721">  1  3  2 -1</clus>
</clustering>
</event>
<event>
 6    0  0.1438923E+002  0.2391984E+03  0.7546771E-02  0.1120328E+00
         21   -1    0    0  504  501  0.00000000000E+00  0.00000000000E+00  0.30081304699E+03  0.30081304699E+03  0.00000000000E+00 0. -1.
         21   -1    0    0  505  502 -0.00000000000E+00 -0.00000000000E+00 -0.57751770549E+03  0.57751770549E+03  0.00000000000E+00 0. -1.
         21    1    1    2  503  501 -0.49449470237E+02  0.23909011450E+02 -0.63249198647E+02  0.83769636890E+02  0.00000000000E+00 0.  1.
         21    1    1    2  504  502  0.14270535418E+03 -0.17491966382E+03  0.19426815781E+03  0.29782851449E+03  0.00000000000E+00 0. -1.
         21    1    1    2  505  506  0.59696237997E+01 -0.32400024963E+02 -0.19892942401E+03  0.20163906805E+03  0.00000000000E+00 0. -1.
         21    1    1    2  506  503 -0.99225507743E+02  0.18341067734E+03 -0.20879419365E+03  0.29509353305E+03  0.00000000000E+00 0. -1.
<scales pt_clust_3="34.87987" pt_clust_4="229.72130" pt_clust_5="32.94538" pt_clust_6="34.87987"></scales>
<clustering>
<clus scale="   32.945">  2  5  1 -1</clus>
<clus scale="   34.880">  3  6 -1 -1</clus>
<clus scale="  229.721">  1  4  2 -1</clus>
<clus scale="  229.721">  1  3  2 -1</clus>
</clustering>
</event>
<event>
 6    0  0.1438923E+002  0.1057357E+03  0.7546771E-02  0.1268677E+00
         21   -1    0    0  503  501  0.00000000000E+00  0.00000000000E+00  0.43878941305E+03  0.43878941305E+03  0.00000000000E+00 0.  1.
         21   -1    0    0  506  502 -0.00000000000E+00 -0.00000000000E+00 -0.21092183625E+03  0.21092183625E+03  0.00000000000E+00 0.  1.
         21    1    1    2  503  505  0.10149178070E+02  0.99251685347E+02  0.30729859932E+03  0.32308873704E+03  0.00000000000E+00 0.  1.
         21    1    1    2  504  501  0.36526309451E+02  0.39670917791E+01  0.83433167572E+02  0.91164700133E+02  0.00000000000E+00 0. -1.
         21    1    1    2  505  502 -0.27653698894E+02 -0.18855376384E+02 -0.14281272934E+03  0.14668240502E+03  0.00000000000E+00 0.  1.
         21    1    1    2  506  504 -0.19021788627E+02 -0.84363400741E+02 -0.20051460756E+02  0.88775407099E+02  0.00000000000E+00 0.  1.
<scales pt_clust_3="105.73566" pt_clust_4="35.02825" pt_clust_5="33.47017" pt_clust_6="14000.00000"></scales>
<clustering>
<clus scale="   33.470">  2  5  1 -1</clus>
<clus scale="   35.028">  1  4  2 -1</clus>
<clus scale="  105.736">  1  3  2 -1</clus>
<clus scale="   35.028">  1  3  2 -1</clus>
</clustering>
</event>
<event>
 6    0  0.1438923E+002  0.1136214E+03  0.7546771E-02  0.1254007E+00
         21   -1    0    0  504  501  0.00000000000E+00  0.00000000000E+00  0.23171193037E+04  0.23171193037E+04  0.00000000000E+00 0. -1.
         21   -1    0    0  506  502 -0.00000000000E+00 -0.00000000000E+00 -0.18938966393E+03  0.18938966393E+03  0.00000000000E+00 0. -1.
         21    1    1    2  503  501 -0.53906583377E+02 -0.48240527697E+02  0.84605189635E+03  0.84913890475E+03  0.00000000000E+00 0. -1.
         21    1    1    2  504  502 -0.85639590991E+02  0.54241843010E+02 -0.17009104546E+03  0.19800828474E+03  0.00000000000E+00 0. -1.
         21    1    1    2  505  503  0.75711979188E+02 -0.27080163126E+02  0.87566989822E+03  0.87935397291E+03  0.00000000000E+00 0. -1.
         21    1    1    2  506  505  0.63834195180E+02  0.21078847813E+02  0.57609889063E+03  0.58000780519E+03  0.00000000000E+00 0. -1.
<scales pt_clust_3="72.33995" pt_clust_4="101.56171" pt_clust_5="46.57813" pt_clust_6="46.57813"></scales>
<clustering>
<clus scale="   46.578">  5  6 -1 -1</clus>
<clus scale="   72.340">  1  3  2 -1</clus>
<clus scale="  101.562">  2  4  1 -1</clus>
<clus scale="   72.340">  1  3  2 -1</clus>
</clustering>
</event>
<event>
 6    0  0.1438923E+002  0.9491236E+02  0.7546771E-02  0.1291374E+00
         21   -1    0    0  505  501  0.00000000000E+00  0.00000000000E+00  0.61446758011E+02  0.61446758011E+02  0.00000000000E+00 0. -1.
         21   -1    0    0  506  502 -0.00000000000E+00 -0.00000000000E+00 -0.22459899267E+04  0.22459899267E+04  0.00000000000E+00 0.  1.
         21    1    1    2  503  501 -0.44698809906E+02  0.10419285327E+03 -0.48557043403E+02  0.12333661559E+03  0.00000000000E+00 0. -1.
         21    1    1    2  504  503  0.73218712522E+02 -0.38459992583E+02 -0.92383841305E+02  0.12399566536E+03  0.00000000000E+00 0. -1.
         21    1    1    2  505  502 -0.39533386650E+02 -0.10956439315E+02 -0.45664361671E+02  0.61385390358E+02  0.00000000000E+00 0. -1.
         21    1    1    2  506  504  0.11013484034E+02 -0.54776421375E+02 -0.19979379223E+04  0.19987190134E+04  0.00000000000E+00 0.  1.
<scales pt_clust_3="94.91236" pt_clust_4="14000.00000" pt_clust_5="41.02356" pt_clust_6="55.89494"></scales>
<clustering>
<clus scale="   41.024">  1  5  2 -1</clus>
<clus scale="   55.895">  2  6  1 -1</clus>
<clus scale="   94.912">  1  3  2 -1</clus>
<clus scale="   41.024">  1  3  2 -1</clus>
</clustering>
</event>
<event>
 6    0  0.1438923E+002  0.1326927E+03  0.7546771E-02  0.1223514E+00
         21   -1    0    0  505  501  0.00000000000E+00  0.00000000000E+00  0.14471359656E+03  0.14471359656E+03  0.00000000000E+00 0. -1.
         21   -1    0    0  503  502 -0.00000000000E+00 -0.00000000000E+00 -0.45419997078E+03  0.45419997078E+03  0.00000000000E+00 0. -1.
         21    1    1    2  503  506 -0.22548383044E+02 -0.37975285287E+02 -0.31226449360E+03  0.31537226548E+03  0.00000000000E+00 0. -1.
         21    1    1    2  504  501  0.22851804508E+02 -0.28391086410E+02 -0.40276300181E+02  0.54317944670E+02  0.00000000000E+00 0. -1.
         21    1    1    2  505  502  0.75816938744E+01  0.13494283053E+03  0.73421398050E+02  0.15381076453E+03  0.00000000000E+00 0. -1.
         21    1    1    2  506  504 -0.78851153382E+01 -0.68576458831E+02 -0.30366978488E+02  0.75412592663E+02  0.00000000000E+00 0. -1.
<scales pt_clust_3="44.16505" pt_clust_4="34.18074" pt_clust_5="124.07468" pt_clust_6="34.18074"></scales>
<clustering>
<clus scale="   34.181">  4  6 -1 -1</clus>
<clus scale="   44.165">  2  3  1 -1</clus>
<clus scale="  124.075">  1  5  2 -1</clus>
<clus scale="  124.075">  1  3  2 -1</clus>
</clustering>
</event>
<event>
 6    0  0.1438923E+002  0.1605823E+03  0.7546771E-02  0.1188041E+00
         21   -1    0    0  505  501  0.00000000000E+00  0.00000000000E+00  0.26688394831E+02  0.26688394831E+02  0.00000000000E+00 0. -1.
         21   -1    0    0  506  502 -0.00000000000E+00 -0.00000000000E+00 -0.26152001754E+04  0.26152001754E+04  0.00000000000E+00 0. -1.
         21    1    1    2  503  502  0.55145566003E+01 -0.13890065582E+03 -0.95940242395E+03  0.96942086505E+03  0.00000000000E+00 0. -1.
         21    1    1    2  504  503  0.49185797934E+02 -0.19658092141E+02 -0.14968220672E+03  0.15877797805E+03  0.00000000000E+00 0. -1.
         21    1    1    2  505  504  0.99400154382E+02  0.30076870665E+02 -0.30367073073E+03  0.32093756643E+03  0.00000000000E+00 0. -1.
         21    1    1    2  506  501 -0.15410050892E+03  0.12848187730E+03 -0.11757564191E+04  0.11927521607E+04  0.00000000000E+00 0. -1.
<scales pt_clust_3="139.01008" pt_clust_4="35.07305" pt_clust_5="35.07305" pt_clust_6="152.88848"></scales>
<clustering>
<clus scale="   35.073">  4  5 -1 -1</clus>
<clus scale="  139.010">  2  3  1 -1</clus>
<clus scale="  152.888">  2  6  1 -1</clus>
<clus scale="  160.582">  1  3  2 -1</clus>
</clustering>
</event>
<event>
 6    0  0.1438923E+002  0.1518964E+03  0.7546771E-02  0.1198162E+00
         21   -1    0    0  506  501  0.00000000000E+00  0.00000000000E+00  0.96273108465E+02  0.96273108465E+02  0.00000000000E+00 0.  1.
         21   -1    0    0  503  502 -0.00000000000E+00 -0.00000000000E+00 -0.11617720234E+04  0.11617720234E+04  0.00000000000E+00 0.  1.
         21    1    1    2  503  505 -0.12310291192E+02 -0.27718484403E+02 -0.57445906961E+03  0.57525914186E+03  0.00000000000E+00 0.  1.
         21    1    1    2  504  501  0.54197135779E+02  0.14258825286E+03 -0.67505474458E+01  0.15269023960E+03  0.00000000000E+00 0.  1.
         21    1    1    2  505  504 -0.10815968846E+02 -0.15430621959E+03 -0.28167354708E+03  0.32135242603E+03  0.00000000000E+00 0.  1.
         21    1    1    2  506  502 -0.31070875741E+02  0.39436451135E+02 -0.20261575079E+03  0.20874332436E+03  0.00000000000E+00 0.  1.
<scales pt_clust_3="30.32916" pt_clust_4="14000.00000" pt_clust_5="151.89642" pt_clust_6="46.21182"></scales>
<clustering>
<clus scale="   30.329">  2  3  1 -1</clus>
<clus scale="   46.212">  2  6  1 -1</clus>
<clus scale="  151.896">  2  5  1 -1</clus>
<clus scale="  151.896">  1  3  2 -1</clus>
</clustering>
</event>
<event>
 6    0  0.1606642E+002  0.8512321E+02  0.7546771E-02  0.1315111E+00
         21   -1    0    0  506  501  0.00000000000E+00  0.00000000000E+00  0.61101573253E+03  0.61101573253E+03  0.00000000000E+00 0. -1.
         21   -1    0    0  505  502 -0.00000000000E+00 -0.00000000000E+00 -0.79719121606E+03  0.79719121606E+03  0.00000000000E+00 0.  1.
         21    1    1    2  503  504  0.81160305449E+02 -0.12795789342E+02 -0.43856455097E+02  0.93134934687E+02  0.00000000000E+00 0.  1.
         21    1    1    2  504  502  0.15780036831E+02  0.50202807856E+02 -0.70975264964E+03  0.71170088883E+03  0.00000000000E+00 0.  1.
         21    1    1    2  505  501 -0.29221392337E+02 -0.63841302414E+02  0.49772955700E+03  0.50265725258E+03  0.00000000000E+00 0. -1.
         21    1    1    2  506  503 -0.67718949943E+02  0.26434283900E+02  0.69704064203E+02  0.10071387250E+03  0.00000000000E+00 0. -1.
<scales pt_clust_3="14000.00000" pt_clust_4="52.62444" pt_clust_5="68.72346" pt_clust_6="85.12321"></scales>
<clustering>
<clus scale="   52.624">  2  4  1 -1</clus>
<clus scale="   68.723">  1  5  2 -1</clus>
<clus scale="   85.123">  1  6  2 -1</clus>
<clus scale="   68.723">  1  3  2 -1</clus>
</clustering>
</event>
<event>
 6    0  0.1438923E+002  0.1744981E+03  0.7546771E-02  0.1173237E+00
         21   -1    0    0  506  501  0.00000000000E+00  0.00000000000E+00  0.38871930508E+03  0.38871930508E+03  0.00000000000E+00 0. -1.
         21   -1    0    0  505  502 -0.00000000000E+00 -0.00000000000E+00 -0.14778431060E+03  0.14778431060E+03  0.00000000000E+00 0. -1.
         21    1    1    2  503  504  0.42350637595E+02 -0.10052710588E+03  0.14802756591E+03  0.18387886173E+03  0.00000000000E+00 0. -1.
         21    1    1    2  504  501  0.54484067110E+02 -0.23986902713E+02  0.74359766322E+02  0.95253660917E+02  0.00000000000E+00 0. -1.
         21    1    1    2  505  503  0.58741181895E+02  0.12785004523E+02  0.26430075797E+02  0.65669869024E+02  0.00000000000E+00 0.  1.
         21    1    1    2  506  502 -0.15557588660E+03  0.11172900407E+03 -0.78824135449E+01  0.19170122401E+03  0.00000000000E+00 0. -1.
<scales pt_clust_3="44.18944" pt_clust_4="44.18944" pt_clust_5="60.11641" pt_clust_6="163.92513"></scales>
<clustering>
<clus scale="   44.189">  3  4 -1 -1</clus>
<clus scale="   60.116">  2  5  1 -1</clus>
<clus scale="  163.925">  2  6  1 -1</clus>
<clus scale="  174.498">  1  3  2 -1</clus>
</clustering>
</event>
<event>
 6    0  0.1438923E+002  0.9497159E+02  0.7546771E-02  0.1291240E+00
         21   -1    0    0  505  501  0.00000000000E+00  0.00000000000E+00  0.25435605741E+02  0.25435605741E+02  0.00000000000E+00 0.  1.
         21   -1    0    0  503  502 -0.00000000000E+00 -0.00000000000E+00 -0.15306653964E+04  0.15306653964E+04  0.00000000000E+00 0.  1.
         21    1    1    2  503  501 -0.10221197695E+03 -0.14862444071E+02 -0.10115607023E+04  0.10168201586E+04  0.00000000000E+00 0.  1.
         21    1    1    2  504  506  0.49780491116E+02 -0.75412835094E+01 -0.16611906155E+03  0.17358142430E+03  0.00000000000E+00 0.  1.
         21    1    1    2  505  504 -0.81079856898E+01 -0.43678985146E+02 -0.26806169101E+02  0.51886066311E+02  0.00000000000E+00 0.  1.
         21    1    1    2  506  502  0.60539471520E+02  0.66082712726E+02 -0.30074385772E+03  0.31381335295E+03  0.00000000000E+00 0.  1.
<scales pt_clust_3="14000.00000" pt_clust_4="51.54840" pt_clust_5="44.42514" pt_clust_6="94.97159"></scales>
<clustering>
<clus scale="   44.425">  1  5  2 -1</clus>
<clus scale="   51.548">  1  4  2 -1</clus>
<clus scale="   94.972">  1  6  2 -1</clus>
<clus scale="   44.425">  1  3  2 -1</clus>
</clustering>
</event>
<event>
 6    0  0.1438923E+002  0.1767599E+03  0.7546771E-02  0.1170976E+00
         21   -1    0    0  504  501  0.00000000000E+00  0.00000000000E+00  0.65256134214E+02  0.65256134214E+02  0.00000000000E+00 0.  1.
         21   -1    0    0  506  502 -0.00000000000E+00 -0.00000000000E+00 -0.21912307147E+04  0.21912307147E+04  0.00000000000E+00 0. -1.
         21    1    1    2  503  501  0.26464159455E+02 -0.42051433318E+02 -0.17076681218E+03  0.17784819066E+03  0.00000000000E+00 0. -1.
         21    1    1    2  504  505  0.75033599512E+02  0.16327638735E+03 -0.10268629841E+03  0.20696302955E+03  0.00000000000E+00 0.  1.
         21    1    1    2  505  502 -0.14014778812E+03 -0.10902212174E+03 -0.85060195419E+03  0.86893665477E+03  0.00000000000E+00 0. -1.
         21    1    1    2  506  503  0.38650029158E+02 -0.12202832288E+02 -0.10019195157E+04  0.10027389740E+04  0.00000000000E+00 0. -1.
<scales pt_clust_3="54.35416" pt_clust_4="14000.00000" pt_clust_5="176.75986" pt_clust_6="40.53065"></scales>
<clustering>
<clus scale="   40.531">  2  6  1 -1</clus>
<clus scale="   54.354">  2  3  1 -1</clus>
<clus scale="  176.760">  2  5  1 -1</clus>
<clus scale="  176.760">  1  3  2 -1</clus>
</clustering>
</event>
<event>
 6    0  0.1438923E+002  0.1692788E+03  0.7546771E-02  0.1178602E+00
         21   -1    0    0  503  501  0.00000000000E+00  0.00000000000E+00  0.36030362828E+03  0.36030362828E+03  0.00000000000E+00 0. -1.
         21   -1    0    0  504  502 -0.00000000000E+00 -0.00000000000E+00 -0.36115524251E+03  0.36115524251E+03  0.00000000000E+00 0.  1.
         21    1    1    2  503  505 -0.51383551773E+02 -0.16547812095E+02  0.18607690469E+03  0.19374910048E+03  0.00000000000E+00 0. -1.
         21    1    1    2  504  501  0.10779103741E+03  0.90866474128E+02 -0.32583720020E+03  0.35502887897E+03  0.00000000000E+00 0.  1.
         21    1    1    2  505  506 -0.15583451862E+02 -0.49644460681E+02  0.92490569232E+02  0.10612220241E+03  0.00000000000E+00 0. -1.
         21    1    1    2  506  502 -0.40824033774E+02 -0.24674201352E+02  0.46418112048E+02  0.66558688930E+02  0.00000000000E+00 0.  1.
<scales pt_clust_3="53.18809" pt_clust_4="140.98093" pt_clust_5="53.18809" pt_clust_6="40.82475"></scales>
<clustering>
<clus scale="   40.825">  5  6 -1 -1</clus>
<clus scale="   53.188">  3  5 -1 -1</clus>
<clus scale="  140.981">  2  4  1 -1</clus>
<clus scale="  169.279">  1  3  2 -1</clus>
</clustering>
</event>
<event>
 6    0  0.1438923E+002  0.1432119E+03  0.7546771E-02  0.1209071E+00
         21   -1    0    0  504  501  0.00000000000E+00  0.00000000000E+00  0.64691255426E+03  0.64691255426E+03  0.00000000000E+00 0. -1.
         21   -1    0    0  503  502 -0.00000000000E+00 -0.00000000000E+00 -0.10952359290E+03  0.10952359290E+03  0.00000000000E+00 0. -1.
         21    1    1    2  503  501  0.14369164929E+01  0.31716686559E+02  0.21846309408E+02  0.38539254923E+02  0.00000000000E+00 0. -1.
         21    1    1    2  504  505 -0.25121688906E+02 -0.81354001744E+02  0.41696823121E+03  0.42557264796E+03  0.00000000000E+00 0. -1.
         21    1    1    2  505  506 -0.48330104797E+01 -0.55788356572E+02  0.15825287041E+03  0.16786801278E+03  0.00000000000E+00 0. -1.
         21    1    1    2  506  502  0.28517782893E+02  0.10542567176E+03 -0.59678449669E+02  0.12445623151E+03  0.00000000000E+00 0. -1.
<scales pt_clust_3="31.74922" pt_clust_4="32.11822" pt_clust_5="32.11822" pt_clust_6="137.55891"></scales>
<clustering>
<clus scale="   31.749">  2  3  1 -1</clus>
<clus scale="   32.118">  4  5 -1 -1</clus>
<clus scale="  137.559">  2  6  1 -1</clus>
<clus scale="  143.212">  1  3  2 -1</clus>
</clustering>
</event>
<event>
 6    0  0.1438923E+002  0.1076113E+03  0.7546771E-02  0.1265058E+00
         21   -1    0    0  505  501  0.00000000000E+00  0.00000000000E+00  0.72675289296E+02  0.72675289296E+02  0.00000000000E+00 0. -1.
         21   -1    0    0  504  502 -0.00000000000E+00 -0.00000000000E+00 -0.43718677453E+03  0.43718677453E+03  0.00000000000E+00 0. -1.
         21    1    1    2  503  506 -0.43461524763E+02  0.43820084492E+02 -0.12324960857E+03  0.13783892756E+03  0.00000000000E+00 0. -1.
         21    1    1    2  504  501  0.85149384529E+02 -0.42739404343E+01 -0.20994551095E+02  0.87803504646E+02  0.00000000000E+00 0. -1.
         21    1    1    2  505  503 -0.26434834986E+02 -0.93128513879E+02 -0.58459320469E+02  0.11308940157E+03  0.00000000000E+00 0. -1.
         21    1    1    2  506  502 -0.15253024780E+02  0.53582369821E+02 -0.16180800511E+03  0.17113023005E+03  0.00000000000E+00 0. -1.
<scales pt_clust_3="33.85125" pt_clust_4="85.25658" pt_clust_5="101.54174" pt_clust_6="33.85125"></scales>
<clustering>
<clus scale="   33.851">  3  6 -1 -1</clus>
<clus scale="   85.257">  1  4  2 -1</clus>
<clus scale="  101.542">  1  5  2 -1</clus>
<clus scale="   85.257">  1  3  2 -1</clus>
</clustering>
</event>
<event>
 6    0  0.1438923E+002  0.1189546E+03  0.7546771E-02  0.1244832E+00
         21   -1    0    0  505  501  0.00000000000E+00  0.00000000000E+00  0.18085149398E+03  0.18085149398E+03  0.00000000000E+00 0.  1.
         21   -1    0    0  504  502 -0.00000000000E+00 -0.00000000000E+00 -0.24962362703E+04  0.24962362703E+04  0.00000000000E+00 0. -1.
         21    1    1    2  503  501 -0.47795371941E+02 -0.49061878892E+02  0.80787544491E+02  0.10591549879E+03  0.00000000000E+00 0.  1.
         21    1    1    2  504  503  0.13634024094E+03 -0.25305249224E+02 -0.98270566678E+02  0.16995917514E+03  0.00000000000E+00 0.  1.
         21    1    1    2  505  506  0.25877587437E+02  0.10586848146E+03 -0.91305954244E+01  0.10936705478E+03  0.00000000000E+00 0.  1.
         21    1    1    2  506  502 -0.11442245643E+03 -0.31501353343E+02 -0.22887711587E+04  0.22918460356E+04  0.00000000000E+00 0. -1.
<scales pt_clust_3="68.49427" pt_clust_4="14000.00000" pt_clust_5="77.78126" pt_clust_6="118.95460"></scales>
<clustering>
<clus scale="   68.494">  1  3  2 -1</clus>
<clus scale="   77.781">  1  5  2 -1</clus>
<clus scale="  118.955">  2  6  1 -1</clus>
<clus scale="   68.494">  1  3  2 -1</clus>
</clustering>
</event>
<event>
 6    0  0.1438923E+002  0.1373758E+03  0.7546771E-02  0.1216904E+00
         21   -1    0    0  503  501  0.00000000000E+00  0.00000000000E+00  0.10584263807E+03  0.10584263807E+03  0.00000000000E+00 0.  1.
         21   -1    0    0  506  502 -0.00000000000E+00 -0.00000000000E+00 -0.65775134131E+03  0.65775134131E+03  0.00000000000E+00 0.  1.
         21    1    1    2  503  502  0.13389613996E+02  0.52874158664E+02 -0.37745335002E+02  0.66329998732E+02  0.00000000000E+00 0.  1.
         21    1    1    2  504  505  0.34604464946E+02  0.83601181186E+02  0.34145175896E+02  0.96708425315E+02  0.00000000000E+00 0.  1.
         21    1    1    2  505  501  0.39008082685E+02 -0.20921157325E+02 -0.13124061615E+02  0.46168889220E+02  0.00000000000E+00 0. -1.
         21    1    1    2  506  504 -0.87002161627E+02 -0.11555418252E+03 -0.53518448252E+03  0.55438666611E+03  0.00000000000E+00 0.  1.
<scales pt_clust_3="53.27539" pt_clust_4="137.37579" pt_clust_5="44.26427" pt_clust_6="14000.00000"></scales>
<clustering>
<clus scale="   44.264">  1  5  2 -1</clus>
<clus scale="   53.275">  1  3  2 -1</clus>
<clus scale="  137.376">  1  4  2 -1</clus>
<clus scale="   44.264">  1  3  2 -1</clus>
</clustering>
</event>
<event>
 6    0  0.1438923E+002  0.1448266E+03  0.7546771E-02  0.1206978E+00
         21   -1    0    0  503  501  0.00000000000E+00  0.00000000000E+00  0.94763086826E+02  0.94763086826E+02  0.00000000000E+00 0.  1.
         21   -1    0    0  506  502 -0.00000000000E+00 -0.00000000000E+00 -0.88892614841E+03  0.88892614841E+03  0.00000000000E+00 0.  1.
         21    1    1    2  503  502  0.14730358700E+02  0.48531272586E+02 -0.54984505520E+03  0.55217918524E+03  0.00000000000E+00 0.  1.
         21    1    1    2  504  501 -0.25227239919E+02 -0.10237538880E+03 -0.63702240241E+00  0.10543974423E+03  0.00000000000E+00 0.  1.
         21    1    1    2  505  504  0.16517089915E+02 -0.44708488262E+02  0.14364884569E+02  0.49779645345E+02  0.00000000000E+00 0.  1.
         21    1    1    2  506  505 -0.60202086958E+01  0.98552604471E+02 -0.25804586856E+03  0.27629066043E+03  0.00000000000E+00 0.  1.
<scales pt_clust_3="50.71753" pt_clust_4="31.50011" pt_clust_5="31.50011" pt_clust_6="137.03890"></scales>
<clustering>
<clus scale="   31.500">  4  5 -1 -1</clus>
<clus scale="   50.718">  2  3  1 -1</clus>
<clus scale="  137.039">  2  6  1 -1</clus>
<clus scale="  144.827">  1  3  2 -1</clus>
</clustering>
</event>
<event>
 6    0  0.1438923E+002  0.1287294E+03  0.7546771E-02  0.1229353E+00
         21   -1    0    0  503  501  0.00000000000E+00  0.00000000000E+00  0.44951747586E+03  0.44951747586E+03  0.00000000000E+00 0.  1.
         21   -1    0    0  504  502 -0.00000000000E+00 -0.00000000000E+00 -0.90930624484E+02  0.90930624484E+02  0.00000000000E+00 0.  1.
         21    1    1    2  503  506 -0.98636771903E+02 -0.69036071846E+02  0.16021331081E+03  0.20040832554E+03  0.00000000000E+00 0.  1.
         21    1    1    2  504  505  0.13462730389E+02  0.30259597125E+02  0.24854587334E+02  0.41408197730E+02  0.00000000000E+00 0.  1.
         21    1    1    2  505  501  0.14310017566E+03  0.27099257583E+02  0.18797719245E+03  0.23779708769E+03  0.00000000000E+00 0.  1.
         21    1    1    2  506  502 -0.57926134143E+02  0.11677217138E+02 -0.14458239212E+02  0.60834489378E+02  0.00000000000E+00 0.  1.
<scales pt_clust_3="14000.00000" pt_clust_4="33.11930" pt_clust_5="128.72943" pt_clust_6="57.71339"></scales>
<clustering>
<clus scale="   33.119">  2  4  1 -1</clus>
<clus scale="   57.713">  2  6  1 -1</clus>
<clus scale="  128.729">  2  5  1 -1</clus>
<clus scale="  128.729">  1  3  2 -1</clus>
</clustering>
</event>
<event>
 6    0  0.1438923E+002  0.1092018E+03  0.7546771E-02  0.1262055E+00
         21   -1    0    0  505  501  0.00000000000E+00  0.00000000000E+00  0.88666257423E+02  0.88666257423E+02  0.00000000000E+00 0. -1.
         21   -1    0    0  504  502 -0.00000000000E+00 -0.00000000000E+00 -0.18370274115E+04  0.18370274115E+04  0.00000000000E+00 0.  1.
         21    1    1    2  503  502 -0.69369808201E+02  0.87398152163E+02 -0.15655669993E+04  0.15695383514E+04  0.00000000000E+00 0.  1.
         21    1    1    2  504  501  0.64612123905E+02 -0.53070581404E+00  0.38570998355E+02  0.75251113734E+02  0.00000000000E+00 0. -1.
         21    1    1    2  505  506  0.58620294348E+02  0.11658231220E+02 -0.63802968959E+02  0.87424665357E+02  0.00000000000E+00 0. -1.
         21    1    1    2  506  503 -0.53862610053E+02 -0.98525677569E+02 -0.15756218418E+03  0.19347953842E+03  0.00000000000E+00 0. -1.
<scales pt_clust_3="14000.00000" pt_clust_4="109.20179" pt_clust_5="59.76833" pt_clust_6="103.88046"></scales>
<clustering>
<clus scale="   59.768">  1  5  2 -1</clus>
<clus scale="  103.880">  1  6  2 -1</clus>
<clus scale="  109.202">  1  4  2 -1</clus>
<clus scale="   59.768">  1  3  2 -1</clus>
</clustering>
</event>
<event>
 6    0  0.1438923E+002  0.9427092E+02  0.7546771E-02  0.1292827E+00
         21   -1    0    0  504  501  0.00000000000E+00  0.00000000000E+00  0.27537051482E+03  0.27537051482E+03  0.00000000000E+00 0. -1.
         21   -1    0    0  503  502 -0.00000000000E+00 -0.00000000000E+00 -0.65899620080E+03  0.65899620080E+03  0.00000000000E+00 0. -1.
         21    1    1    2  503  506  0.67401160764E+02  0.67387721760E+02 -0.59341250023E+03  0.60101781749E+03  0.00000000000E+00 0. -1.
         21    1    1    2  504  505  0.48309080942E+02 -0.26799734173E+02  0.20146005259E+02  0.58803525244E+02  0.00000000000E+00 0. -1.
         21    1    1    2  505  502 -0.16789158682E+02 -0.84633852054E+02  0.57420761862E+02  0.10364317949E+03  0.00000000000E+00 0. -1.
         21    1    1    2  506  501 -0.98921083024E+02  0.44045864466E+02  0.13222004712E+03  0.17090219339E+03  0.00000000000E+00 0. -1.
<scales pt_clust_3="94.27092" pt_clust_4="55.24485" pt_clust_5="14000.00000" pt_clust_6="72.99170"></scales>
<clustering>
<clus scale="   55.245">  1  4  2 -1</clus>
<clus scale="   72.992">  1  6  2 -1</clus>
<clus scale="   94.271">  2  3  1 -1</clus>
<clus scale="   55.245">  1  3  2 -1</clus>
</clustering>
</event>
<event>
 6    0  0.1438923E+002  0.1046701E+03  0.7546771E-02  0.1270771E+00
         21   -1    0    0  504  501  0.00000000000E+00  0.00000000000E+00  0.89588074702E+02  0.89588074702E+02  0.00000000000E+00 0. -1.
         21   -1    0    0  505  502 -0.00000000000E+00 -0.00000000000E+00 -0.15799397545E+04  0.15799397545E+04  0.00000000000E+00 0.  1.
         21    1    1    2  503  502 -0.25763247918E+02 -0.10947117805E+03 -0.14512867394E+04  0.14556376210E+04  0.00000000000E+00 0.  1.
         21    1    1    2  504  506  0.64606280881E+02  0.41705336948E+02 -0.27879635447E+02  0.81795970144E+02  0.00000000000E+00 0.  1.
         21    1    1    2  505  501 -0.40600989293E+02  0.10006192625E+02  0.37777768288E+02  0.56353562437E+02  0.00000000000E+00 0. -1.
         21    1    1    2  506  503  0.17579563307E+01  0.57759648473E+02 -0.48963073285E+02  0.75740675649E+02  0.00000000000E+00 0. -1.
<scales pt_clust_3="104.67007" pt_clust_4="61.80043" pt_clust_5="41.81584" pt_clust_6="14000.00000"></scales>
<clustering>
<clus scale="   41.816">  1  5  2 -1</clus>
<clus scale="   61.800">  1  4  2 -1</clus>
<clus scale="  104.670">  2  3  1 -1</clus>
<clus scale="   41.816">  1  3  2 -1</clus>
</clustering>
</event>
<event>
 6    0  0.1438923E+002  0.7150543E+02  0.7546771E-02  0.1355047E+00
         21   -1    0    0  504  501  0.00000000000E+00  0.00000000000E+00  0.95637714155E+02  0.95637714155E+02  0.00000000000E+00 0. -1.
         21   -1    0    0  505  502 -0.00000000000E+00 -0.00000000000E+00 -0.17663384066E+04  0.17663384066E+04  0.00000000000E+00 0.  1.
         21    1    1    2  503  502 -0.59703127059E+02  0.36631969128E+02 -0.16534570065E+04  0.16549400101E+04  0.00000000000E+00 0.  1.
         21    1    1    2  504  503 -0.30510438261E+02 -0.76740171501E+02 -0.39620744184E+02  0.91595546478E+02  0.00000000000E+00 0.  1.
         21    1    1    2  505  506  0.57379974717E+02  0.35078430338E+02 -0.11234787291E+02  0.68184882628E+02  0.00000000000E+00 0. -1.
         21    1    1    2  506  501  0.32833590603E+02  0.50297720348E+01  0.33611845557E+02  0.47255681567E+02  0.00000000000E+00 0. -1.
<scales pt_clust_3="69.70547" pt_clust_4="71.50543" pt_clust_5="14000.00000" pt_clust_6="33.21661"></scales>
<clustering>
<clus scale="   33.217">  1  6  2 -1</clus>
<clus scale="   69.705">  2  3  1 -1</clus>
<clus scale="   71.505">  1  4  2 -1</clus>
<clus scale="   33.217">  1  3  2 -1</clus>
</clustering>
</event>
<event>
 6    0  0.1438923E+002  0.1840322E+03  0.7546771E-02  0.1163957E+00
         21   -1    0    0  506  501  0.00000000000E+00  0.00000000000E+00  0.51699486328E+03  0.51699486328E+03  0.00000000000E+00 0.  1.
         21   -1    0    0  505  502 -0.00000000000E+00 -0.00000000000E+00 -0.51289459997E+03  0.51289459997E+03  0.00000000000E+00 0. -1.
         21    1    1    2  503  501 -0.28145248539E+02  0.19649727085E+02  0.25420197036E+02  0.42713618521E+02  0.00000000000E+00 0.  1.
         21    1    1    2  504  502 -0.36518677043E+02 -0.18173012586E+03 -0.45747431620E+03  0.49360125851E+03  0.00000000000E+00 0. -1.
         21    1    1    2  505  503  0.35992050026E+02  0.13303235634E+02  0.77239462236E+01  0.39141577494E+02  0.00000000000E+00 0. -1.
         21    1    1    2  506  504  0.28671875556E+02  0.14877716314E+03  0.42843043625E+03  0.45443300873E+03  0.00000000000E+00 0.  1.
<scales pt_clust_3="34.32589" pt_clust_4="14000.00000" pt_clust_5="37.44648" pt_clust_6="184.03222"></scales>
<clustering>
<clus scale="   34.326">  1  3  2 -1</clus>
<clus scale="   37.446">  1  5  2 -1</clus>
<clus scale="  184.032">  1  6  2 -1</clus>
<clus scale="   34.326">  1  3  2 -1</clus>
</clustering>
</event>
<event>
 6    0  0.1438923E+002  0.1948565E+03  0.7546771E-02  0.1154153E+00
         21   -1    0    0  506  501  0.00000000000E+00  0.00000000000E+00  0.49171289934E+03  0.49171289934E+03  0.00000000000E+00 0. -1.
         21   -1    0    0  505  502 -0.00000000000E+00 -0.00000000000E+00 -0.11284188566E+03  0.11284188566E+03  0.00000000000E+00 0. -1.
         21    1    1    2  503  504 -0.92738374363E+02  0.33920026221E+02  0.94794128255E+02  0.13688280027E+03  0.00000000000E+00 0. -1.
         21    1    1    2  504  501 -0.22305300953E+02  0.49363807159E+02  0.15057275444E+03  0.16002020587E+03  0.00000000000E+00 0. -1.
         21    1    1    2  505  503 -0.41134900099E+02  0.47711902891E+02 -0.17472242003E+01  0.63020302094E+02  0.00000000000E+00 0.  1.
         21    1    1    2  506  502  0.15617857541E+03 -0.13099573627E+03  0.13525135519E+03  0.24463147676E+03  0.00000000000E+00 0. -1.
<scales pt_clust_3="63.57523" pt_clust_4="54.16929" pt_clust_5="63.57523" pt_clust_6="176.78057"></scales>
<clustering>
<clus scale="   54.169">  1  4  2 -1</clus>
<clus scale="   63.575">  3  5 -1 -1</clus>
<clus scale="  176.781">  1  6  2 -1</clus>
<clus scale="   54.169">  1  3  2 -1</clus>
</clustering>
</event>
<event>
 6    0  0.1438923E+002  0.1507163E+03  0.7546771E-02  0.1199596E+00
         21   -1    0    0  505  501  0.00000000000E+00  0.00000000000E+00  0.28016372095E+03  0.28016372095E+03  0.00000000000E+00 0. -1.
         21   -1    0    0  504  502 -0.00000000000E+00 -0.00000000000E+00 -0.28515335402E+03  0.28515335402E+03  0.00000000000E+00 0.  1.
         21    1    1    2  503  502 -0.17000030063E+03  0.19689267944E+02 -0.17888352513E+03  0.24756228519E+03  0.00000000000E+00 0.  1.
         21    1    1    2  504  506  0.14356407742E+02  0.37655074639E+02 -0.45400453096E+01  0.40553952961E+02  0.00000000000E+00 0.  1.
         21    1    1    2  505  503  0.11369281092E+03 -0.44008127947E+02  0.34521273545E+02  0.12670630966E+03  0.00000000000E+00 0. -1.
         21    1    1    2  506  501  0.41951081963E+02 -0.13336214635E+02  0.14391266382E+03  0.15049452717E+03  0.00000000000E+00 0. -1.
<scales pt_clust_3="150.71633" pt_clust_4="40.29902" pt_clust_5="14000.00000" pt_clust_6="44.05124"></scales>
<clustering>
<clus scale="   40.299">  2  4  1 -1</clus>
<clus scale="   44.051">  1  6  2 -1</clus>
<clus scale="  150.716">  2  3  1 -1</clus>
<clus scale="   44.051">  1  3  2 -1</clus>
</clustering>
</event>
<event>
 6    0  0.1438923E+002  0.1360381E+03  0.7546771E-02  0.1218762E+00
         21   -1    0    0  504  501  0.00000000000E+00  0.00000000000E+00  0.69394794527E+03  0.69394794527E+03  0.00000000000E+00 0. -1.
         21   -1    0    0  505  502 -0.00000000000E+00 -0.00000000000E+00 -0.17569402164E+03  0.17569402164E+03  0.00000000000E+00 0.  1.
         21    1    1    2  503  501  0.86984456130E+02 -0.32571462219E+02  0.33229091522E+03  0.34502818450E+03  0.00000000000E+00 0. -1.
         21    1    1    2  504  502 -0.34513273434E+02  0.46265770661E+02 -0.12968495906E+03  0.14195025954E+03  0.00000000000E+00 0.  1.
         21    1    1    2  505  506 -0.87407011320E+02  0.23643538793E+02  0.34491532123E+02  0.96895140965E+02  0.00000000000E+00 0. -1.
         21    1    1    2  506  503  0.34935828624E+02 -0.37337847235E+02  0.28115643535E+03  0.28576838190E+03  0.00000000000E+00 0. -1.
<scales pt_clust_3="31.78177" pt_clust_4="57.72077" pt_clust_5="129.11849" pt_clust_6="31.78177"></scales>
<clustering>
<clus scale="   31.782">  3  6 -1 -1</clus>
<clus scale="   57.721">  2  4  1 -1</clus>
<clus scale="  129.118">  2  5  1 -1</clus>
<clus scale="  136.038">  1  3  2 -1</clus>
</clustering>
</event>
<event>
 6    0  0.1438923E+002  0.1180568E+03  0.7546771E-02  0.1246338E+00
         21   -1    0    0  503  501  0.00000000000E+00  0.00000000000E+00  0.20127329283E+03  0.20127329283E+03  0.00000000000E+00 0. -1.
         21   -1    0    0  506  502 -0.00000000000E+00 -0.00000000000E+00 -0.12581765467E+03  0.12581765467E+03  0.00000000000E+00 0. -1.
         21    1    1    2  503  504 -0.55823080427E+02 -0.48959898864E+01  0.42347683812E+02  0.70238973153E+02  0.00000000000E+00 0. -1.
         21    1    1    2  504  505 -0.45817876076E+02 -0.40530238230E+02  0.41470645452E+02  0.73903940445E+02  0.00000000000E+00 0. -1.
         21    1    1    2  505  502  0.11679837598E+03  0.95705914402E+01  0.37263844487E+02  0.12297174862E+03  0.00000000000E+00 0. -1.
         21    1    1    2  506  501 -0.15157419480E+02  0.35855636676E+02 -0.45626535593E+02  0.59976285288E+02  0.00000000000E+00 0. -1.
<scales pt_clust_3="35.26079" pt_clust_4="35.26079" pt_clust_5="112.16135" pt_clust_6="38.92781"></scales>
<clustering>
<clus scale="   35.261">  3  4 -1 -1</clus>
<clus scale="   38.928">  2  6  1 -1</clus>
<clus scale="  112.161">  2  5  1 -1</clus>
<clus scale="  118.057">  1  3  2 -1</clus>
</clustering>
</event>
<event>
 6    0  0.1438923E+002  0.2919555E+03  0.7546771E-02  0.1089333E+00
         21   -1    0    0  504  501  0.00000000000E+00  0.00000000000E+00  0.92122207994E+03  0.92122207994E+03  0.00000000000E+00 0. -1.
         21   -1    0    0  503  502 -0.00000000000E+00 -0.00000000000E+00 -0.31329876864E+03  0.31329876864E+03  0.00000000000E+00 0. -1.
         21    1    1    2  503  506 -0.36893092788E+02 -0.77812429823E+02  0.27388103770E+03  0.28710050042E+03  0.00000000000E+00 0. -1.
         21    1    1    2  504  502  0.78293871526E+02  0.27577638937E+03 -0.20524611579E+03  0.35257412738E+03  0.00000000000E+00 0. -1.
         21    1    1    2  505  501  0.30443517613E+02 -0.69123562868E+02  0.33163864839E+03  0.34013095686E+03  0.00000000000E+00 0. -1.
         21    1    1    2  506  505 -0.71844296351E+02 -0.12884039668E+03  0.20764974100E+03  0.25471526392E+03  0.00000000000E+00 0. -1.
<scales pt_clust_3="64.66553" pt_clust_4="279.41870" pt_clust_5="75.53062" pt_clust_6="64.66553"></scales>
<clustering>
<clus scale="   64.666">  3  6 -1 -1</clus>
<clus scale="   75.531">  1  5  2 -1</clus>
<clus scale="  279.419">  2  4  1 -1</clus>
<clus scale="   75.531">  1  3  2 -1</clus>
</clustering>
</event>
<event>
 6    0  0.1438923E+002  0.1904837E+03  0.7546771E-02  0.1158026E+00
         21   -1    0    0  505  501  0.00000000000E+00  0.00000000000E+00  0.18203247586E+03  0.18203247586E+03  0.00000000000E+00 0.  1.
         21   -1    0    0  503  502 -0.00000000000E+00 -0.00000000000E+00 -0.41313570252E+03  0.41313570252E+03  0.00000000000E+00 0.  1.
         21    1    1    2  503  506 -0.30674659405E+02 -0.18699719899E+03 -0.24462152769E+03  0.30943267276E+03  0.00000000000E+00 0.  1.
         21    1    1    2  504  502  0.19813273156E+02  0.19270593907E+03  0.16570059938E+01  0.19372890960E+03  0.00000000000E+00 0.  1.
         21    1    1    2  505  504 -0.17700574238E+02  0.27431827390E+02  0.30289245831E+02  0.44533738843E+02  0.00000000000E+00 0.  1.
         21    1    1    2  506  501  0.28561960487E+02 -0.33140567469E+02 -0.18427950796E+02  0.47472857187E+02  0.00000000000E+00 0.  1.
<scales pt_clust_3="190.48375" pt_clust_4="14000.00000" pt_clust_5="32.64683" pt_clust_6="40.50575"></scales>
<clustering>
<clus scale="   32.647">  1  5  2 -1</clus>
<clus scale="   40.506">  1  6  2 -1</clus>
<clus scale="  190.484">  2  3  1 -1</clus>
<clus scale="   32.647">  1  3  2 -1</clus>
</clustering>
</event>
<event>
 6    0  0.1438923E+002  0.1489478E+03  0.7546771E-02  0.1201772E+00
         21   -1    0    0  506  501  0.00000000000E+00  0.00000000000E+00  0.45258471936E+03  0.45258471936E+03  0.00000000000E+00 0. -1.
         21   -1    0    0  505  502 -0.00000000000E+00 -0.00000000000E+00 -0.36213099851E+03  0.36213099851E+03  0.00000000000E+00 0.  1.
         21    1    1    2  503  501 -0.35099748925E+02 -0.30809677901E+02  0.45146083128E+02  0.64956889155E+02  0.00000000000E+00 0. -1.
         21    1    1    2  504  502 -0.22780262659E+01  0.11429416216E+03  0.30098714371E+03  0.32196522419E+03  0.00000000000E+00 0. -1.
         21    1    1    2  505  503  0.61146746299E+02 -0.13845991690E+03 -0.31124289543E+03  0.34609567048E+03  0.00000000000E+00 0.  1.
         21    1    1    2  506  504 -0.23768971109E+02  0.54975432643E+02  0.55563389439E+02  0.81697934049E+02  0.00000000000E+00 0. -1.
<scales pt_clust_3="46.70363" pt_clust_4="148.94776" pt_clust_5="14000.00000" pt_clust_6="57.92673"></scales>
<clustering>
<clus scale="   46.704">  1  3  2 -1</clus>
<clus scale="   57.927">  1  6  2 -1</clus>
<clus scale="  148.948">  1  4  2 -1</clus>
<clus scale="   46.704">  1  3  2 -1</clus>
</clustering>
</event>
<event>
 6    0  0.1438923E+002  0.1155947E+03  0.7546771E-02  0.1250546E+00
         21   -1    0    0  502  501  0.00000000000E+00  0.00000000000E+00  0.23256077170E+04  0.23256077170E+04  0.00000000000E+00 0.  1.
         21   -1    0    0  505  502 -0.00000000000E+00 -0.00000000000E+00 -0.33700696468E+02  0.33700696468E+02  0.00000000000E+00 0. -1.
         21    1    1    2  503  506 -0.30841177789E+02  0.29498107795E+02  0.34698569344E+03  0.34960032617E+03  0.00000000000E+00 0.  1.
         21    1    1    2  504  501  0.81930298725E+02 -0.61166717049E+02  0.16331932169E+04  0.16363905478E+04  0.00000000000E+00 0.  1.
         21    1    1    2  505  503  0.23780067342E+02  0.25059308057E+02 -0.15285961423E+02  0.37777256911E+02  0.00000000000E+00 0. -1.
         21    1    1    2  506  504 -0.74869188277E+02  0.66093011961E+01  0.32701407160E+03  0.33554028259E+03  0.00000000000E+00 0.  1.
<scales pt_clust_3="42.24361" pt_clust_4="103.43404" pt_clust_5="34.54650" pt_clust_6="42.24361"></scales>
<clustering>
<clus scale="   34.546">  2  5  1 -1</clus>
<clus scale="   42.244">  3  6 -1 -1</clus>
<clus scale="  103.434">  1  4  2 -1</clus>
<clus scale="  103.434">  1  3  2 -1</clus>
</clustering>
</event>
<event>
 6    0  0.1438923E+002  0.1797691E+03  0.7546771E-02  0.1168027E+00
         21   -1    0    0  506  501  0.00000000000E+00  0.00000000000E+00  0.46435382104E+03  0.46435382104E+03  0.00000000000E+00 0. -1.
         21   -1    0    0  504  502 -0.00000000000E+00 -0.00000000000E+00 -0.10644513276E+03  0.10644513276E+03  0.00000000000E+00 0. -1.
         21    1    1    2  503  502  0.11398960511E+03 -0.23519929143E+02  0.26388582047E+02  0.11934477116E+03  0.00000000000E+00 0. -1.
         21    1    1    2  504  501 -0.49631489301E+02  0.70262292277E+01  0.14774682646E+03  0.15601851607E+03  0.00000000000E+00 0.  1.
         21    1    1    2  505  503  0.79435328884E+02 -0.21711461279E+02  0.59784262677E+02  0.10176206115E+03  0.00000000000E+00 0. -1.
         21    1    1    2  506  505 -0.14379344469E+03  0.38205161194E+02  0.12398901710E+03  0.19367360543E+03  0.00000000000E+00 0. -1.
<scales pt_clust_3="37.64891" pt_clust_4="50.12637" pt_clust_5="37.64891" pt_clust_6="174.10787"></scales>
<clustering>
<clus scale="   37.649">  3  5 -1 -1</clus>
<clus scale="   50.126">  1  4  2 -1</clus>
<clus scale="  174.108">  1  6  2 -1</clus>
<clus scale="   50.126">  1  3  2 -1</clus>
</clustering>
</event>
<event>
 6    0  0.1438923E+002  0.1086996E+03  0.7546771E-02  0.1262997E+00
         21   -1    0    0  506  501  0.00000000000E+00  0.00000000000E+00  0.69667841481E+03  0.69667841481E+03  0.00000000000E+00 0.  1.
         21   -1    0    0  505  502 -0.00000000000E+00 -0.00000000000E+00 -0.87614687885E+02  0.87614687885E+02  0.00000000000E+00 0.  1.
         21    1    1    2  503  504  0.71614328822E+02 -0.59994333443E+02  0.91160993192E+02  0.13053068152E+03  0.00000000000E+00 0.  1.
         21    1    1    2  504  502 -0.17954722782E+02  0.60141722847E+02  0.65628947730E+02  0.90810559283E+02  0.00000000000E+00 0.  1.
         21    1    1    2  505  501 -0.11070875627E+03 -0.31287080156E+02  0.47904064068E+03  0.49266139033E+03  0.00000000000E+00 0.  1.
         21    1    1    2  506  503  0.57049150230E+02  0.31139690752E+02 -0.26766854682E+02  0.70290471557E+02  0.00000000000E+00 0.  1.
<scales pt_clust_3="80.19327" pt_clust_4="62.76463" pt_clust_5="14000.00000" pt_clust_6="108.69964"></scales>
<clustering>
<clus scale="   62.765">  2  4  1 -1</clus>
<clus scale="   80.193">  2  3  1 -1</clus>
<clus scale="  108.700">  2  6  1 -1</clus>
<clus scale="  108.700">  1  3  2 -1</clus>
</clustering>
</event>
<event>
 6    0  0.1438923E+002  0.1381233E+03  0.7546771E-02  0.1215877E+00
         21   -1    0    0  506  501  0.00000000000E+00  0.00000000000E+00  0.27708422647E+03  0.27708422647E+03  0.00000000000E+00 0. -1.
         21   -1    0    0  503  502 -0.00000000000E+00 -0.00000000000E+00 -0.88278270134E+03  0.88278270134E+03  0.00000000000E+00 0. -1.
         21    1    1    2  503  501  0.54794731930E+02 -0.25096163300E+02 -0.33654906803E+02  0.69028492751E+02  0.00000000000E+00 0. -1.
         21    1    1    2  504  505 -0.11021627736E+03 -0.82216486725E+02  0.34406420393E+02  0.14174265501E+03  0.00000000000E+00 0. -1.
         21    1    1    2  505  502 -0.72653911284E+02  0.74471183659E+02 -0.74811525279E+03  0.75531515242E+03  0.00000000000E+00 0. -1.
         21    1    1    2  506  504  0.12807545671E+03  0.32841466366E+02  0.14166526433E+03  0.19378062763E+03  0.00000000000E+00 0. -1.
<scales pt_clust_3="60.26840" pt_clust_4="14000.00000" pt_clust_5="103.26119" pt_clust_6="138.12333"></scales>
<clustering>
<clus scale="   60.268">  1  3  2 -1</clus>
<clus scale="  103.261">  2  5  1 -1</clus>
<clus scale="  138.123">  1  6  2 -1</clus>
<clus scale="   60.268">  1  3  2 -1</clus>
</clustering>
</event>
<event>
 6    0  0.1438923E+002  0.7592491E+02  0.7546771E-02  0.1341031E+00
         21   -1    0    0  506  501  0.00000000000E+00  0.00000000000E+00  0.46967851598E+02  0.46967851598E+02  0.00000000000E+00 0. -1.
         21   -1    0    0  505  502 -0.00000000000E+00 -0.00000000000E+00 -0.32685932164E+04  0.32685932164E+04  0.00000000000E+00 0.  1.
         21    1    1    2  503  501  0.50838106313E+02 -0.35164081727E+02 -0.26143239613E+01  0.61869704921E+02  0.00000000000E+00 0. -1.
         21    1    1    2  504  502 -0.70485398450E+02 -0.34686827055E+02 -0.14093509443E+03  0.16135076141E+03  0.00000000000E+00 0. -1.
         21    1    1    2  505  503 -0.16802130355E+02  0.74546177882E+02 -0.30339619127E+04  0.30349241065E+04  0.00000000000E+00 0.  1.
         21    1    1    2  506  504  0.36449422492E+02 -0.46952691004E+01 -0.44114033697E+02  0.57416495199E+02  0.00000000000E+00 0. -1.
<scales pt_clust_3="75.92491" pt_clust_4="70.98905" pt_clust_5="14000.00000" pt_clust_6="36.75059"></scales>
<clustering>
<clus scale="   36.751">  1  6  2 -1</clus>
<clus scale="   70.989">  1  4  2 -1</clus>
<clus scale="   75.925">  1  3  2 -1</clus>
<clus scale="   36.751">  1  3  2 -1</clus>
</clustering>
</event>
<event>
 6    0  0.1438923E+002  0.1264940E+03  0.7546771E-02  0.1232753E+00
         21   -1    0    0  503  501  0.00000000000E+00  0.00000000000E+00  0.28139082945E+03  0.28139082945E+03  0.00000000000E+00 0. -1.
         21   -1    0    0  501  502 -0.00000000000E+00 -0.00000000000E+00 -0.50996621891E+03  0.50996621891E+03  0.00000000000E+00 0. -1.
         21    1    1    2  503  505  0.60304051201E+02  0.38166959621E+02  0.95232488089E+02  0.11900639557E+03  0.00000000000E+00 0. -1.
         21    1    1    2  504  506 -0.10169019445E+03 -0.66381640554E+02  0.10832826217E+03  0.16273423191E+03  0.00000000000E+00 0. -1.
         21    1    1    2  505  504  0.44696528558E+02 -0.10282588972E+02  0.24056582770E+02  0.51790254640E+02  0.00000000000E+00 0. -1.
         21    1    1    2  506  502 -0.33103853076E+01  0.38497269905E+02 -0.45619272249E+03  0.45782616624E+03  0.00000000000E+00 0. -1.
<scales pt_clust_3="42.61661" pt_clust_4="113.40977" pt_clust_5="42.61661" pt_clust_6="38.63934"></scales>
<clustering>
<clus scale="   38.639">  2  6  1 -1</clus>
<clus scale="   42.617">  3  5 -1 -1</clus>
<clus scale="  113.410">  2  4  1 -1</clus>
<clus scale="  126.494">  1  3  2 -1</clus>
</clustering>
</event>
<event>
 6    0  0.1438923E+002  0.1479737E+03  0.7546771E-02  0.1202985E+00
         21   -1    0    0  502  501  0.00000000000E+00  0.00000000000E+00  0.42796988975E+03  0.42796988975E+03  0.00000000000E+00 0. -1.
         21   -1    0    0  504  502 -0.00000000000E+00 -0.00000000000E+00 -0.28454293522E+03  0.28454293522E+03  0.00000000000E+00 0. -1.
         21    1    1    2  503  506 -0.61267627742E+02 -0.24006493003E+02  0.11841206409E+03  0.13546752687E+03  0.00000000000E+00 0. -1.
         21    1    1    2  504  505  0.41412123025E+02  0.15610048681E+03 -0.23052674619E+03  0.28146919303E+03  0.00000000000E+00 0. -1.
         21    1    1    2  505  503  0.20373917446E+02 -0.89479456740E+02  0.10661383585E+03  0.14067046486E+03  0.00000000000E+00 0. -1.
         21    1    1    2  506  501 -0.51841272820E+00 -0.42614537072E+02  0.14892780079E+03  0.15490564021E+03  0.00000000000E+00 0. -1.
<scales pt_clust_3="75.39330" pt_clust_4="147.97370" pt_clust_5="14000.00000" pt_clust_6="42.61769"></scales>
<clustering>
<clus scale="   42.618">  1  6  2 -1</clus>
<clus scale="   75.393">  1  3  2 -1</clus>
<clus scale="  147.974">  2  4  1 -1</clus>
<clus scale="   42.618">  1  3  2 -1</clus>
</clustering>
</event>
<event>
 6    0  0.1438923E+002  0.8750207E+02  0.7546771E-02  0.1309016E+00
         21   -1    0    0  505  501  0.00000000000E+00  0.00000000000E+00  0.37138204940E+02  0.37138204940E+02  0.00000000000E+00 0. -1.
         21   -1    0    0  506  502 -0.00000000000E+00 -0.00000000000E+00 -0.11195242292E+04  0.11195242292E+04  0.00000000000E+00 0.  1.
         21    1    1    2  503  502  0.38511963183E+02 -0.80731157854E+02 -0.79386837831E+03  0.79889154034E+03  0.00000000000E+00 0.  1.
         21    1    1    2  504  503 -0.64871435056E+02  0.52000243051E+02 -0.10079525517E+03  0.13065990903E+03  0.00000000000E+00 0. -1.
         21    1    1    2  505  504  0.33932832612E+02  0.74228157890E+02 -0.11587979365E+03  0.14173702103E+03  0.00000000000E+00 0. -1.
         21    1    1    2  506  501 -0.75733607393E+01 -0.45497243087E+02 -0.71842597127E+02  0.85373963732E+02  0.00000000000E+00 0. -1.
<scales pt_clust_3="14000.00000" pt_clust_4="87.50207" pt_clust_5="62.87150" pt_clust_6="46.12326"></scales>
<clustering>
<clus scale="   46.123">  1  6  2 -1</clus>
<clus scale="   62.871">  1  5  2 -1</clus>
<clus scale="   87.502">  1  4  2 -1</clus>
<clus scale="   46.123">  1  3  2 -1</clus>
</clustering>
</event>
<event>
 6    0  0.1438923E+002  0.5874349E+02  0.7546771E-02  0.1403182E+00
         21   -1    0    0  503  501  0.00000000000E+00  0.00000000000E+00  0.18802115813E+04  0.18802115813E+04  0.00000000000E+00 0. -1.
         21   -1    0    0  506  502 -0.00000000000E+00 -0.00000000000E+00 -0.10184579326E+03  0.10184579326E+03  0.00000000000E+00 0. -1.
         21    1    1    2  503  505  0.35532561475E+02  0.39576166806E+02  0.84055708416E+03  0.84223811814E+03  0.00000000000E+00 0. -1.
         21    1    1    2  504  501 -0.20130363690E+02 -0.82956714717E+02  0.77093726420E+03  0.77564896274E+03  0.00000000000E+00 0. -1.
         21    1    1    2  505  502  0.43282368131E+02  0.33527470185E+02  0.25334907368E+03  0.25919723722E+03  0.00000000000E+00 0. -1.
         21    1    1    2  506  504 -0.58684565916E+02  0.98530777253E+01 -0.86477633967E+02  0.10497305651E+03  0.00000000000E+00 0. -1.
<scales pt_clust_3="53.18680" pt_clust_4="53.86825" pt_clust_5="14000.00000" pt_clust_6="58.74349"></scales>
<clustering>
<clus scale="   53.187">  1  3  2 -1</clus>
<clus scale="   53.868">  1  4  2 -1</clus>
<clus scale="   58.743">  2  6  1 -1</clus>
<clus scale="   53.187">  1  3  2 -1</clus>
</clustering>
</event>
<event>
 6    0  0.1438923E+002  0.9698567E+02  0.7546771E-02  0.1286765E+00
         21   -1    0    0  506  501  0.00000000000E+00  0.00000000000E+00  0.13823943174E+03  0.13823943174E+03  0.00000000000E+00 0.  1.
         21   -1    0    0  505  502 -0.00000000000E+00 -0.00000000000E+00 -0.41866046008E+03  0.41866046008E+03  0.00000000000E+00 0. -1.
         21    1    1    2  503  502 -0.25035154567E+02 -0.33434996827E+02 -0.44367432484E+02  0.60935433389E+02  0.00000000000E+00 0. -1.
         21    1    1    2  504  501  0.17740752922E+02 -0.25031067604E+02 -0.92808167706E+01  0.32053427579E+02  0.00000000000E+00 0.  1.
         21    1    1    2  505  504 -0.61495940977E+02  0.85297379920E+02 -0.32467914238E+03  0.34128278491E+03  0.00000000000E+00 0. -1.
         21    1    1    2  506  503  0.68790342622E+02 -0.26831315489E+02  0.97906363293E+02  0.12262824594E+03  0.00000000000E+00 0.  1.
<scales pt_clust_3="42.42607" pt_clust_4="30.68043" pt_clust_5="96.98567" pt_clust_6="14000.00000"></scales>
<clustering>
<clus scale="   30.680">  1  4  2 -1</clus>
<clus scale="   42.426">  2  3  1 -1</clus>
<clus scale="   96.986">  2  5  1 -1</clus>
<clus scale="   30.680">  1  3  2 -1</clus>
</clustering>
</event>
<event>
 6    0  0.1438923E+002  0.8844148E+02  0.7546771E-02  0.1306670E+00
         21   -1    0    0  505  501  0.00000000000E+00  0.00000000000E+00  0.35798082846E+02  0.35798082846E+02  0.00000000000E+00 0.  1.
         21   -1    0    0  501  502 -0.00000000000E+00 -0.00000000000E+00 -0.12351547206E+04  0.12351547206E+04  0.00000000000E+00 0.  1.
         21    1    1    2  503  502 -0.36058095698E+02  0.85608480792E+02 -0.96723896289E+03  0.97168935858E+03  0.00000000000E+00 0.  1.
         21    1    1    2  504  503  0.84375524862E+02 -0.26440818163E+02 -0.12700247942E+03  0.15475133550E+03  0.00000000000E+00 0.  1.
         21    1    1    2  505  506 -0.18166807527E+01 -0.44334173038E+02 -0.75051694894E+02  0.87187018153E+02  0.00000000000E+00 0. -1.
         21    1    1    2  506  504 -0.46500748411E+02 -0.14833489591E+02 -0.30063500540E+02  0.57325091198E+02  0.00000000000E+00 0.  1.
<scales pt_clust_3="14000.00000" pt_clust_4="88.44148" pt_clust_5="44.37138" pt_clust_6="58.96344"></scales>
<clustering>
<clus scale="   44.371">  1  5  2 -1</clus>
<clus scale="   58.963">  1  6  2 -1</clus>
<clus scale="   88.441">  1  4  2 -1</clus>
<clus scale="   44.371">  1  3  2 -1</clus>
</clustering>
</event>
<event>
 6    0  0.1438923E+002  0.9298751E+02  0.7546771E-02  0.1295774E+00
         21   -1    0    0  503  501  0.00000000000E+00  0.00000000000E+00  0.40887599760E+03  0.40887599760E+03  0.00000000000E+00 0. -1.
         21   -1    0    0  506  502 -0.00000000000E+00 -0.00000000000E+00 -0.59265007658E+03  0.59265007658E+03  0.00000000000E+00 0. -1.
         21    1    1    2  503  502 -0.75585095450E+02 -0.79512455828E+01 -0.56568212916E+03  0.57076492552E+03  0.00000000000E+00 0. -1.
         21    1    1    2  504  501  0.30591938554E+01  0.82393723847E+02  0.20774500393E+03  0.22350854805E+03  0.00000000000E+00 0. -1.
         21    1    1    2  505  504  0.43210746322E+02 -0.53007065754E+02  0.14624703746E+03  0.16144693736E+03  0.00000000000E+00 0. -1.
         21    1    1    2  506  505  0.29315155272E+02 -0.21435412511E+02  0.27916008794E+02  0.45805663243E+02  0.00000000000E+00 0. -1.
<scales pt_clust_3="76.00216" pt_clust_4="82.62864" pt_clust_5="31.08120" pt_clust_6="31.08120"></scales>
<clustering>
<clus scale="   31.081">  5  6 -1 -1</clus>
<clus scale="   76.002">  2  3  1 -1</clus>
<clus scale="   82.629">  1  4  2 -1</clus>
<clus scale="   82.629">  1  3  2 -1</clus>
</clustering>
</event>
<event>
 6    0  0.1438923E+002  0.1036064E+03  0.7546771E-02  0.1272890E+00
         21   -1    0    0  506  501  0.00000000000E+00  0.00000000000E+00  0.57987035292E+03  0.57987035292E+03  0.00000000000E+00 0. -1.
         21   -1    0    0  503  502 -0.00000000000E+00 -0.00000000000E+00 -0.86957957794E+03  0.86957957794E+03  0.00000000000E+00 0.  1.
         21    1    1    2  503  504  0.31658372636E+02  0.37467029116E+02 -0.78224465886E+03  0.78378105178E+03  0.00000000000E+00 0.  1.
         21    1    1    2  504  505 -0.99551531843E+02 -0.10406346917E+03  0.16241292021E+01  0.14402205006E+03  0.00000000000E+00 0. -1.
         21    1    1    2  505  501  0.19172965358E+02 -0.23667627068E+02  0.13458178900E+02  0.33299876140E+02  0.00000000000E+00 0. -1.
         21    1    1    2  506  502  0.48720193848E+02  0.90264067126E+02  0.47745312573E+03  0.48834695287E+03  0.00000000000E+00 0. -1.
<scales pt_clust_3="49.04345" pt_clust_4="14000.00000" pt_clust_5="30.45914" pt_clust_6="103.60638"></scales>
<clustering>
<clus scale="   30.459">  1  5  2 -1</clus>
<clus scale="   49.043">  2  3  1 -1</clus>
<clus scale="  103.606">  1  6  2 -1</clus>
<clus scale="   30.459">  1  3  2 -1</clus>
</clustering>
</event>
<event>
 6    0  0.1438923E+002  0.1108161E+03  0.7546771E-02  0.1259066E+00
         21   -1    0    0  504  501  0.00000000000E+00  0.00000000000E+00  0.41503515398E+03  0.41503515398E+03  0.00000000000E+00 0. -1.
         21   -1    0    0  506  502 -0.00000000000E+00 -0.00000000000E+00 -0.54884948223E+03  0.54884948223E+03  0.00000000000E+00 0. -1.
         21    1    1    2  503  505  0.31036478508E+02  0.14352173494E+03  0.11643635353E+02  0.14730012099E+03  0.00000000000E+00 0.  1.
         21    1    1    2  504  502  0.44297476257E+02 -0.27329859606E+02  0.13001104122E+02  0.53649010589E+02  0.00000000000E+00 0. -1.
         21    1    1    2  505  501 -0.98044611398E+01 -0.78347187329E+02  0.29388418239E+03  0.30430629615E+03  0.00000000000E+00 0. -1.
         21    1    1    2  506  503 -0.65529493625E+02 -0.37844688009E+02 -0.45234325012E+03  0.45862920848E+03  0.00000000000E+00 0. -1.
<scales pt_clust_3="110.81608" pt_clust_4="52.04986" pt_clust_5="14000.00000" pt_clust_6="75.47018"></scales>
<clustering>
<clus scale="   52.050">  1  4  2 -1</clus>
<clus scale="   75.470">  2  6  1 -1</clus>
<clus scale="  110.816">  2  3  1 -1</clus>
<clus scale="   52.050">  1  3  2 -1</clus>
</clustering>
</event>
<event>
 6    0  0.1438923E+002  0.1486047E+03  0.7546771E-02  0.1202198E+00
         21   -1    0    0  503  501  0.00000000000E+00  0.00000000000E+00  0.15445652159E+03  0.15445652159E+03  0.00000000000E+00 0.  1.
         21   -1    0    0  506  502 -0.00000000000E+00 -0.00000000000E+00 -0.35227585811E+03  0.35227585811E+03  0.00000000000E+00 0. -1.
         21    1    1    2  503  504  0.89990730764E+02 -0.39404090358E+02  0.13171632971E+02  0.99118645448E+02  0.00000000000E+00 0.  1.
         21    1    1    2  504  502  0.52787954837E+02  0.14811297459E+02 -0.15214995904E+01  0.54847585811E+02  0.00000000000E+00 0.  1.
         21    1    1    2  505  501 -0.12629185249E+03  0.51536155878E+02  0.45010902957E+01  0.13647661771E+03  0.00000000000E+00 0.  1.
         21    1    1    2  506  505 -0.16486833115E+02 -0.26943362980E+02 -0.21397056020E+03  0.21628953073E+03  0.00000000000E+00 0. -1.
<scales pt_clust_3="36.48562" pt_clust_4="36.48562" pt_clust_5="139.65687" pt_clust_6="31.58735"></scales>
<clustering>
<clus scale="   31.587">  2  6  1 -1</clus>
<clus scale="   36.486">  3  4 -1 -1</clus>
<clus scale="  139.657">  1  5  2 -1</clus>
<clus scale="  139.657">  1  3  2 -1</clus>
</clustering>
</event>
<event>
 6    0  0.1438923E+002  0.9683221E+02  0.7546771E-02  0.1287102E+00
         21   -1    0    0  505  501  0.00000000000E+00  0.00000000000E+00  0.25604807785E+03  0.25604807785E+03  0.00000000000E+00 0. -1.
         21   -1    0    0  504  502 -0.00000000000E+00 -0.00000000000E+00 -0.97398824141E+03  0.97398824141E+03  0.00000000000E+00 0.  1.
         21    1    1    2  503  501 -0.62096124293E+02  0.60471905913E+00  0.11249788684E+03  0.12849929526E+03  0.00000000000E+00 0. -1.
         21    1    1    2  504  506  0.32194145927E+02  0.92476688010E+02 -0.94089063132E+03  0.94597229397E+03  0.00000000000E+00 0.  1.
         21    1    1    2  505  502  0.80442171459E+01 -0.33482978153E+02  0.85078200286E+01  0.35471146826E+02  0.00000000000E+00 0.  1.
         21    1    1    2  506  503  0.21857761220E+02 -0.59598428916E+02  0.10194476088E+03  0.12009358320E+03  0.00000000000E+00 0. -1.
<scales pt_clust_3="60.29441" pt_clust_4="14000.00000" pt_clust_5="34.43573" pt_clust_6="96.83221"></scales>
<clustering>
<clus scale="   34.436">  1  5  2 -1</clus>
<clus scale="   60.294">  1  3  2 -1</clus>
<clus scale="   96.832">  1  6  2 -1</clus>
<clus scale="   34.436">  1  3  2 -1</clus>
</clustering>
</event>
<event>
 6    0  0.1438923E+002  0.1208672E+03  0.7546771E-02  0.1241673E+00
         21   -1    0    0  505  501  0.00000000000E+00  0.00000000000E+00  0.17962062184E+03  0.17962062184E+03  0.00000000000E+00 0.  1.
         21   -1    0    0  504  502 -0.00000000000E+00 -0.00000000000E+00 -0.16573279670E+03  0.16573279670E+03  0.00000000000E+00 0.  1.
         21    1    1    2  503  502 -0.19987792040E+02  0.61704111320E+02  0.84999935844E+01  0.65415281665E+02  0.00000000000E+00 0.  1.
         21    1    1    2  504  506  0.42905491349E+02  0.11137549690E+02 -0.78286558068E+02  0.89965056412E+02  0.00000000000E+00 0.  1.
         21    1    1    2  505  503  0.18273002411E+02  0.43473436102E+02  0.22693859262E+02  0.52334056901E+02  0.00000000000E+00 0. -1.
         21    1    1    2  506  501 -0.41190701719E+02 -0.11631509711E+03  0.60980530366E+02  0.13763902356E+03  0.00000000000E+00 0.  1.
<scales pt_clust_3="36.44233" pt_clust_4="44.32749" pt_clust_5="36.44233" pt_clust_6="113.05878"></scales>
<clustering>
<clus scale="   36.442">  3  5 -1 -1</clus>
<clus scale="   44.327">  2  4  1 -1</clus>
<clus scale="  113.059">  1  6  2 -1</clus>
<clus scale="  113.059">  1  3  2 -1</clus>
</clustering>
</event>
<event>
 6    0  0.1438923E+002  0.8707056E+02  0.7546771E-02  0.1310105E+00
         21   -1    0    0  506  501  0.00000000000E+00  0.00000000000E+00  0.70998875645E+03  0.70998875645E+03  0.00000000000E+00 0. -1.
         21   -1    0    0  504  502 -0.00000000000E+00 -0.00000000000E+00 -0.97131031519E+02  0.97131031519E+02  0.00000000000E+00 0. -1.
         21    1    1    2  503  502  0.99516660426E+02  0.26189135038E+02  0.21943021235E+03  0.24236141316E+03  0.00000000000E+00 0. -1.
         21    1    1    2  504  505 -0.46180746369E+02 -0.18045572317E+02 -0.56368009039E+02  0.75071009441E+02  0.00000000000E+00 0. -1.
         21    1    1    2  505  501 -0.71008303420E+02  0.74228761611E+02  0.18242974461E+03  0.20936260392E+03  0.00000000000E+00 0. -1.
         21    1    1    2  506  503  0.17672389363E+02 -0.82372324332E+02  0.26736577702E+03  0.28032476145E+03  0.00000000000E+00 0. -1.
<scales pt_clust_3="84.95259" pt_clust_4="49.58129" pt_clust_5="14000.00000" pt_clust_6="87.07056"></scales>
<clustering>
<clus scale="   49.581">  2  4  1 -1</clus>
<clus scale="   84.953">  2  3  1 -1</clus>
<clus scale="   87.071">  1  6  2 -1</clus>
<clus scale="   87.071">  1  3  2 -1</clus>
</clustering>
</event>
<event>
 6    0  0.1438923E+002  0.1178955E+03  0.7546771E-02  0.1246610E+00
         21   -1    0    0  505  501  0.00000000000E+00  0.00000000000E+00  0.28489023450E+03  0.28489023450E+03  0.00000000000E+00 0.  1.
         21   -1    0    0  504  502 -0.00000000000E+00 -0.00000000000E+00 -0.44213385842E+03  0.44213385842E+03  0.00000000000E+00 0. -1.
         21    1    1    2  503  502  0.56527376663E+02 -0.31344289463E+02 -0.39210027088E+03  0.39739203719E+03  0.00000000000E+00 0. -1.
         21    1    1    2  504  501  0.68699998108E+02  0.58265761502E+02  0.73225978589E+02  0.11608889974E+03  0.00000000000E+00 0.  1.
         21    1    1    2  505  506 -0.87232248041E+02 -0.11034414206E+02  0.14404939227E+03  0.16876448326E+03  0.00000000000E+00 0.  1.
         21    1    1    2  506  503 -0.37995126730E+02 -0.15887057833E+02  0.17581276106E+02  0.44778672729E+02  0.00000000000E+00 0.  1.
<scales pt_clust_3="64.63597" pt_clust_4="104.06639" pt_clust_5="37.91694" pt_clust_6="37.91694"></scales>
<clustering>
<clus scale="   37.917">  5  6 -1 -1</clus>
<clus scale="   64.636">  2  3  1 -1</clus>
<clus scale="  104.066">  1  4  2 -1</clus>
<clus scale="  104.066">  1  3  2 -1</clus>
</clustering>
</event>
<event>
 6    0  0.1438923E+002  0.2145435E+03  0.7546771E-02  0.1138018E+00
         21   -1    0    0  503  501  0.00000000000E+00  0.00000000000E+00  0.64695065840E+02  0.64695065840E+02  0.00000000000E+00 0.  1.
         21   -1    0    0  504  502 -0.00000000000E+00 -0.00000000000E+00 -0.95885486015E+03  0.95885486015E+03  0.00000000000E+00 0.  1.
         21    1    1    2  503  502  0.10102309615E+03  0.18354693966E+03 -0.20920876185E+03  0.29608014295E+03  0.00000000000E+00 0.  1.
         21    1    1    2  504  505 -0.23895277194E+02 -0.18935064010E+02 -0.22147231489E+03  0.22356096972E+03  0.00000000000E+00 0.  1.
         21    1    1    2  505  506 -0.48620338615E+02 -0.13393080433E+03 -0.42013024437E+03  0.44363365507E+03  0.00000000000E+00 0.  1.
         21    1    1    2  506  501 -0.28507480340E+02 -0.30681071323E+02 -0.43348473194E+02  0.60275158242E+02  0.00000000000E+00 0. -1.
<scales pt_clust_3="199.90779" pt_clust_4="30.48805" pt_clust_5="41.10332" pt_clust_6="41.10332"></scales>
<clustering>
<clus scale="   30.488">  2  4  1 -1</clus>
<clus scale="   41.103">  5  6 -1 -1</clus>
<clus scale="  199.908">  1  3  2 -1</clus>
<clus scale="  199.908">  1  3  2 -1</clus>
</clustering>
</event>
<event>
 6    0  0.1438923E+002  0.1366140E+03  0.7546771E-02  0.1217959E+00
         21   -1    0    0  505  501  0.00000000000E+00  0.00000000000E+00  0.81543110763E+03  0.81543110763E+03  0.00000000000E+00 0. -1.
         21   -1    0    0  504  502 -0.00000000000E+00 -0.00000000000E+00 -0.91020652543E+02  0.91020652543E+02  0.00000000000E+00 0.  1.
         21    1    1    2  503  501  0.22234928653E+02 -0.35442859263E+02  0.44874420413E+03  0.45069052471E+03  0.00000000000E+00 0. -1.
         21    1    1    2  504  506 -0.99021438694E+02  0.85685104767E+02 -0.28134809241E+02  0.13393561883E+03  0.00000000000E+00 0.  1.
         21    1    1    2  505  502  0.29677629408E+02 -0.22439367033E+02  0.50736050925E+02  0.62916084936E+02  0.00000000000E+00 0.  1.
         21    1    1    2  506  503  0.47108880632E+02 -0.27802878470E+02  0.25306500927E+03  0.25890953170E+03  0.00000000000E+00 0. -1.
<scales pt_clust_3="45.27000" pt_clust_4="128.35848" pt_clust_5="37.20601" pt_clust_6="45.27000"></scales>
<clustering>
<clus scale="   37.206">  1  5  2 -1</clus>
<clus scale="   45.270">  3  6 -1 -1</clus>
<clus scale="  128.358">  2  4  1 -1</clus>
<clus scale="   37.206">  1  3  2 -1</clus>
</clustering>
</event>
<event>
 6    0  0.1438923E+002  0.6891423E+02  0.7546771E-02  0.1363825E+00
         21   -1    0    0  505  501  0.00000000000E+00  0.00000000000E+00  0.14766991647E+03  0.14766991647E+03  0.00000000000E+00 0.  1.
         21   -1    0    0  504  502 -0.00000000000E+00 -0.00000000000E+00 -0.22136982299E+03  0.22136982299E+03  0.00000000000E+00 0.  1.
         21    1    1    2  503  501  0.68761905398E+00  0.46183473538E+02  0.23194918910E+02  0.51685494205E+02  0.00000000000E+00 0.  1.
         21    1    1    2  504  506 -0.32365675732E+02  0.53103009932E+02 -0.11567617237E+03  0.13133332967E+03  0.00000000000E+00 0.  1.
         21    1    1    2  505  502  0.79960454841E+02 -0.10943821911E+03  0.17535581604E+02  0.13666709466E+03  0.00000000000E+00 0.  1.
         21    1    1    2  506  503 -0.48282398163E+02  0.10151735637E+02  0.12457653327E+01  0.49353820927E+02  0.00000000000E+00 0.  1.
<scales pt_clust_3="46.18859" pt_clust_4="68.91423" pt_clust_5="14000.00000" pt_clust_6="52.40810"></scales>
<clustering>
<clus scale="   46.189">  1  3  2 -1</clus>
<clus scale="   52.408">  1  6  2 -1</clus>
<clus scale="   68.914">  2  4  1 -1</clus>
<clus scale="   46.189">  1  3  2 -1</clus>
</clustering>
</event>
<event>
 6    0  0.1438923E+002  0.8284746E+02  0.7546771E-02  0.1321160E+00
         21   -1    0    0  504  501  0.00000000000E+00  0.00000000000E+00  0.11772639590E+04  0.11772639590E+04  0.00000000000E+00 0.  1.
         21   -1    0    0  503  502 -0.00000000000E+00 -0.00000000000E+00 -0.20584315958E+03  0.20584315958E+03  0.00000000000E+00 0.  1.
         21    1    1    2  503  505 -0.77380294990E+02 -0.75866925765E+01  0.95762774479E+02  0.12335224738E+03  0.00000000000E+00 0.  1.
         21    1    1    2  504  502  0.39023678760E+02 -0.66289134656E+01 -0.17328142277E+03  0.17774487749E+03  0.00000000000E+00 0.  1.
         21    1    1    2  505  506  0.10281010866E+03 -0.33589490567E+02  0.18458729903E+03  0.21394074713E+03  0.00000000000E+00 0.  1.
         21    1    1    2  506  501 -0.64453492433E+02  0.47805096610E+02  0.86435214868E+03  0.86806924660E+03  0.00000000000E+00 0.  1.
<scales pt_clust_3="60.56658" pt_clust_4="39.58270" pt_clust_5="82.84746" pt_clust_6="14000.00000"></scales>
<clustering>
<clus scale="   39.583">  2  4  1 -1</clus>
<clus scale="   60.567">  2  3  1 -1</clus>
<clus scale="   82.847">  2  5  1 -1</clus>
<clus scale="   82.847">  1  3  2 -1</clus>
</clustering>
</event>
<event>
 6    0  0.1438923E+002  0.2993614E+03  0.7546771E-02  0.1085560E+00
         21   -1    0    0  502  501  0.00000000000E+00  0.00000000000E+00  0.34760448925E+03  0.34760448925E+03  0.00000000000E+00 0.  1.
         21   -1    0    0  505  502 -0.00000000000E+00 -0.00000000000E+00 -0.25044567397E+04  0.25044567397E+04  0.00000000000E+00 0.  1.
         21    1    1    2  503  501  0.13892509811E+03 -0.24387667045E+03  0.27298978178E+03  0.39153471651E+03  0.00000000000E+00 0.  1.
         21    1    1    2  504  503 -0.66889639593E+02  0.89812563894E+02 -0.31134677198E+03  0.33087359057E+03  0.00000000000E+00 0.  1.
         21    1    1    2  505  506  0.25352933671E+01  0.35481350000E+02 -0.12009074678E+04  0.12014341847E+04  0.00000000000E+00 0.  1.
         21    1    1    2  506  504 -0.74570751880E+02  0.11858275656E+03 -0.91758779248E+03  0.92821873720E+03  0.00000000000E+00 0.  1.
<scales pt_clust_3="279.32704" pt_clust_4="92.45261" pt_clust_5="35.57181" pt_clust_6="92.45261"></scales>
<clustering>
<clus scale="   35.572">  2  5  1 -1</clus>
<clus scale="   92.453">  4  6 -1 -1</clus>
<clus scale="  279.327">  1  3  2 -1</clus>
<clus scale="  279.327">  1  3  2 -1</clus>
</clustering>
</event>
<event>
 6    0  0.1438923E+002  0.1351499E+03  0.7546771E-02  0.1220008E+00
         21   -1    0    0  505  501  0.00000000000E+00  0.00000000000E+00  0.10331453796E+03  0.10331453796E+03  0.00000000000E+00 0.  1.
         21   -1    0    0  506  502 -0.00000000000E+00 -0.00000000000E+00 -0.64245129222E+03  0.64245129222E+03  0.00000000000E+00 0. -1.
         21    1    1    2  503  502  0.10973275660E+03 -0.60701615359E+02 -0.55319158535E+03  0.56722737424E+03  0.00000000000E+00 0. -1.
         21    1    1    2  504  503 -0.39521628599E+02  0.52563289539E+00 -0.23212898727E+02  0.45837474673E+02  0.00000000000E+00 0.  1.
         21    1    1    2  505  504 -0.86216432130E+02  0.28269536382E+02  0.19402677521E+02  0.92784178347E+02  0.00000000000E+00 0.  1.
         21    1    1    2  506  501  0.16005304132E+02  0.31906446082E+02  0.17865052295E+02  0.39916802922E+02  0.00000000000E+00 0.  1.
<scales pt_clust_3="125.31265" pt_clust_4="33.40896" pt_clust_5="33.40896" pt_clust_6="35.69581"></scales>
<clustering>
<clus scale="   33.409">  4  5 -1 -1</clus>
<clus scale="   35.696">  1  6  2 -1</clus>
<clus scale="  125.313">  2  3  1 -1</clus>
<clus scale="   35.696">  1  3  2 -1</clus>
</clustering>
</event>
<event>
 6    0  0.1438923E+002  0.1664997E+03  0.7546771E-02  0.1181548E+00
         21   -1    0    0  506  501  0.00000000000E+00  0.00000000000E+00  0.36310174210E+03  0.36310174210E+03  0.00000000000E+00 0. -1.
         21   -1    0    0  505  502 -0.00000000000E+00 -0.00000000000E+00 -0.13389049822E+04  0.13389049822E+04  0.00000000000E+00 0.  1.
         21    1    1    2  503  501 -0.64446208552E+02  0.46681150853E+02  0.19877698171E+03  0.21411382978E+03  0.00000000000E+00 0. -1.
         21    1    1    2  504  502  0.82538951524E+02 -0.14099243956E+03 -0.12876759669E+04  0.12979988221E+04  0.00000000000E+00 0.  1.
         21    1    1    2  505  503 -0.56119290287E+02  0.33233725158E+02  0.95803787272E+02  0.11589745850E+03  0.00000000000E+00 0. -1.
         21    1    1    2  506  504  0.38026547316E+02  0.61077563550E+02  0.17291957766E+02  0.73996613931E+02  0.00000000000E+00 0. -1.
<scales pt_clust_3="31.45512" pt_clust_4="162.83413" pt_clust_5="31.45512" pt_clust_6="71.94781"></scales>
<clustering>
<clus scale="   31.455">  3  5 -1 -1</clus>
<clus scale="   71.948">  1  6  2 -1</clus>
<clus scale="  162.834">  2  4  1 -1</clus>
<clus scale="   71.948">  1  3  2 -1</clus>
</clustering>
</event>
<event>
 6    0  0.1438923E+002  0.1383648E+03  0.7546771E-02  0.1215546E+00
         21   -1    0    0  503  501  0.00000000000E+00  0.00000000000E+00  0.60581305115E+03  0.60581305115E+03  0.00000000000E+00 0.  1.
         21   -1    0    0  506  502 -0.00000000000E+00 -0.00000000000E+00 -0.25548764481E+04  0.25548764481E+04  0.00000000000E+00 0.  1.
         21    1    1    2  503  504  0.40346054375E+02  0.19588886458E+01  0.26478228107E+03  0.26784566025E+03  0.00000000000E+00 0.  1.
         21    1    1    2  504  502  0.83517897647E+02  0.42647609401E+02  0.30618484941E+03  0.32022370278E+03  0.00000000000E+00 0.  1.
         21    1    1    2  505  501 -0.97216140931E+02 -0.24703152216E+02 -0.69888356166E+02  0.12225222335E+03  0.00000000000E+00 0. -1.
         21    1    1    2  506  505 -0.26647811091E+02 -0.19903345832E+02 -0.24501421713E+04  0.24503679129E+04  0.00000000000E+00 0.  1.
<scales pt_clust_3="32.75040" pt_clust_4="32.75040" pt_clust_5="129.05317" pt_clust_6="33.26032"></scales>
<clustering>
<clus scale="   32.750">  3  4 -1 -1</clus>
<clus scale="   33.260">  2  6  1 -1</clus>
<clus scale="  129.053">  2  5  1 -1</clus>
<clus scale="  138.365">  1  3  2 -1</clus>
</clustering>
</event>
<event>
 6    0  0.1438923E+002  0.2410091E+03  0.7546771E-02  0.1119122E+00
         21   -1    0    0  505  501  0.00000000000E+00  0.00000000000E+00  0.46575016263E+03  0.46575016263E+03  0.00000000000E+00 0. -1.
         21   -1    0    0  503  502 -0.00000000000E+00 -0.00000000000E+00 -0.47790594791E+03  0.47790594791E+03  0.00000000000E+00 0.  1.
         21    1    1    2  503  506 -0.49605857656E+02  0.22631734790E+02  0.39401136231E+02  0.67270989807E+02  0.00000000000E+00 0.  1.
         21    1    1    2  504  501 -0.50819180617E+02 -0.64524928529E+01  0.94002733552E+02  0.10705483500E+03  0.00000000000E+00 0. -1.
         21    1    1    2  505  502  0.20433047037E+03 -0.76122101007E+02 -0.41810870125E+03  0.47155105921E+03  0.00000000000E+00 0.  1.
         21    1    1    2  506  504 -0.10390543209E+03  0.59942859069E+02  0.27254904618E+03  0.29777922652E+03  0.00000000000E+00 0. -1.
<scales pt_clust_3="49.49996" pt_clust_4="34.14124" pt_clust_5="218.04934" pt_clust_6="49.49996"></scales>
<clustering>
<clus scale="   34.141">  4  6 -1 -1</clus>
<clus scale="   49.500">  3  4 -1 -1</clus>
<clus scale="  218.049">  2  5  1 -1</clus>
<clus scale="  241.009">  1  3  2 -1</clus>
</clustering>
</event>
<event>
 6    0  0.1438923E+002  0.1124332E+03  0.7546771E-02  0.1256129E+00
         21   -1    0    0  504  501  0.00000000000E+00  0.00000000000E+00  0.12128580975E+04  0.12128580975E+04  0.00000000000E+00 0. -1.
         21   -1    0    0  506  502 -0.00000000000E+00 -0.00000000000E+00 -0.38911938494E+02  0.38911938494E+02  0.00000000000E+00 0. -1.
         21    1    1    2  503  501 -0.34003068443E+02  0.17651211309E+02  0.38147934012E+03  0.38339830576E+03  0.00000000000E+00 0. -1.
         21    1    1    2  504  505  0.56613432805E+02 -0.13600099376E+03  0.33998733248E+03  0.37053034602E+03  0.00000000000E+00 0. -1.
         21    1    1    2  505  502 -0.17698903639E+02  0.29526744496E+02 -0.22439411364E+01  0.34498044907E+02  0.00000000000E+00 0. -1.
         21    1    1    2  506  503 -0.49114607234E+01  0.88823037954E+02  0.45472342756E+03  0.46334333931E+03  0.00000000000E+00 0. -1.
<scales pt_clust_3="39.68970" pt_clust_4="112.43320" pt_clust_5="34.42499" pt_clust_6="14000.00000"></scales>
<clustering>
<clus scale="   34.425">  2  5  1 -1</clus>
<clus scale="   39.690">  1  3  2 -1</clus>
<clus scale="  112.433">  2  4  1 -1</clus>
<clus scale="   39.690">  1  3  2 -1</clus>
</clustering>
</event>
<event>
 6    0  0.1438923E+002  0.9819384E+02  0.7546771E-02  0.1284141E+00
         21   -1    0    0  504  501  0.00000000000E+00  0.00000000000E+00  0.17441086883E+03  0.17441086883E+03  0.00000000000E+00 0. -1.
         21   -1    0    0  503  502 -0.00000000000E+00 -0.00000000000E+00 -0.14976918837E+04  0.14976918837E+04  0.00000000000E+00 0. -1.
         21    1    1    2  503  506 -0.71567480668E+02  0.63550459509E+02 -0.12949413476E+04  0.12984735880E+04  0.00000000000E+00 0. -1.
         21    1    1    2  504  505 -0.35297777228E+02  0.82436834921E+02  0.98619275364E+02  0.13329488476E+03  0.00000000000E+00 0. -1.
         21    1    1    2  505  502  0.12168403198E+03 -0.11856674622E+03 -0.90950508859E+02  0.19270981296E+03  0.00000000000E+00 0. -1.
         21    1    1    2  506  501 -0.14818774083E+02 -0.27420548208E+02 -0.36008433789E+02  0.47624466751E+02  0.00000000000E+00 0. -1.
<scales pt_clust_3="14000.00000" pt_clust_4="78.17599" pt_clust_5="98.19384" pt_clust_6="31.16861"></scales>
<clustering>
<clus scale="   31.169">  1  6  2 -1</clus>
<clus scale="   78.176">  1  4  2 -1</clus>
<clus scale="   98.194">  1  5  2 -1</clus>
<clus scale="   31.169">  1  3  2 -1</clus>
</clustering>
</event>
<event>
 6    0  0.1438923E+002  0.6681405E+02  0.7546771E-02  0.1371275E+00
         21   -1    0    0  506  501  0.00000000000E+00  0.00000000000E+00  0.20345709412E+02  0.20345709412E+02  0.00000000000E+00 0. -1.
         21   -1    0    0  504  502 -0.00000000000E+00 -0.00000000000E+00 -0.97818299589E+03  0.97818299589E+03  0.00000000000E+00 0. -1.
         21    1    1    2  503  501  0.28461457343E+01 -0.69099975257E+02 -0.32983317569E+03  0.33700568380E+03  0.00000000000E+00 0. -1.
         21    1    1    2  504  503  0.71078430759E+02  0.17877741078E+01 -0.38653974320E+03  0.39302456988E+03  0.00000000000E+00 0. -1.
         21    1    1    2  505  502 -0.58883342423E+02  0.15963748416E+02 -0.15785046139E+03  0.16923019068E+03  0.00000000000E+00 0. -1.
         21    1    1    2  506  505 -0.15041234070E+02  0.51348452733E+02 -0.83613906191E+02  0.99268260934E+02  0.00000000000E+00 0. -1.
<scales pt_clust_3="54.40956" pt_clust_4="66.81405" pt_clust_5="14000.00000" pt_clust_6="53.50610"></scales>
<clustering>
<clus scale="   53.506">  1  6  2 -1</clus>
<clus scale="   54.410">  1  3  2 -1</clus>
<clus scale="   66.814">  2  4  1 -1</clus>
<clus scale="   53.506">  1  3  2 -1</clus>
</clustering>
</event>
<event>
 6    0  0.1438923E+002  0.1089192E+03  0.7546771E-02  0.1262585E+00
         21   -1    0    0  505  501  0.00000000000E+00  0.00000000000E+00  0.76923411210E+02  0.76923411210E+02  0.00000000000E+00 0.  1.
         21   -1    0    0  504  502 -0.00000000000E+00 -0.00000000000E+00 -0.15571289854E+04  0.15571289854E+04  0.00000000000E+00 0.  1.
         21    1    1    2  503  506  0.10020830280E+02  0.60047012635E+02 -0.93567287466E+02  0.11162839267E+03  0.00000000000E+00 0.  1.
         21    1    1    2  504  501 -0.87591065792E+02 -0.61146580004E+02 -0.34345980688E+01  0.10687794682E+03  0.00000000000E+00 0.  1.
         21    1    1    2  505  503  0.15134992133E+02  0.58332288432E+02 -0.46387689341E+02  0.76049599492E+02  0.00000000000E+00 0.  1.
         21    1    1    2  506  502  0.62435243379E+02 -0.57232721062E+02 -0.13368159993E+04  0.13394964576E+04  0.00000000000E+00 0.  1.
<scales pt_clust_3="31.29198" pt_clust_4="104.27957" pt_clust_5="31.29198" pt_clust_6="84.69796"></scales>
<clustering>
<clus scale="   31.292">  3  5 -1 -1</clus>
<clus scale="   84.698">  2  6  1 -1</clus>
<clus scale="  104.280">  1  4  2 -1</clus>
<clus scale="  104.280">  1  3  2 -1</clus>
</clustering>
</event>
<event>
 6    0  0.1438923E+002  0.1820702E+03  0.7546771E-02  0.1165814E+00
         21   -1    0    0  504  501  0.00000000000E+00  0.00000000000E+00  0.40869162553E+02  0.40869162553E+02  0.00000000000E+00 0. -1.
         21   -1    0    0  506  502 -0.00000000000E+00 -0.00000000000E+00 -0.20686202137E+04  0.20686202137E+04  0.00000000000E+00 0. -1.
         21    1    1    2  503  501  0.26518567351E+01 -0.17260502225E+03 -0.22835285602E+03  0.28625959006E+03  0.00000000000E+00 0. -1.
         21    1    1    2  504  505 -0.51536369548E+02  0.11075516968E+03 -0.56684185930E+03  0.57985549790E+03  0.00000000000E+00 0. -1.
         21    1    1    2  505  502  0.43446366459E+01  0.63283278737E+02 -0.19916075620E+03  0.20901831509E+03  0.00000000000E+00 0. -1.
         21    1    1    2  506  503  0.44539876167E+02 -0.14334261701E+01 -0.10333955796E+04  0.10343559732E+04  0.00000000000E+00 0. -1.
<scales pt_clust_3="173.50536" pt_clust_4="39.76660" pt_clust_5="39.76660" pt_clust_6="44.56294"></scales>
<clustering>
<clus scale="   39.767">  4  5 -1 -1</clus>
<clus scale="   44.563">  2  6  1 -1</clus>
<clus scale="  173.505">  1  3  2 -1</clus>
<clus scale="  173.505">  1  3  2 -1</clus>
</clustering>
</event>
<event>
 6    0  0.1438923E+002  0.2568858E+03  0.7546771E-02  0.1109029E+00
         21   -1    0    0  506  501  0.00000000000E+00  0.00000000000E+00  0.36783473465E+03  0.36783473465E+03  0.00000000000E+00 0. -1.
         21   -1    0    0  503  502 -0.00000000000E+00 -0.00000000000E+00 -0.45440999364E+03  0.45440999364E+03  0.00000000000E+00 0. -1.
         21    1    1    2  503  505 -0.15849515859E+03  0.14201879279E+03 -0.14982202234E+02  0.21334132086E+03  0.00000000000E+00 0. -1.
         21    1    1    2  504  502  0.13033320696E+03 -0.30448479079E+03 -0.69532407374E+02  0.33842648882E+03  0.00000000000E+00 0. -1.
         21    1    1    2  505  501  0.81587493109E+02  0.17992210128E+03 -0.41431803885E+02  0.20185409566E+03  0.00000000000E+00 0.  1.
         21    1    1    2  506  504 -0.53425541478E+02 -0.17456103277E+02  0.39371154504E+02  0.68622822959E+02  0.00000000000E+00 0. -1.
<scales pt_clust_3="256.88582" pt_clust_4="14000.00000" pt_clust_5="188.15238" pt_clust_6="56.20502"></scales>
<clustering>
<clus scale="   56.205">  1  6  2 -1</clus>
<clus scale="  188.152">  1  5  2 -1</clus>
<clus scale="  256.886">  2  3  1 -1</clus>
<clus scale="   56.205">  1  3  2 -1</clus>
</clustering>
</event>
<event>
 6    0  0.1438923E+002  0.2009156E+03  0.7546771E-02  0.1148969E+00
         21   -1    0    0  504  501  0.00000000000E+00  0.00000000000E+00  0.17364166089E+03  0.17364166089E+03  0.00000000000E+00 0. -1.
         21   -1    0    0  505  502 -0.00000000000E+00 -0.00000000000E+00 -0.28477345655E+03  0.28477345655E+03  0.00000000000E+00 0. -1.
         21    1    1    2  503  501  0.13820022273E+03 -0.92430769180E+02  0.72511921205E+01  0.16641913484E+03  0.00000000000E+00 0. -1.
         21    1    1    2  504  502 -0.17585320260E+01  0.43173719470E+02 -0.38376487472E+02  0.57791152251E+02  0.00000000000E+00 0.  1.
         21    1    1    2  505  506 -0.17548328753E+03  0.41046675904E+02 -0.65422965578E+02  0.19172735389E+03  0.00000000000E+00 0. -1.
         21    1    1    2  506  503  0.39041596825E+02  0.82103738064E+01 -0.14583534730E+02  0.42477476454E+02  0.00000000000E+00 0.  1.
<scales pt_clust_3="34.90120" pt_clust_4="43.20952" pt_clust_5="187.85837" pt_clust_6="34.90120"></scales>
<clustering>
<clus scale="   34.901">  3  6 -1 -1</clus>
<clus scale="   43.210">  2  4  1 -1</clus>
<clus scale="  187.858">  2  5  1 -1</clus>
<clus scale="  200.916">  1  3  2 -1</clus>
</clustering>
</event>
<event>
 6    0  0.1438923E+002  0.1418542E+03  0.7546771E-02  0.1210856E+00
         21   -1    0    0  504  501  0.00000000000E+00  0.00000000000E+00  0.25795768180E+03  0.25795768180E+03  0.00000000000E+00 0.  1.
         21   -1    0    0  505  502 -0.00000000000E+00 -0.00000000000E+00 -0.20157439513E+04  0.20157439513E+04  0.00000000000E+00 0.  1.
         21    1    1    2  503  501  0.95362814435E+02  0.10866469844E+03  0.22377773355E+03  0.26641801196E+03  0.00000000000E+00 0.  1.
         21    1    1    2  504  506 -0.46561248741E+02 -0.91291243894E+02 -0.32420736417E+03  0.34001831727E+03  0.00000000000E+00 0.  1.
         21    1    1    2  505  503 -0.37739325841E+02  0.27597507182E+02 -0.11401053779E+03  0.12322451803E+03  0.00000000000E+00 0.  1.
         21    1    1    2  506  502 -0.11062239853E+02 -0.44970961725E+02 -0.15433461011E+04  0.15440407859E+04  0.00000000000E+00 0.  1.
<scales pt_clust_3="141.85420" pt_clust_4="14000.00000" pt_clust_5="43.67369" pt_clust_6="46.31156"></scales>
<clustering>
<clus scale="   46.312">  2  6  1 -1</clus>
<clus scale="   43.674">  2  5  1 -1</clus>
<clus scale="  141.854">  1  3  2 -1</clus>
<clus scale="  141.854">  1  3  2 -1</clus>
</clustering>
</event>
<event>
 6    0  0.1438923E+002  0.2439859E+03  0.7546771E-02  0.1117166E+00
         21   -1    0    0  503  501  0.00000000000E+00  0.00000000000E+00  0.64258596077E+03  0.64258596077E+03  0.00000000000E+00 0.  1.
         21   -1    0    0  506  502 -0.00000000000E+00 -0.00000000000E+00 -0.26280033818E+03  0.26280033818E+03  0.00000000000E+00 0.  1.
         21    1    1    2  503  504  0.11904062869E+03  0.32180479931E+02  0.21962541972E+03  0.25187611946E+03  0.00000000000E+00 0.  1.
         21    1    1    2  504  505  0.29440754423E+02 -0.22648424177E+02  0.90878911058E+02  0.98176807922E+02  0.00000000000E+00 0.  1.
         21    1    1    2  505  502  0.48377645586E+02 -0.15952426012E+03  0.21196282568E+03  0.26966020402E+03  0.00000000000E+00 0.  1.
         21    1    1    2  506  501 -0.19685902870E+03  0.14999220437E+03 -0.14268153387E+03  0.28567316755E+03  0.00000000000E+00 0.  1.
<scales pt_clust_3="123.31364" pt_clust_4="31.12747" pt_clust_5="31.12747" pt_clust_6="234.90585"></scales>
<clustering>
<clus scale="   31.127">  4  5 -1 -1</clus>
<clus scale="  123.314">  1  3  2 -1</clus>
<clus scale="  234.906">  2  6  1 -1</clus>
<clus scale="  123.314">  1  3  2 -1</clus>
</clustering>
</event>
<event>
 6    0  0.1438923E+002  0.1381011E+03  0.7546771E-02  0.1215907E+00
         21   -1    0    0  504  501  0.00000000000E+00  0.00000000000E+00  0.65580598177E+03  0.65580598177E+03  0.00000000000E+00 0. -1.
         21   -1    0    0  503  502 -0.00000000000E+00 -0.00000000000E+00 -0.87012502475E+02  0.87012502475E+02  0.00000000000E+00 0. -1.
         21    1    1    2  503  501 -0.19468728667E+03  0.20126081682E+02  0.10746351395E+03  0.22328592787E+03  0.00000000000E+00 0. -1.
         21    1    1    2  504  505  0.75734514262E+02 -0.57395931272E+01  0.30744652955E+03  0.31668916640E+03  0.00000000000E+00 0. -1.
         21    1    1    2  505  506  0.38427365229E+02 -0.23062220648E+02  0.86762983907E+02  0.97654205215E+02  0.00000000000E+00 0. -1.
         21    1    1    2  506  502  0.80525407182E+02  0.86757320931E+01  0.67120451883E+02  0.10518918476E+03  0.00000000000E+00 0. -1.
<scales pt_clust_3="129.05465" pt_clust_4="37.76348" pt_clust_5="37.76348" pt_clust_6="80.99142"></scales>
<clustering>
<clus scale="   37.763">  4  5 -1 -1</clus>
<clus scale="   80.991">  2  6  1 -1</clus>
<clus scale="  129.055">  2  3  1 -1</clus>
<clus scale="  138.101">  1  3  2 -1</clus>
</clustering>
</event>
<event>
 6    0  0.1438923E+002  0.2181638E+03  0.7546771E-02  0.1135259E+00
         21   -1    0    0  504  501  0.00000000000E+00  0.00000000000E+00  0.73933715474E+02  0.73933715474E+02  0.00000000000E+00 0. -1.
         21   -1    0    0  505  502 -0.00000000000E+00 -0.00000000000E+00 -0.18634042320E+04  0.18634042320E+04  0.00000000000E+00 0.  1.
         21    1    1    2  503  506  0.21442458212E+02 -0.31898974061E+02 -0.57603264308E+02  0.69249257175E+02  0.00000000000E+00 0. -1.
         21    1    1    2  504  502  0.26090229796E+02  0.20136283175E+02 -0.85762650167E+01  0.34054695896E+02  0.00000000000E+00 0. -1.
         21    1    1    2  505  503 -0.18703605871E+03  0.95077285049E+02 -0.16363533119E+04  0.16497497807E+04  0.00000000000E+00 0.  1.
         21    1    1    2  506  501  0.13950337071E+03 -0.83314594163E+02 -0.86937675234E+02  0.18428421369E+03  0.00000000000E+00 0. -1.
<scales pt_clust_3="31.55501" pt_clust_4="32.95709" pt_clust_5="208.29315" pt_clust_6="31.55501"></scales>
<clustering>
<clus scale="   31.555">  3  6 -1 -1</clus>
<clus scale="   32.957">  1  4  2 -1</clus>
<clus scale="  208.293">  2  5  1 -1</clus>
<clus scale="   32.957">  1  3  2 -1</clus>
</clustering>
</event>
<event>
 6    0  0.1438923E+002  0.7393716E+02  0.7546771E-02  0.1347194E+00
         21   -1    0    0  503  501  0.00000000000E+00  0.00000000000E+00  0.13361948188E+03  0.13361948188E+03  0.00000000000E+00 0.  1.
         21   -1    0    0  505  502 -0.00000000000E+00 -0.00000000000E+00 -0.17232737512E+03  0.17232737512E+03  0.00000000000E+00 0.  1.
         21    1    1    2  503  506 -0.59212700728E+02 -0.86075337479E+01 -0.14241356529E+01  0.59851998522E+02  0.00000000000E+00 0.  1.
         21    1    1    2  504  501  0.53017579692E+02  0.77959094603E+00  0.49367721376E+02  0.72447521920E+02  0.00000000000E+00 0.  1.
         21    1    1    2  505  504  0.56361625042E+01 -0.69317126979E+02 -0.21855586914E+02  0.72899225646E+02  0.00000000000E+00 0.  1.
         21    1    1    2  506  502  0.55895853211E+00  0.77145069781E+02 -0.64795892053E+02  0.10074811092E+03  0.00000000000E+00 0.  1.
<scales pt_clust_3="38.80819" pt_clust_4="53.02331" pt_clust_5="14000.00000" pt_clust_6="73.93716"></scales>
<clustering>
<clus scale="   53.023">  1  4  2 -1</clus>
<clus scale="   38.808">  1  3  2 -1</clus>
<clus scale="   73.937">  2  6  1 -1</clus>
<clus scale="   53.023">  1  3  2 -1</clus>
</clustering>
</event>
<event>
 6    0  0.1438923E+002  0.1674334E+03  0.7546771E-02  0.1180551E+00
         21   -1    0    0  504  501  0.00000000000E+00  0.00000000000E+00  0.49691436499E+03  0.49691436499E+03  0.00000000000E+00 0.  1.
         21   -1    0    0  505  502 -0.00000000000E+00 -0.00000000000E+00 -0.15156965974E+04  0.15156965974E+04  0.00000000000E+00 0.  1.
         21    1    1    2  503  506 -0.66450146284E+02 -0.13863422184E+03 -0.31874800547E+02  0.15700659959E+03  0.00000000000E+00 0.  1.
         21    1    1    2  504  502  0.57680259528E+02 -0.20034062126E+01 -0.40098151351E+02  0.70277220473E+02  0.00000000000E+00 0. -1.
         21    1    1    2  505  503 -0.39246814098E+01 -0.30569220405E+02 -0.13483103012E+04  0.13486625036E+04  0.00000000000E+00 0.  1.
         21    1    1    2  506  501  0.12694568166E+02  0.17120684845E+03  0.40150102073E+03  0.43666463867E+03  0.00000000000E+00 0.  1.
<scales pt_clust_3="167.43344" pt_clust_4="57.66710" pt_clust_5="30.82013" pt_clust_6="14000.00000"></scales>
<clustering>
<clus scale="   30.820">  2  5  1 -1</clus>
<clus scale="   57.667">  2  4  1 -1</clus>
<clus scale="  167.433">  2  3  1 -1</clus>
<clus scale="  167.433">  1  3  2 -1</clus>
</clustering>
</event>
<event>
 6    0  0.1438923E+002  0.1283785E+03  0.7546771E-02  0.1229882E+00
         21   -1    0    0  504  501  0.00000000000E+00  0.00000000000E+00  0.87632388092E+01  0.87632388092E+01  0.00000000000E+00 0.  1.
         21   -1    0    0  503  502 -0.00000000000E+00 -0.00000000000E+00 -0.23433657484E+04  0.23433657484E+04  0.00000000000E+00 0. -1.
         21    1    1    2  503  505 -0.78496475719E+02  0.27333709925E+02 -0.82440677956E+03  0.82858636640E+03  0.00000000000E+00 0.  1.
         21    1    1    2  504  506  0.27746825413E+02  0.13468527711E+02 -0.17006485763E+03  0.17283906781E+03  0.00000000000E+00 0.  1.
         21    1    1    2  505  501 -0.37763682967E+02  0.32163179342E+02 -0.27744705184E+03  0.28184646961E+03  0.00000000000E+00 0.  1.
         21    1    1    2  506  502  0.88513333274E+02 -0.72965416978E+02 -0.10626838206E+04  0.10688570834E+04  0.00000000000E+00 0. -1.
<scales pt_clust_3="34.09715" pt_clust_4="30.84295" pt_clust_5="34.09715" pt_clust_6="120.65704"></scales>
<clustering>
<clus scale="   30.843">  1  4  2 -1</clus>
<clus scale="   34.097">  3  5 -1 -1</clus>
<clus scale="  120.657">  2  6  1 -1</clus>
<clus scale="   30.843">  1  3  2 -1</clus>
</clustering>
</event>
<event>
 6    0  0.1438923E+002  0.1342092E+03  0.7546771E-02  0.1221340E+00
         21   -1    0    0  505  501  0.00000000000E+00  0.00000000000E+00  0.98557674036E+03  0.98557674036E+03  0.00000000000E+00 0.  1.
         21   -1    0    0  503  502 -0.00000000000E+00 -0.00000000000E+00 -0.14292639219E+04  0.14292639219E+04  0.00000000000E+00 0. -1.
         21    1    1    2  503  501  0.97140732957E+02  0.70357763371E-01  0.57539883025E+03  0.58354103609E+03  0.00000000000E+00 0.  1.
         21    1    1    2  504  502 -0.13400943981E+03  0.10446329279E+02 -0.14050515950E+04  0.14114664858E+04  0.00000000000E+00 0. -1.
         21    1    1    2  505  506  0.94208844279E+01  0.45515265869E+02  0.33787510472E+03  0.34105714899E+03  0.00000000000E+00 0.  1.
         21    1    1    2  506  504  0.27447822427E+02 -0.56031952912E+02  0.48090478498E+02  0.78775991427E+02  0.00000000000E+00 0. -1.
<scales pt_clust_3="134.20915" pt_clust_4="14000.00000" pt_clust_5="46.48002" pt_clust_6="58.85402"></scales>
<clustering>
<clus scale="   46.480">  1  5  2 -1</clus>
<clus scale="   58.854">  1  6  2 -1</clus>
<clus scale="  134.209">  1  3  2 -1</clus>
<clus scale="   46.480">  1  3  2 -1</clus>
</clustering>
</event>
<event>
 6    0  0.1438923E+002  0.7259515E+02  0.7546771E-02  0.1351484E+00
         21   -1    0    0  506  501  0.00000000000E+00  0.00000000000E+00  0.51457176598E+03  0.51457176598E+03  0.00000000000E+00 0. -1.
         21   -1    0    0  504  502 -0.00000000000E+00 -0.00000000000E+00 -0.27135106108E+03  0.27135106108E+03  0.00000000000E+00 0. -1.
         21    1    1    2  503  502  0.71766361391E+02  0.11105054741E+02 -0.22783466333E+03  0.23912834771E+03  0.00000000000E+00 0. -1.
         21    1    1    2  504  505  0.65474972548E+01  0.72359448371E+02  0.24806763236E+02  0.76773270030E+02  0.00000000000E+00 0. -1.
         21    1    1    2  505  501 -0.14597007333E+02 -0.33639599894E+02  0.34314945609E+02  0.50221616822E+02  0.00000000000E+00 0.  1.
         21    1    1    2  506  503 -0.63716851312E+02 -0.49824903218E+02  0.41193365938E+03  0.41979959249E+03  0.00000000000E+00 0. -1.
<scales pt_clust_3="72.59515" pt_clust_4="68.92194" pt_clust_5="36.67009" pt_clust_6="14000.00000"></scales>
<clustering>
<clus scale="   36.670">  1  5  2 -1</clus>
<clus scale="   68.922">  1  4  2 -1</clus>
<clus scale="   72.595">  2  3  1 -1</clus>
<clus scale="   36.670">  1  3  2 -1</clus>
</clustering>
</event>
<event>
 6    0  0.1438923E+002  0.1702849E+03  0.7546771E-02  0.1177551E+00
         21   -1    0    0  504  501  0.00000000000E+00  0.00000000000E+00  0.30064159027E+03  0.30064159027E+03  0.00000000000E+00 0.  1.
         21   -1    0    0  503  502 -0.00000000000E+00 -0.00000000000E+00 -0.29728933463E+03  0.29728933463E+03  0.00000000000E+00 0.  1.
         21    1    1    2  503  505 -0.91293863912E+02  0.84260348989E+02  0.99691838004E+02  0.15928853871E+03  0.00000000000E+00 0.  1.
         21    1    1    2  504  506  0.47101497433E+02 -0.13380849950E+03  0.61197697276E+02  0.15449408970E+03  0.00000000000E+00 0.  1.
         21    1    1    2  505  501  0.55293318719E+01  0.56422449064E+02  0.48374009862E+02  0.74525908914E+02  0.00000000000E+00 0.  1.
         21    1    1    2  506  502  0.38663034607E+02 -0.68742985493E+01 -0.20591128950E+03  0.20962238757E+03  0.00000000000E+00 0.  1.
<scales pt_clust_3="52.81993" pt_clust_4="152.96551" pt_clust_5="52.81993" pt_clust_6="39.26941"></scales>
<clustering>
<clus scale="   39.269">  2  6  1 -1</clus>
<clus scale="   52.820">  3  5 -1 -1</clus>
<clus scale="  152.966">  2  4  1 -1</clus>
<clus scale="  170.285">  1  3  2 -1</clus>
</clustering>
</event>
<event>
 6    0  0.1438923E+002  0.1429278E+03  0.7546771E-02  0.1209443E+00
         21   -1    0    0  506  501  0.00000000000E+00  0.00000000000E+00  0.98772286789E+03  0.98772286789E+03  0.00000000000E+00 0.  1.
         21   -1    0    0  505  502 -0.00000000000E+00 -0.00000000000E+00 -0.62945712001E+03  0.62945712001E+03  0.00000000000E+00 0.  1.
         21    1    1    2  503  502  0.35361230752E+02 -0.16017696674E+02  0.14262429949E+03  0.14781296984E+03  0.00000000000E+00 0.  1.
         21    1    1    2  504  501 -0.15633698616E+03  0.51844789044E+02  0.55859461441E+03  0.58237194184E+03  0.00000000000E+00 0.  1.
         21    1    1    2  505  504  0.43436735486E+02 -0.76953796017E+02 -0.60459766609E+03  0.61102125540E+03  0.00000000000E+00 0.  1.
         21    1    1    2  506  503  0.77539019917E+02  0.41126703647E+02  0.26164450008E+03  0.27597382083E+03  0.00000000000E+00 0.  1.
<scales pt_clust_3="35.09691" pt_clust_4="132.82810" pt_clust_5="88.36649" pt_clust_6="35.09691"></scales>
<clustering>
<clus scale="   35.097">  3  6 -1 -1</clus>
<clus scale="   88.366">  2  5  1 -1</clus>
<clus scale="  132.828">  2  4  1 -1</clus>
<clus scale="  142.928">  1  3  2 -1</clus>
</clustering>
</event>
<event>
 6    0  0.1438923E+002  0.1003691E+03  0.7546771E-02  0.1279522E+00
         21   -1    0    0  505  501  0.00000000000E+00  0.00000000000E+00  0.42232600348E+03  0.42232600348E+03  0.00000000000E+00 0. -1.
         21   -1    0    0  504  502 -0.00000000000E+00 -0.00000000000E+00 -0.60987051971E+03  0.60987051971E+03  0.00000000000E+00 0. -1.
         21    1    1    2  503  506 -0.11961887003E+03  0.39964171440E+00  0.19482781302E+03  0.22861913855E+03  0.00000000000E+00 0. -1.
         21    1    1    2  504  503  0.72691481078E+02  0.69619766901E+02 -0.56718591575E+03  0.57604759039E+03  0.00000000000E+00 0. -1.
         21    1    1    2  505  502 -0.23622339669E+02 -0.21954225733E+02  0.11332287583E+02  0.34182213223E+02  0.00000000000E+00 0. -1.
         21    1    1    2  506  501  0.70549728623E+02 -0.48065182883E+02  0.17348129892E+03  0.19334758103E+03  0.00000000000E+00 0. -1.
<scales pt_clust_3="100.36906" pt_clust_4="14000.00000" pt_clust_5="32.24908" pt_clust_6="83.33930"></scales>
<clustering>
<clus scale="   32.249">  1  5  2 -1</clus>
<clus scale="   83.339">  1  6  2 -1</clus>
<clus scale="  100.369">  1  3  2 -1</clus>
<clus scale="   32.249">  1  3  2 -1</clus>
</clustering>
</event>
<event>
 6    0  0.1438923E+002  0.1790600E+03  0.7546771E-02  0.1168716E+00
         21   -1    0    0  504  501  0.00000000000E+00  0.00000000000E+00  0.43399432151E+03  0.43399432151E+03  0.00000000000E+00 0.  1.
         21   -1    0    0  505  502 -0.00000000000E+00 -0.00000000000E+00 -0.21595731342E+03  0.21595731342E+03  0.00000000000E+00 0.  1.
         21    1    1    2  503  502  0.34861880400E+02 -0.21280951885E+03 -0.88928529167E+02  0.23326278168E+03  0.00000000000E+00 0.  1.
         21    1    1    2  504  506  0.32014619970E+02  0.26696470826E+02  0.10840195821E+03  0.11614052691E+03  0.00000000000E+00 0.  1.
         21    1    1    2  505  501 -0.38685519880E+02  0.32735497863E+02  0.34830144150E+01  0.50796787872E+02  0.00000000000E+00 0.  1.
         21    1    1    2  506  503 -0.28190980490E+02  0.15337755016E+03  0.19508056463E+03  0.24975153848E+03  0.00000000000E+00 0.  1.
<scales pt_clust_3="179.05999" pt_clust_4="41.68498" pt_clust_5="50.19001" pt_clust_6="14000.00000"></scales>
<clustering>
<clus scale="   41.685">  1  4  2 -1</clus>
<clus scale="   50.190">  2  5  1 -1</clus>
<clus scale="  179.060">  2  3  1 -1</clus>
<clus scale="   41.685">  1  3  2 -1</clus>
</clustering>
</event>
<event>
 6    0  0.1438923E+002  0.1005882E+03  0.7546771E-02  0.1279064E+00
         21   -1    0    0  504  501  0.00000000000E+00  0.00000000000E+00  0.20858770409E+03  0.20858770409E+03  0.00000000000E+00 0.  1.
         21   -1    0    0  506  502 -0.00000000000E+00 -0.00000000000E+00 -0.19738463390E+03  0.19738463390E+03  0.00000000000E+00 0.  1.
         21    1    1    2  503  502  0.38664693083E+02  0.48365161025E+01 -0.10814781918E+02  0.40438964961E+02  0.00000000000E+00 0.  1.
         21    1    1    2  504  503  0.76072419892E+02  0.43704148700E+02  0.79427341454E+02  0.11834596847E+03  0.00000000000E+00 0.  1.
         21    1    1    2  505  501 -0.13052016532E+03 -0.11366827174E+03 -0.35474743304E+02  0.17667610752E+03  0.00000000000E+00 0.  1.
         21    1    1    2  506  505  0.15783052349E+02  0.65127606935E+02 -0.21934746045E+02  0.70511297042E+02  0.00000000000E+00 0.  1.
<scales pt_clust_3="38.96602" pt_clust_4="14000.00000" pt_clust_5="100.58821" pt_clust_6="71.40498"></scales>
<clustering>
<clus scale="   38.966">  2  3  1 -1</clus>
<clus scale="   71.405">  2  6  1 -1</clus>
<clus scale="  100.588">  2  5  1 -1</clus>
<clus scale="  100.588">  1  3  2 -1</clus>
</clustering>
</event>
<event>
 6    0  0.1438923E+002  0.8411552E+02  0.7546771E-02  0.1317762E+00
         21   -1    0    0  503  501  0.00000000000E+00  0.00000000000E+00  0.21764027153E+03  0.21764027153E+03  0.00000000000E+00 0.  1.
         21   -1    0    0  504  502 -0.00000000000E+00 -0.00000000000E+00 -0.21659935551E+03  0.21659935551E+03  0.00000000000E+00 0.  1.
         21    1    1    2  503  505  0.70312787093E+02 -0.58493758098E+02  0.11192643410E+03  0.14454388405E+03  0.00000000000E+00 0.  1.
         21    1    1    2  504  506 -0.46443003908E+02  0.28692954366E+01 -0.14789769265E+03  0.15504487402E+03  0.00000000000E+00 0.  1.
         21    1    1    2  505  502  0.45385982853E+02  0.26482639931E+02  0.43675791927E+01  0.52728487606E+02  0.00000000000E+00 0.  1.
         21    1    1    2  506  501 -0.69255766037E+02  0.29141822731E+02  0.32644595371E+02  0.81922381365E+02  0.00000000000E+00 0.  1.
<scales pt_clust_3="84.11552" pt_clust_4="46.53155" pt_clust_5="39.38157" pt_clust_6="14000.00000"></scales>
<clustering>
<clus scale="   46.532">  2  4  1 -1</clus>
<clus scale="   39.382">  2  5  1 -1</clus>
<clus scale="   84.116">  1  3  2 -1</clus>
<clus scale="   84.116">  1  3  2 -1</clus>
</clustering>
</event>
<event>
 6    0  0.1438923E+002  0.1786583E+03  0.7546771E-02  0.1169108E+00
         21   -1    0    0  506  501  0.00000000000E+00  0.00000000000E+00  0.48368329300E+03  0.48368329300E+03  0.00000000000E+00 0.  1.
         21   -1    0    0  505  502 -0.00000000000E+00 -0.00000000000E+00 -0.88615347839E+03  0.88615347839E+03  0.00000000000E+00 0. -1.
         21    1    1    2  503  501 -0.10272652806E+03 -0.15403708099E+03  0.20820687995E+03  0.27862208589E+03  0.00000000000E+00 0.  1.
         21    1    1    2  504  502  0.11700958467E+03  0.12366763284E+03  0.12596277747E+03  0.21178183969E+03  0.00000000000E+00 0.  1.
         21    1    1    2  505  503  0.21581605803E+02  0.23905365377E+02 -0.80304215566E+03  0.80368771047E+03  0.00000000000E+00 0. -1.
         21    1    1    2  506  504 -0.35864662411E+02  0.64640827688E+01  0.66402312840E+02  0.75745135332E+02  0.00000000000E+00 0.  1.
<scales pt_clust_3="14000.00000" pt_clust_4="178.65832" pt_clust_5="32.20609" pt_clust_6="35.51690"></scales>
<clustering>
<clus scale="   32.206">  2  5  1 -1</clus>
<clus scale="   35.517">  1  6  2 -1</clus>
<clus scale="  178.658">  2  4  1 -1</clus>
<clus scale="   35.517">  1  3  2 -1</clus>
</clustering>
</event>
<event>
 6    0  0.1438923E+002  0.1973131E+03  0.7546771E-02  0.1152026E+00
         21   -1    0    0  505  501  0.00000000000E+00  0.00000000000E+00  0.29164850208E+03  0.29164850208E+03  0.00000000000E+00 0.  1.
         21   -1    0    0  506  502 -0.00000000000E+00 -0.00000000000E+00 -0.62345388886E+03  0.62345388886E+03  0.00000000000E+00 0. -1.
         21    1    1    2  503  504  0.25174839634E+02  0.25463801917E+02  0.40301696500E+02  0.53911079561E+02  0.00000000000E+00 0. -1.
         21    1    1    2  504  502  0.17341959074E+02  0.30515666967E+02  0.55456042619E+01  0.35534535337E+02  0.00000000000E+00 0. -1.
         21    1    1    2  505  503 -0.21173598065E+00  0.10495699247E+03  0.19926681447E+03  0.22521829066E+03  0.00000000000E+00 0.  1.
         21    1    1    2  506  501 -0.42305062727E+02 -0.16093646135E+03 -0.57691950201E+03  0.60043848538E+03  0.00000000000E+00 0. -1.
<scales pt_clust_3="71.10580" pt_clust_4="30.63052" pt_clust_5="71.10580" pt_clust_6="166.40391"></scales>
<clustering>
<clus scale="   30.631">  3  4 -1 -1</clus>
<clus scale="   71.106">  3  5 -1 -1</clus>
<clus scale="  166.404">  2  6  1 -1</clus>
<clus scale="  197.313">  1  3  2 -1</clus>
</clustering>
</event>
<event>
 6    0  0.1438923E+002  0.7253534E+02  0.7546771E-02  0.1351678E+00
         21   -1    0    0  505  501  0.00000000000E+00  0.00000000000E+00  0.19394380438E+04  0.19394380438E+04  0.00000000000E+00 0.  1.
         21   -1    0    0  503  502 -0.00000000000E+00 -0.00000000000E+00 -0.20583898220E+02  0.20583898220E+02  0.00000000000E+00 0.  1.
         21    1    1    2  503  506  0.43208268546E+02  0.13981309100E+02  0.23789067682E+02  0.51267447918E+02  0.00000000000E+00 0.  1.
         21    1    1    2  504  501  0.38359655530E+02 -0.41318847423E+02  0.44701624462E+03  0.45055769140E+03  0.00000000000E+00 0.  1.
         21    1    1    2  505  502  0.31640832631E+02 -0.77156420127E+01  0.10513443776E+03  0.11006327010E+03  0.00000000000E+00 0. -1.
         21    1    1    2  506  504 -0.11320875671E+03  0.35053180336E+02  0.13429143955E+04  0.13481335326E+04  0.00000000000E+00 0.  1.
<scales pt_clust_3="72.53534" pt_clust_4="59.06245" pt_clust_5="32.56798" pt_clust_6="14000.00000"></scales>
<clustering>
<clus scale="   32.568">  2  5  1 -1</clus>
<clus scale="   59.062">  1  4  2 -1</clus>
<clus scale="   72.535">  2  3  1 -1</clus>
<clus scale="   59.062">  1  3  2 -1</clus>
</clustering>
</event>
<event>
 6    0  0.1438923E+002  0.1184501E+03  0.7546771E-02  0.1245676E+00
         21   -1    0    0  502  501  0.00000000000E+00  0.00000000000E+00  0.10246119621E+04  0.10246119621E+04  0.00000000000E+00 0. -1.
         21   -1    0    0  506  502 -0.00000000000E+00 -0.00000000000E+00 -0.75569882129E+03  0.75569882129E+03  0.00000000000E+00 0. -1.
         21    1    1    2  503  504  0.93286284828E+02  0.12308494723E+03  0.10189605662E+03  0.18502713727E+03  0.00000000000E+00 0. -1.
         21    1    1    2  504  505 -0.55984055918E+02 -0.84174443542E+02  0.62218706602E+03  0.63034617203E+03  0.00000000000E+00 0. -1.
         21    1    1    2  505  501 -0.31246618540E+02  0.61186367145E+01  0.25315870336E+03  0.25515312652E+03  0.00000000000E+00 0. -1.
         21    1    1    2  506  503 -0.60556103704E+01 -0.45029140403E+02 -0.70832868515E+03  0.70978434761E+03  0.00000000000E+00 0. -1.
<scales pt_clust_3="14000.00000" pt_clust_4="118.45013" pt_clust_5="31.84005" pt_clust_6="45.43272"></scales>
<clustering>
<clus scale="   31.840">  1  5  2 -1</clus>
<clus scale="   45.433">  2  6  1 -1</clus>
<clus scale="  118.450">  1  4  2 -1</clus>
<clus scale="   31.840">  1  3  2 -1</clus>
</clustering>
</event>
<event>
 6    0  0.1438923E+002  0.7503834E+02  0.7546771E-02  0.1343752E+00
         21   -1    0    0  505  501  0.00000000000E+00  0.00000000000E+00  0.30873955389E+03  0.30873955389E+03  0.00000000000E+00 0. -1.
         21   -1    0    0  506  502 -0.00000000000E+00 -0.00000000000E+00 -0.99902732761E+03  0.99902732761E+03  0.00000000000E+00 0.  1.
         21    1    1    2  503  504 -0.47369913284E+02  0.82800694904E+02  0.47112200036E+02  0.10639277773E+03  0.00000000000E+00 0. -1.
         21    1    1    2  504  501 -0.66943404679E+02 -0.14382860322E+02  0.12414003102E+03  0.14177105982E+03  0.00000000000E+00 0.  1.
         21    1    1    2  505  502  0.79595668850E+02 -0.33508839788E+02  0.79436676185E+02  0.11733924479E+03  0.00000000000E+00 0. -1.
         21    1    1    2  506  503  0.34717649114E+02 -0.34908994793E+02 -0.94097668097E+03  0.94226379916E+03  0.00000000000E+00 0.  1.
<scales pt_clust_3="75.03834" pt_clust_4="64.69822" pt_clust_5="14000.00000" pt_clust_6="49.23366"></scales>
<clustering>
<clus scale="   49.234">  2  6  1 -1</clus>
<clus scale="   64.698">  1  4  2 -1</clus>
<clus scale="   75.038">  2  3  1 -1</clus>
<clus scale="   64.698">  1  3  2 -1</clus>
</clustering>
</event>
<event>
 6    0  0.1438923E+002  0.1095758E+03  0.7546771E-02  0.1261358E+00
         21   -1    0    0  506  501  0.00000000000E+00  0.00000000000E+00  0.41476165025E+03  0.41476165025E+03  0.00000000000E+00 0.  1.
         21   -1    0    0  503  502 -0.00000000000E+00 -0.00000000000E+00 -0.25647478007E+03  0.25647478007E+03  0.00000000000E+00 0.  1.
         21    1    1    2  503  504 -0.25686230475E+02  0.11295828652E+03 -0.21995744947E+03  0.24859733809E+03  0.00000000000E+00 0.  1.
         21    1    1    2  504  501  0.21688530694E+02 -0.32334165815E+02  0.12139035386E+02  0.40782923175E+02  0.00000000000E+00 0. -1.
         21    1    1    2  505  502  0.36409510153E+02 -0.37996778178E+02  0.14188652872E+03  0.15133140657E+03  0.00000000000E+00 0.  1.
         21    1    1    2  506  505 -0.32411810372E+02 -0.42627342523E+02  0.22421875554E+03  0.23052476249E+03  0.00000000000E+00 0.  1.
<scales pt_clust_3="109.57576" pt_clust_4="38.93444" pt_clust_5="14000.00000" pt_clust_6="64.63973"></scales>
<clustering>
<clus scale="   38.934">  1  4  2 -1</clus>
<clus scale="   64.640">  1  6  2 -1</clus>
<clus scale="  109.576">  2  3  1 -1</clus>
<clus scale="   38.934">  1  3  2 -1</clus>
</clustering>
</event>
<event>
 6    0  0.1438923E+002  0.9168416E+02  0.7546771E-02  0.1298824E+00
         21   -1    0    0  503  501  0.00000000000E+00  0.00000000000E+00  0.36933083335E+03  0.36933083335E+03  0.00000000000E+00 0.  1.
         21   -1    0    0  505  502 -0.00000000000E+00 -0.00000000000E+00 -0.47773000649E+03  0.47773000649E+03  0.00000000000E+00 0.  1.
         21    1    1    2  503  502 -0.20487471221E+02  0.99910853641E+02  0.54769545811E+02  0.11576535881E+03  0.00000000000E+00 0.  1.
         21    1    1    2  504  501  0.56456255356E+02 -0.38488657372E+02  0.11238695847E+03  0.13152761668E+03  0.00000000000E+00 0.  1.
         21    1    1    2  505  506 -0.32519663472E+02  0.59798232536E+01 -0.42997481505E+03  0.43124427924E+03  0.00000000000E+00 0.  1.
         21    1    1    2  506  504 -0.34491206637E+01 -0.67402019522E+02  0.15441913764E+03  0.16852358511E+03  0.00000000000E+00 0.  1.
<scales pt_clust_3="91.68416" pt_clust_4="62.24567" pt_clust_5="33.06489" pt_clust_6="14000.00000"></scales>
<clustering>
<clus scale="   33.065">  2  5  1 -1</clus>
<clus scale="   62.246">  1  4  2 -1</clus>
<clus scale="   91.684">  2  3  1 -1</clus>
<clus scale="   62.246">  1  3  2 -1</clus>
</clustering>
</event>
<event>
 6    0  0.1438923E+002  0.1017270E+03  0.7546771E-02  0.1276706E+00
         21   -1    0    0  505  501  0.00000000000E+00  0.00000000000E+00  0.24963956598E+03  0.24963956598E+03  0.00000000000E+00 0. -1.
         21   -1    0    0  506  502 -0.00000000000E+00 -0.00000000000E+00 -0.10711384935E+04  0.10711384935E+04  0.00000000000E+00 0. -1.
         21    1    1    2  503  502  0.40982275677E+01 -0.10367550330E+03 -0.10381297037E+04  0.10433018198E+04  0.00000000000E+00 0. -1.
         21    1    1    2  504  501 -0.20657163245E+01  0.43437329111E+02  0.11813829949E+03  0.12588775378E+03  0.00000000000E+00 0. -1.
         21    1    1    2  505  503  0.42229477837E+02  0.33588998841E+02  0.80437313086E+02  0.96859232797E+02  0.00000000000E+00 0. -1.
         21    1    1    2  506  504 -0.44261989080E+02  0.26649175348E+02  0.18055163541E+02  0.54729253188E+02  0.00000000000E+00 0.  1.
<scales pt_clust_3="14000.00000" pt_clust_4="43.48642" pt_clust_5="101.72702" pt_clust_6="59.45887"></scales>
<clustering>
<clus scale="   43.486">  1  4  2 -1</clus>
<clus scale="   59.459">  1  6  2 -1</clus>
<clus scale="  101.727">  1  5  2 -1</clus>
<clus scale="   43.486">  1  3  2 -1</clus>
</clustering>
</event>
<event>
 6    0  0.1438923E+002  0.1203742E+03  0.7546771E-02  0.1242481E+00
         21   -1    0    0  504  501  0.00000000000E+00  0.00000000000E+00  0.69512195194E+02  0.69512195194E+02  0.00000000000E+00 0.  1.
         21   -1    0    0  506  502 -0.00000000000E+00 -0.00000000000E+00 -0.40875084283E+03  0.40875084283E+03  0.00000000000E+00 0.  1.
         21    1    1    2  503  502 -0.61433941106E+02 -0.34033433889E+02 -0.90894512937E+02  0.11486607952E+03  0.00000000000E+00 0. -1.
         21    1    1    2  504  505  0.34449646640E+02 -0.45401954362E+02 -0.49074988275E+02  0.75209507961E+02  0.00000000000E+00 0.  1.
         21    1    1    2  505  503  0.39465005730E+02 -0.43412671690E+02 -0.61840742898E+01  0.58994826174E+02  0.00000000000E+00 0.  1.
         21    1    1    2  506  501 -0.12480711264E+02  0.12284805994E+03 -0.19308507214E+03  0.22919262437E+03  0.00000000000E+00 0.  1.
<scales pt_clust_3="70.23107" pt_clust_4="39.49569" pt_clust_5="39.49569" pt_clust_6="113.50827"></scales>
<clustering>
<clus scale="   39.496">  4  5 -1 -1</clus>
<clus scale="   70.231">  2  3  1 -1</clus>
<clus scale="  113.508">  2  6  1 -1</clus>
<clus scale="  120.374">  1  3  2 -1</clus>
</clustering>
</event>
<event>
 6    0  0.1438923E+002  0.3083174E+03  0.7546771E-02  0.1081155E+00
         21   -1    0    0  502  501  0.00000000000E+00  0.00000000000E+00  0.78537009526E+03  0.78537009526E+03  0.00000000000E+00 0. -1.
         21   -1    0    0  504  502 -0.00000000000E+00 -0.00000000000E+00 -0.19630684509E+03  0.19630684509E+03  0.00000000000E+00 0. -1.
         21    1    1    2  503  501  0.72770408647E+02 -0.45686051740E+02  0.98266549498E+02  0.13053375980E+03  0.00000000000E+00 0. -1.
         21    1    1    2  504  505 -0.50583545818E+02 -0.56397803801E+00 -0.66617066096E+02  0.83647155803E+02  0.00000000000E+00 0. -1.
         21    1    1    2  505  506 -0.26447589071E+03  0.55698194796E+02  0.20276366815E+03  0.33787999466E+03  0.00000000000E+00 0. -1.
         21    1    1    2  506  503  0.24228902788E+03 -0.94481650184E+01  0.35465009862E+03  0.42961603008E+03  0.00000000000E+00 0. -1.
<scales pt_clust_3="47.36913" pt_clust_4="50.58669" pt_clust_5="297.87166" pt_clust_6="47.36913"></scales>
<clustering>
<clus scale="   47.369">  3  6 -1 -1</clus>
<clus scale="   50.587">  2  4  1 -1</clus>
<clus scale="  297.872">  2  5  1 -1</clus>
<clus scale="  308.317">  1  3  2 -1</clus>
</clustering>
</event>
<event>
 6    0  0.1438923E+002  0.1968415E+03  0.7546771E-02  0.1152432E+00
         21   -1    0    0  504  501  0.00000000000E+00  0.00000000000E+00  0.11069115721E+04  0.11069115721E+04  0.00000000000E+00 0. -1.
         21   -1    0    0  506  502 -0.00000000000E+00 -0.00000000000E+00 -0.21798543951E+03  0.21798543951E+03  0.00000000000E+00 0. -1.
         21    1    1    2  503  502 -0.19686968634E+03 -0.45934006080E+02 -0.13411972863E+03  0.24260195367E+03  0.00000000000E+00 0. -1.
         21    1    1    2  504  503  0.13682988586E+03 -0.78274980386E+02  0.80397081079E+03  0.81927922884E+03  0.00000000000E+00 0. -1.
         21    1    1    2  505  501  0.34014899459E+02  0.79739645674E+02  0.17465532222E+03  0.19498693817E+03  0.00000000000E+00 0. -1.
         21    1    1    2  506  505  0.26024901028E+02  0.44469340792E+02  0.44419728179E+02  0.68028890889E+02  0.00000000000E+00 0. -1.
<scales pt_clust_3="14000.00000" pt_clust_4="196.84150" pt_clust_5="145.54535" pt_clust_6="35.75363"></scales>
<clustering>
<clus scale="   35.754">  5  6 -1 -1</clus>
<clus scale="  145.545">  1  5  2 -1</clus>
<clus scale="  196.842">  1  4  2 -1</clus>
<clus scale="  145.545">  1  3  2 -1</clus>
</clustering>
</event>
<event>
 6    0  0.1438923E+002  0.8148193E+02  0.7546771E-02  0.1324898E+00
         21   -1    0    0  505  501  0.00000000000E+00  0.00000000000E+00  0.32465296383E+02  0.32465296383E+02  0.00000000000E+00 0.  1.
         21   -1    0    0  504  502 -0.00000000000E+00 -0.00000000000E+00 -0.16400566306E+04  0.16400566306E+04  0.00000000000E+00 0.  1.
         21    1    1    2  503  502 -0.47965809030E+02  0.54736780508E+02 -0.12592903877E+04  0.12613917371E+04  0.00000000000E+00 0.  1.
         21    1    1    2  504  506 -0.48899340791E+02 -0.38891860945E+02 -0.65111078232E+02  0.90239541699E+02  0.00000000000E+00 0.  1.
         21    1    1    2  505  503  0.11089175287E+03  0.15560615271E+02 -0.17870489141E+03  0.21088990449E+03  0.00000000000E+00 0.  1.
         21    1    1    2  506  501 -0.14026603047E+02 -0.31405534833E+02 -0.10448497687E+03  0.11000074365E+03  0.00000000000E+00 0.  1.
<scales pt_clust_3="72.27938" pt_clust_4="81.48193" pt_clust_5="14000.00000" pt_clust_6="34.39554"></scales>
<clustering>
<clus scale="   34.396">  1  6  2 -1</clus>
<clus scale="   72.279">  2  3  1 -1</clus>
<clus scale="   81.482">  1  4  2 -1</clus>
<clus scale="   34.396">  1  3  2 -1</clus>
</clustering>
</event>
<event>
 6    0  0.1438923E+002  0.5591975E+02  0.7546771E-02  0.1415799E+00
         21   -1    0    0  504  501  0.00000000000E+00  0.00000000000E+00  0.74573418930E+03  0.74573418930E+03  0.00000000000E+00 0. -1.
         21   -1    0    0  506  502 -0.00000000000E+00 -0.00000000000E+00 -0.46182936837E+03  0.46182936837E+03  0.00000000000E+00 0. -1.
         21    1    1    2  503  501 -0.25684272956E+02 -0.23389656846E+02  0.37354638768E+03  0.37515818220E+03  0.00000000000E+00 0. -1.
         21    1    1    2  504  502 -0.14665337221E+02 -0.34062652853E+02  0.91614330684E+02  0.98835833693E+02  0.00000000000E+00 0. -1.
         21    1    1    2  505  503  0.84947341710E+02  0.90488001923E+02  0.26038663056E+03  0.28845333544E+03  0.00000000000E+00 0. -1.
         21    1    1    2  506  505 -0.44597731532E+02 -0.33035692224E+02 -0.44164252799E+03  0.44511620634E+03  0.00000000000E+00 0. -1.
<scales pt_clust_3="34.73842" pt_clust_4="45.34757" pt_clust_5="55.91975" pt_clust_6="14000.00000"></scales>
<clustering>
<clus scale="   34.738">  1  3  2 -1</clus>
<clus scale="   45.348">  1  4  2 -1</clus>
<clus scale="   55.920">  1  5  2 -1</clus>
<clus scale="   34.738">  1  3  2 -1</clus>
</clustering>
</event>
<event>
 6    0  0.1438923E+002  0.1162001E+03  0.7546771E-02  0.1249501E+00
         21   -1    0    0  503  501  0.00000000000E+00  0.00000000000E+00  0.54529496464E+02  0.54529496464E+02  0.00000000000E+00 0.  1.
         21   -1    0    0  504  502 -0.00000000000E+00 -0.00000000000E+00 -0.10632948808E+04  0.10632948808E+04  0.00000000000E+00 0.  1.
         21    1    1    2  503  505 -0.82709499086E+01  0.78930273505E+02 -0.17131109284E+02  0.81190341748E+02  0.00000000000E+00 0.  1.
         21    1    1    2  504  506  0.99960619140E+02 -0.88623102416E+02 -0.72244113197E+03  0.73468862032E+03  0.00000000000E+00 0.  1.
         21    1    1    2  505  502 -0.62383229918E+02 -0.43080279033E+02 -0.16368644433E+03  0.18039076993E+03  0.00000000000E+00 0. -1.
         21    1    1    2  506  501 -0.29306439314E+02  0.52773107944E+02 -0.10550669878E+03  0.12155464530E+03  0.00000000000E+00 0. -1.
<scales pt_clust_3="116.20013" pt_clust_4="14000.00000" pt_clust_5="75.53264" pt_clust_6="60.36446"></scales>
<clustering>
<clus scale="   60.364">  1  6  2 -1</clus>
<clus scale="   75.533">  2  5  1 -1</clus>
<clus scale="  116.200">  1  3  2 -1</clus>
<clus scale="   60.364">  1  3  2 -1</clus>
</clustering>
</event>
<event>
 6    0  0.1438923E+002  0.2328081E+03  0.7546771E-02  0.1124679E+00
         21   -1    0    0  506  501  0.00000000000E+00  0.00000000000E+00  0.13083827908E+04  0.13083827908E+04  0.00000000000E+00 0. -1.
         21   -1    0    0  504  502 -0.00000000000E+00 -0.00000000000E+00 -0.12936851754E+03  0.12936851754E+03  0.00000000000E+00 0. -1.
         21    1    1    2  503  501  0.63205885608E+02 -0.93703586747E+02  0.21380266947E+03  0.24184070712E+03  0.00000000000E+00 0.  1.
         21    1    1    2  504  505 -0.16871400867E+03  0.15708018210E+03  0.33236123786E+02  0.23290178242E+03  0.00000000000E+00 0. -1.
         21    1    1    2  505  503  0.43808985364E+02 -0.11906775973E+03  0.30190391034E+03  0.32747874692E+03  0.00000000000E+00 0.  1.
         21    1    1    2  506  502  0.61699137699E+02  0.55691164375E+02  0.63007156970E+03  0.63553007193E+03  0.00000000000E+00 0. -1.
<scales pt_clust_3="35.91087" pt_clust_4="229.67821" pt_clust_5="35.91087" pt_clust_6="83.11612"></scales>
<clustering>
<clus scale="   35.911">  3  5 -1 -1</clus>
<clus scale="   83.116">  1  6  2 -1</clus>
<clus scale="  229.678">  2  4  1 -1</clus>
<clus scale="   83.116">  1  3  2 -1</clus>
</clustering>
</event>
<event>
 6    0  0.1458143E+002  0.1620010E+03  0.7546771E-02  0.1186456E+00
         21   -1    0    0  503  501  0.00000000000E+00  0.00000000000E+00  0.50187869439E+03  0.50187869439E+03  0.00000000000E+00 0. -1.
         21   -1    0    0  506  502 -0.00000000000E+00 -0.00000000000E+00 -0.13990767005E+04  0.13990767005E+04  0.00000000000E+00 0. -1.
         21    1    1    2  503  505  0.62056479213E+02 -0.83416397803E+02 -0.14854564612E+03  0.18131494979E+03  0.00000000000E+00 0. -1.
         21    1    1    2  504  501 -0.20093877747E+02  0.97420440836E+02  0.33289537107E+03  0.34743896485E+03  0.00000000000E+00 0. -1.
         21    1    1    2  505  502  0.14746197178E+02 -0.40322741120E+02 -0.12197556440E+04  0.12205110425E+04  0.00000000000E+00 0. -1.
         21    1    1    2  506  504 -0.56708798644E+02  0.26318698087E+02  0.13820791293E+03  0.15169043777E+03  0.00000000000E+00 0. -1.
<scales pt_clust_3="142.34639" pt_clust_4="61.29179" pt_clust_5="42.93453" pt_clust_6="61.29179"></scales>
<clustering>
<clus scale="   42.935">  2  5  1 -1</clus>
<clus scale="   61.292">  4  6 -1 -1</clus>
<clus scale="  142.346">  2  3  1 -1</clus>
<clus scale="  162.001">  1  3  2 -1</clus>
</clustering>
</event>
<event>
 6    0  0.1438923E+002  0.7545839E+02  0.7546771E-02  0.1342457E+00
         21   -1    0    0  503  501  0.00000000000E+00  0.00000000000E+00  0.13403418217E+03  0.13403418217E+03  0.00000000000E+00 0. -1.
         21   -1    0    0  504  502 -0.00000000000E+00 -0.00000000000E+00 -0.36289750446E+03  0.36289750446E+03  0.00000000000E+00 0. -1.
         21    1    1    2  503  505  0.70285798262E+02 -0.51151491493E+01  0.55740462822E+02  0.89851307079E+02  0.00000000000E+00 0. -1.
         21    1    1    2  504  506 -0.24813472578E+02 -0.62846439423E+02 -0.28336803017E+03  0.29131224466E+03  0.00000000000E+00 0. -1.
         21    1    1    2  505  502 -0.67077935961E+02  0.38834134926E+02 -0.10813193037E+02  0.78258959052E+02  0.00000000000E+00 0. -1.
         21    1    1    2  506  501  0.21605610277E+02  0.29127453647E+02  0.95774380895E+01  0.37509175834E+02  0.00000000000E+00 0. -1.
<scales pt_clust_3="14000.00000" pt_clust_4="66.30929" pt_clust_5="75.45839" pt_clust_6="36.26584"></scales>
<clustering>
<clus scale="   36.266">  1  6  2 -1</clus>
<clus scale="   66.309">  2  4  1 -1</clus>
<clus scale="   75.458">  2  5  1 -1</clus>
<clus scale="   36.266">  1  3  2 -1</clus>
</clustering>
</event>
<event>
 6    0  0.1438923E+002  0.1261982E+03  0.7546771E-02  0.1233208E+00
         21   -1    0    0  503  501  0.00000000000E+00  0.00000000000E+00  0.89278288881E+02  0.89278288881E+02  0.00000000000E+00 0. -1.
         21   -1    0    0  505  502 -0.00000000000E+00 -0.00000000000E+00 -0.10738867838E+04  0.10738867838E+04  0.00000000000E+00 0.  1.
         21    1    1    2  503  506  0.18260899379E+02  0.47583325999E+02 -0.79933500365E+02  0.94799777636E+02  0.00000000000E+00 0. -1.
         21    1    1    2  504  501 -0.12780375098E+03  0.15755600489E+02  0.21044308180E+02  0.13047950268E+03  0.00000000000E+00 0. -1.
         21    1    1    2  505  504  0.83850156496E+02 -0.33434654909E+02 -0.82173305577E+03  0.82667644205E+03  0.00000000000E+00 0.  1.
         21    1    1    2  506  502  0.25692695109E+02 -0.29904271579E+02 -0.10398624696E+03  0.11120935031E+03  0.00000000000E+00 0.  1.
<scales pt_clust_3="49.37479" pt_clust_4="14000.00000" pt_clust_5="126.19821" pt_clust_6="39.42563"></scales>
<clustering>
<clus scale="   39.426">  2  6  1 -1</clus>
<clus scale="   49.375">  2  3  1 -1</clus>
<clus scale="  126.198">  2  5  1 -1</clus>
<clus scale="  126.198">  1  3  2 -1</clus>
</clustering>
</event>
<event>
 6    0  0.1438923E+002  0.9899422E+02  0.7546771E-02  0.1282425E+00
         21   -1    0    0  505  501  0.00000000000E+00  0.00000000000E+00  0.78321557180E+02  0.78321557180E+02  0.00000000000E+00 0.  1.
         21   -1    0    0  503  502 -0.00000000000E+00 -0.00000000000E+00 -0.86822464365E+03  0.86822464365E+03  0.00000000000E+00 0. -1.
         21    1    1    2  503  504 -0.12552413859E+02 -0.35889566921E+02 -0.64865166979E+03  0.64976504433E+03  0.00000000000E+00 0. -1.
         21    1    1    2  504  506  0.42310603654E+02 -0.10221656153E+02 -0.43618738844E+02  0.61621942638E+02  0.00000000000E+00 0. -1.
         21    1    1    2  505  502 -0.31151353035E+02  0.11324098822E+03 -0.95395065180E+00  0.11745142924E+03  0.00000000000E+00 0.  1.
         21    1    1    2  506  501  0.13931632396E+01 -0.67129765143E+02 -0.96678727182E+02  0.11770778463E+03  0.00000000000E+00 0. -1.
<scales pt_clust_3="38.02136" pt_clust_4="43.57972" pt_clust_5="98.99422" pt_clust_6="14000.00000"></scales>
<clustering>
<clus scale="   38.021">  2  3  1 -1</clus>
<clus scale="   43.580">  2  4  1 -1</clus>
<clus scale="   98.994">  1  5  2 -1</clus>
<clus scale="   98.994">  1  3  2 -1</clus>
</clustering>
</event>
<event>
 6    0  0.1438923E+002  0.1389052E+03  0.7546771E-02  0.1214810E+00
         21   -1    0    0  506  501  0.00000000000E+00  0.00000000000E+00  0.89194590575E+03  0.89194590575E+03  0.00000000000E+00 0. -1.
         21   -1    0    0  505  502 -0.00000000000E+00 -0.00000000000E+00 -0.56385731650E+02  0.56385731650E+02  0.00000000000E+00 0. -1.
         21    1    1    2  503  504 -0.10675569481E+03 -0.62971826586E+02  0.37893960544E+03  0.39869468756E+03  0.00000000000E+00 0. -1.
         21    1    1    2  504  501 -0.21642998535E+02  0.28612161114E+02  0.13385467678E+03  0.13857903754E+03  0.00000000000E+00 0. -1.
         21    1    1    2  505  503  0.13941510760E+03  0.81159113783E+02  0.32509928312E+03  0.36292274365E+03  0.00000000000E+00 0. -1.
         21    1    1    2  506  502 -0.11016414258E+02 -0.46799448311E+02 -0.23333912471E+01  0.48135168640E+02  0.00000000000E+00 0. -1.
<scales pt_clust_3="138.90524" pt_clust_4="35.87583" pt_clust_5="14000.00000" pt_clust_6="47.39228"></scales>
<clustering>
<clus scale="   35.876">  1  4  2 -1</clus>
<clus scale="   47.392">  2  6  1 -1</clus>
<clus scale="  138.905">  1  3  2 -1</clus>
<clus scale="   35.876">  1  3  2 -1</clus>
</clustering>
</event>
<event>
 6    0  0.1438923E+002  0.9891985E+02  0.7546771E-02  0.1282584E+00
         21   -1    0    0  505  501  0.00000000000E+00  0.00000000000E+00  0.49148609829E+03  0.49148609829E+03  0.00000000000E+00 0.  1.
         21   -1    0    0  506  502 -0.00000000000E+00 -0.00000000000E+00 -0.63864373853E+03  0.63864373853E+03  0.00000000000E+00 0. -1.
         21    1    1    2  503  501 -0.38391726191E+02 -0.28022525926E+02  0.61323294093E+01  0.47924858510E+02  0.00000000000E+00 0.  1.
         21    1    1    2  504  503 -0.79278240883E+02 -0.24845003192E+01  0.48243116980E+02  0.92836472118E+02  0.00000000000E+00 0.  1.
         21    1    1    2  505  502  0.64430218065E+02 -0.38903810040E+02  0.38706031136E+03  0.39431008619E+03  0.00000000000E+00 0.  1.
         21    1    1    2  506  504  0.53239749009E+02  0.69410836286E+02 -0.58859339799E+03  0.59505842001E+03  0.00000000000E+00 0. -1.
<scales pt_clust_3="35.30638" pt_clust_4="35.30638" pt_clust_5="75.26460" pt_clust_6="87.77798"></scales>
<clustering>
<clus scale="   35.306">  3  4 -1 -1</clus>
<clus scale="   75.265">  1  5  2 -1</clus>
<clus scale="   87.778">  2  6  1 -1</clus>
<clus scale="   75.265">  1  3  2 -1</clus>
</clustering>
</event>
<event>
 6    0  0.1438923E+002  0.6151248E+02  0.7546771E-02  0.1391592E+00
         21   -1    0    0  506  501  0.00000000000E+00  0.00000000000E+00  0.10317428958E+03  0.10317428958E+03  0.00000000000E+00 0. -1.
         21   -1    0    0  505  502 -0.00000000000E+00 -0.00000000000E+00 -0.10416293757E+04  0.10416293757E+04  0.00000000000E+00 0. -1.
         21    1    1    2  503  502 -0.59254826895E+02  0.15022988729E+02 -0.89242323460E+03  0.89451442379E+03  0.00000000000E+00 0. -1.
         21    1    1    2  504  503  0.67540999502E+02 -0.83534505101E+02  0.25983575505E+02  0.11052124842E+03  0.00000000000E+00 0. -1.
         21    1    1    2  505  501  0.33639525392E+02  0.52920197471E+02 -0.10300486389E+02  0.63547344467E+02  0.00000000000E+00 0. -1.
         21    1    1    2  506  504 -0.41925697998E+02  0.15591318900E+02 -0.61714940641E+02  0.76220648620E+02  0.00000000000E+00 0. -1.
<scales pt_clust_3="61.51248" pt_clust_4="14000.00000" pt_clust_5="61.33040" pt_clust_6="44.73090"></scales>
<clustering>
<clus scale="   44.731">  1  6  2 -1</clus>
<clus scale="   61.330">  1  5  2 -1</clus>
<clus scale="   61.512">  2  3  1 -1</clus>
<clus scale="   44.731">  1  3  2 -1</clus>
</clustering>
</event>
<event>
 6    0  0.1438923E+002  0.1234873E+03  0.7546771E-02  0.1237453E+00
         21   -1    0    0  505  501  0.00000000000E+00  0.00000000000E+00  0.25058972979E+03  0.25058972979E+03  0.00000000000E+00 0.  1.
         21   -1    0    0  504  502 -0.00000000000E+00 -0.00000000000E+00 -0.88213384027E+02  0.88213384027E+02  0.00000000000E+00 0.  1.
         21    1    1    2  503  502 -0.60194456913E+01  0.34175755655E+02  0.15360766282E+02  0.37949560495E+02  0.00000000000E+00 0. -1.
         21    1    1    2  504  501 -0.10080604399E+03 -0.72741287779E+02  0.21153806249E+02  0.12609772786E+03  0.00000000000E+00 0.  1.
         21    1    1    2  505  506  0.40901099187E+02 -0.63645282439E+01  0.45717358685E+02  0.61672392686E+02  0.00000000000E+00 0. -1.
         21    1    1    2  506  503  0.65924390490E+02  0.44930060368E+02  0.80144414546E+02  0.11308343278E+03  0.00000000000E+00 0.  1.
<scales pt_clust_3="34.70182" pt_clust_4="115.97276" pt_clust_5="30.55534" pt_clust_6="30.55534"></scales>
<clustering>
<clus scale="   30.555">  5  6 -1 -1</clus>
<clus scale="   34.702">  2  3  1 -1</clus>
<clus scale="  115.973">  2  4  1 -1</clus>
<clus scale="  123.487">  1  3  2 -1</clus>
</clustering>
</event>
<event>
 6    0  0.1438923E+002  0.1318799E+03  0.7546771E-02  0.1224693E+00
         21   -1    0    0  503  501  0.00000000000E+00  0.00000000000E+00  0.41552593065E+02  0.41552593065E+02  0.00000000000E+00 0. -1.
         21   -1    0    0  505  502 -0.00000000000E+00 -0.00000000000E+00 -0.10761876805E+04  0.10761876805E+04  0.00000000000E+00 0. -1.
         21    1    1    2  503  502 -0.12453905339E+02  0.14381416015E+03 -0.20985853082E+03  0.25471202440E+03  0.00000000000E+00 0. -1.
         21    1    1    2  504  506 -0.51527673145E+01 -0.36992318477E+02 -0.94630038985E+02  0.10173409908E+03  0.00000000000E+00 0. -1.
         21    1    1    2  505  504  0.11275570611E+02 -0.34927133081E+02 -0.65875712564E+03  0.65977874602E+03  0.00000000000E+00 0. -1.
         21    1    1    2  506  501  0.63311020430E+01 -0.71894708590E+02 -0.71389392036E+02  0.10151540411E+03  0.00000000000E+00 0. -1.
<scales pt_clust_3="124.50770" pt_clust_4="31.27530" pt_clust_5="36.70209" pt_clust_6="31.27530"></scales>
<clustering>
<clus scale="   31.275">  4  6 -1 -1</clus>
<clus scale="   36.702">  2  5  1 -1</clus>
<clus scale="  124.508">  2  3  1 -1</clus>
<clus scale="  131.880">  1  3  2 -1</clus>
</clustering>
</event>
<event>
 6    0  0.1438923E+002  0.7791393E+02  0.7546771E-02  0.1335078E+00
         21   -1    0    0  503  501  0.00000000000E+00  0.00000000000E+00  0.14857103425E+04  0.14857103425E+04  0.00000000000E+00 0.  1.
         21   -1    0    0  501  502 -0.00000000000E+00 -0.00000000000E+00 -0.31815965456E+03  0.31815965456E+03  0.00000000000E+00 0.  1.
         21    1    1    2  503  506  0.10260924046E+02 -0.31987195665E+02  0.67312185098E+03  0.67395956371E+03  0.00000000000E+00 0.  1.
         21    1    1    2  504  502  0.76347876689E+02  0.13063145401E+02 -0.30344117103E+03  0.31317118054E+03  0.00000000000E+00 0.  1.
         21    1    1    2  505  504 -0.11366322794E+03 -0.44571173286E+01  0.36308733388E+03  0.38048864280E+03  0.00000000000E+00 0.  1.
         21    1    1    2  506  505  0.27054427209E+02  0.23381167593E+02  0.43478267411E+03  0.43625061002E+03  0.00000000000E+00 0.  1.
<scales pt_clust_3="33.59267" pt_clust_4="14000.00000" pt_clust_5="77.91393" pt_clust_6="33.14715"></scales>
<clustering>
<clus scale="   33.593">  1  3  2 -1</clus>
<clus scale="   33.147">  1  6  2 -1</clus>
<clus scale="   77.914">  1  5  2 -1</clus>
<clus scale="   33.593">  1  3  2 -1</clus>
</clustering>
</event>
<event>
 6    0  0.1438923E+002  0.9321907E+02  0.7546771E-02  0.1295238E+00
         21   -1    0    0  503  501  0.00000000000E+00  0.00000000000E+00  0.69721755258E+02  0.69721755258E+02  0.00000000000E+00 0. -1.
         21   -1    0    0  504  502 -0.00000000000E+00 -0.00000000000E+00 -0.59987282565E+03  0.59987282565E+03  0.00000000000E+00 0.  1.
         21    1    1    2  503  506  0.30661293749E+02 -0.16064834644E+02 -0.36520476855E+01  0.34807058175E+02  0.00000000000E+00 0. -1.
         21    1    1    2  504  501 -0.59175135308E+02  0.29684550603E+02  0.20374301552E+01  0.66234585413E+02  0.00000000000E+00 0. -1.
         21    1    1    2  505  502 -0.62406939224E+02 -0.21588456277E+01 -0.42794685393E+03  0.43247866591E+03  0.00000000000E+00 0.  1.
         21    1    1    2  506  505  0.90920780782E+02 -0.11460870331E+02 -0.10058959893E+03  0.13607427141E+03  0.00000000000E+00 0.  1.
<scales pt_clust_3="32.48783" pt_clust_4="76.78250" pt_clust_5="62.44427" pt_clust_6="32.48783"></scales>
<clustering>
<clus scale="   32.488">  3  6 -1 -1</clus>
<clus scale="   62.444">  2  5  1 -1</clus>
<clus scale="   76.782">  1  4  2 -1</clus>
<clus scale="   76.782">  1  3  2 -1</clus>
</clustering>
</event>
<event>
 6    0  0.1438923E+002  0.1267681E+03  0.7546771E-02  0.1232332E+00
         21   -1    0    0  506  501  0.00000000000E+00  0.00000000000E+00  0.20449656853E+04  0.20449656853E+04  0.00000000000E+00 0. -1.
         21   -1    0    0  501  502 -0.00000000000E+00 -0.00000000000E+00 -0.39140167735E+02  0.39140167735E+02  0.00000000000E+00 0. -1.
         21    1    1    2  503  504  0.88053778833E+02  0.79818646688E+02  0.14776641161E+04  0.14824357404E+04  0.00000000000E+00 0. -1.
         21    1    1    2  504  505 -0.10180802714E+03 -0.42009472244E+02  0.37595418285E+03  0.39175402710E+03  0.00000000000E+00 0. -1.
         21    1    1    2  505  502 -0.17355655427E+02 -0.48429932133E+02 -0.27413442146E+01  0.51518851596E+02  0.00000000000E+00 0. -1.
         21    1    1    2  506  503  0.31109903730E+02  0.10620757689E+02  0.15494856275E+03  0.15839723389E+03  0.00000000000E+00 0.  1.
<scales pt_clust_3="126.76807" pt_clust_4="14000.00000" pt_clust_5="51.18226" pt_clust_6="32.87289"></scales>
<clustering>
<clus scale="   32.873">  1  6  2 -1</clus>
<clus scale="   51.182">  2  5  1 -1</clus>
<clus scale="  126.768">  1  3  2 -1</clus>
<clus scale="   32.873">  1  3  2 -1</clus>
</clustering>
</event>
<event>
 6    0  0.1438923E+002  0.1219444E+03  0.7546771E-02  0.1239923E+00
         21   -1    0    0  506  501  0.00000000000E+00  0.00000000000E+00  0.85570765747E+03  0.85570765747E+03  0.00000000000E+00 0. -1.
         21   -1    0    0  504  502 -0.00000000000E+00 -0.00000000000E+00 -0.77023313735E+02  0.77023313735E+02  0.00000000000E+00 0. -1.
         21    1    1    2  503  502 -0.27411372250E+02 -0.46403575272E+02  0.73195585213E+02  0.90897023170E+02  0.00000000000E+00 0. -1.
         21    1    1    2  504  505  0.48908857100E+02  0.16806729642E+02  0.51823964517E+02  0.73213835867E+02  0.00000000000E+00 0. -1.
         21    1    1    2  505  501 -0.12117046231E+03  0.93605627417E+02  0.61963305811E+02  0.16517792131E+03  0.00000000000E+00 0. -1.
         21    1    1    2  506  503  0.99672977458E+02 -0.64008781787E+02  0.59170148819E+03  0.60344219086E+03  0.00000000000E+00 0. -1.
<scales pt_clust_3="48.85052" pt_clust_4="51.71598" pt_clust_5="121.94442" pt_clust_6="14000.00000"></scales>
<clustering>
<clus scale="   51.716">  2  4  1 -1</clus>
<clus scale="   48.851">  2  3  1 -1</clus>
<clus scale="  121.944">  2  5  1 -1</clus>
<clus scale="  121.944">  1  3  2 -1</clus>
</clustering>
</event>
<event>
 6    0  0.1438923E+002  0.1327512E+03  0.7546771E-02  0.1223430E+00
         21   -1    0    0  504  501  0.00000000000E+00  0.00000000000E+00  0.13923293138E+03  0.13923293138E+03  0.00000000000E+00 0.  1.
         21   -1    0    0  503  502 -0.00000000000E+00 -0.00000000000E+00 -0.25974538816E+03  0.25974538816E+03  0.00000000000E+00 0.  1.
         21    1    1    2  503  505  0.10536626119E+02 -0.45179077387E+02 -0.97464753481E+01  0.47404254084E+02  0.00000000000E+00 0.  1.
         21    1    1    2  504  506 -0.49866614584E+01  0.10108010440E+03 -0.44052866893E+02  0.11037531145E+03  0.00000000000E+00 0.  1.
         21    1    1    2  505  501  0.26503238686E+02 -0.83404139107E+02  0.61004947416E+02  0.10667837499E+03  0.00000000000E+00 0.  1.
         21    1    1    2  506  502 -0.32053203347E+02  0.27503112099E+02 -0.12771806195E+03  0.13452037901E+03  0.00000000000E+00 0.  1.
<scales pt_clust_3="41.24080" pt_clust_4="120.06021" pt_clust_5="41.24080" pt_clust_6="42.23540"></scales>
<clustering>
<clus scale="   41.241">  3  5 -1 -1</clus>
<clus scale="   42.235">  2  6  1 -1</clus>
<clus scale="  120.060">  2  4  1 -1</clus>
<clus scale="  132.751">  1  3  2 -1</clus>
</clustering>
</event>
<event>
 6    0  0.1438923E+002  0.8651946E+02  0.7546771E-02  0.1311506E+00
         21   -1    0    0  503  501  0.00000000000E+00  0.00000000000E+00  0.88729244200E+02  0.88729244200E+02  0.00000000000E+00 0. -1.
         21   -1    0    0  505  502 -0.00000000000E+00 -0.00000000000E+00 -0.95278832395E+03  0.95278832395E+03  0.00000000000E+00 0. -1.
         21    1    1    2  503  506  0.10513962500E+02  0.76269596846E+02 -0.25842122087E+02  0.81212130156E+02  0.00000000000E+00 0. -1.
         21    1    1    2  504  501 -0.86511829062E+02 -0.66759650922E+02  0.35330290682E+01  0.10933265685E+03  0.00000000000E+00 0. -1.
         21    1    1    2  505  504  0.38025410836E+02 -0.98047354679E+01 -0.89151721874E+02  0.97417114615E+02  0.00000000000E+00 0. -1.
         21    1    1    2  506  502  0.37972455726E+02  0.29478954424E+00 -0.75259826485E+03  0.75355566653E+03  0.00000000000E+00 0. -1.
<scales pt_clust_3="86.51946" pt_clust_4="14000.00000" pt_clust_5="56.59395" pt_clust_6="37.97360"></scales>
<clustering>
<clus scale="   37.974">  2  6  1 -1</clus>
<clus scale="   56.594">  2  5  1 -1</clus>
<clus scale="   86.519">  2  3  1 -1</clus>
<clus scale="   86.519">  1  3  2 -1</clus>
</clustering>
</event>
<event>
 6    0  0.1438923E+002  0.2687403E+03  0.7546771E-02  0.1102003E+00
         21   -1    0    0  505  501  0.00000000000E+00  0.00000000000E+00  0.11175234277E+03  0.11175234277E+03  0.00000000000E+00 0. -1.
         21   -1    0    0  506  502 -0.00000000000E+00 -0.00000000000E+00 -0.11368093441E+04  0.11368093441E+04  0.00000000000E+00 0.  1.
         21    1    1    2  503  501 -0.11095609128E+01  0.56506299705E+02 -0.15697569633E+02  0.58656685247E+02  0.00000000000E+00 0. -1.
         21    1    1    2  504  503 -0.68015001845E+01  0.16305031935E+03 -0.24368834126E+03  0.29328428991E+03  0.00000000000E+00 0. -1.
         21    1    1    2  505  502 -0.93046969160E+02 -0.29320277534E+03 -0.36723993142E+03  0.47905195247E+03  0.00000000000E+00 0. -1.
         21    1    1    2  506  504  0.10095803026E+03  0.73646156290E+02 -0.39843115899E+03  0.41756875920E+03  0.00000000000E+00 0.  1.
<scales pt_clust_3="53.65844" pt_clust_4="53.65844" pt_clust_5="252.79958" pt_clust_6="124.96512"></scales>
<clustering>
<clus scale="   53.658">  3  4 -1 -1</clus>
<clus scale="  124.965">  2  6  1 -1</clus>
<clus scale="  252.800">  2  5  1 -1</clus>
<clus scale="  268.740">  1  3  2 -1</clus>
</clustering>
</event>
<event>
 6    0  0.1438923E+002  0.1728138E+03  0.7546771E-02  0.1174945E+00
         21   -1    0    0  502  501  0.00000000000E+00  0.00000000000E+00  0.37228524217E+03  0.37228524217E+03  0.00000000000E+00 0.  1.
         21   -1    0    0  505  502 -0.00000000000E+00 -0.00000000000E+00 -0.20442794386E+03  0.20442794386E+03  0.00000000000E+00 0.  1.
         21    1    1    2  503  504  0.55920375962E+02  0.52161410656E+02  0.12474278450E+03  0.14631699660E+03  0.00000000000E+00 0.  1.
         21    1    1    2  504  506 -0.69627921490E+01  0.48338512250E+02  0.68565024847E+02  0.84179895898E+02  0.00000000000E+00 0.  1.
         21    1    1    2  505  503 -0.51623134804E+02 -0.14165952180E+03 -0.15140992357E+03  0.21367576634E+03  0.00000000000E+00 0.  1.
         21    1    1    2  506  501  0.26655509916E+01  0.41159598897E+02  0.12595941254E+03  0.13254052720E+03  0.00000000000E+00 0.  1.
<scales pt_clust_3="67.06224" pt_clust_4="67.06224" pt_clust_5="150.77257" pt_clust_6="30.47421"></scales>
<clustering>
<clus scale="   30.474">  4  6 -1 -1</clus>
<clus scale="   67.062">  3  4 -1 -1</clus>
<clus scale="  150.773">  2  5  1 -1</clus>
<clus scale="  172.814">  1  3  2 -1</clus>
</clustering>
</event>
<event>
 6    0  0.1438923E+002  0.1683701E+03  0.7546771E-02  0.1179558E+00
         21   -1    0    0  503  501  0.00000000000E+00  0.00000000000E+00  0.57202896178E+03  0.57202896178E+03  0.00000000000E+00 0.  1.
         21   -1    0    0  501  502 -0.00000000000E+00 -0.00000000000E+00 -0.18328029742E+04  0.18328029742E+04  0.00000000000E+00 0. -1.
         21    1    1    2  503  504  0.86644781411E-01  0.37228432351E+02  0.27517411607E+03  0.27768103615E+03  0.00000000000E+00 0.  1.
         21    1    1    2  504  505  0.93524811464E+02  0.15922985189E+02  0.20733717552E+03  0.22801126325E+03  0.00000000000E+00 0.  1.
         21    1    1    2  505  506  0.57987138345E+02 -0.24433194287E+02  0.61372387034E+02  0.87898003884E+02  0.00000000000E+00 0.  1.
         21    1    1    2  506  502 -0.15159859459E+03 -0.28718223253E+02 -0.18046576910E+04  0.18112416327E+04  0.00000000000E+00 0. -1.
<scales pt_clust_3="37.22853" pt_clust_4="51.50477" pt_clust_5="51.50477" pt_clust_6="154.21717"></scales>
<clustering>
<clus scale="   37.229">  1  3  2 -1</clus>
<clus scale="   51.505">  4  5 -1 -1</clus>
<clus scale="  154.217">  2  6  1 -1</clus>
<clus scale="   37.229">  1  3  2 -1</clus>
</clustering>
</event>
<event>
 6    0  0.1438923E+002  0.1852825E+03  0.7546771E-02  0.1162786E+00
         21   -1    0    0  506  501  0.00000000000E+00  0.00000000000E+00  0.17298341955E+03  0.17298341955E+03  0.00000000000E+00 0.  1.
         21   -1    0    0  503  502 -0.00000000000E+00 -0.00000000000E+00 -0.11913097219E+04  0.11913097219E+04  0.00000000000E+00 0.  1.
         21    1    1    2  503  504  0.11543895034E+02  0.50337487485E+02 -0.80766637600E+03  0.80931582159E+03  0.00000000000E+00 0.  1.
         21    1    1    2  504  505 -0.86691012729E+02 -0.99480923966E+02  0.62646105677E+02  0.14606957410E+03  0.00000000000E+00 0.  1.
         21    1    1    2  505  501 -0.56306664978E+02 -0.18316769297E+02  0.33748460895E+02  0.68153526477E+02  0.00000000000E+00 0.  1.
         21    1    1    2  506  502  0.13145378267E+03  0.67460205778E+02 -0.30705449294E+03  0.34075421931E+03  0.00000000000E+00 0.  1.
<scales pt_clust_3="51.64421" pt_clust_4="31.95070" pt_clust_5="31.95070" pt_clust_6="179.03803"></scales>
<clustering>
<clus scale="   31.951">  4  5 -1 -1</clus>
<clus scale="   51.644">  2  3  1 -1</clus>
<clus scale="  179.038">  2  6  1 -1</clus>
<clus scale="  185.283">  1  3  2 -1</clus>
</clustering>
</event>
<event>
 6    0  0.1438923E+002  0.1152210E+03  0.7546771E-02  0.1251196E+00
         21   -1    0    0  503  501  0.00000000000E+00  0.00000000000E+00  0.15760959450E+04  0.15760959450E+04  0.00000000000E+00 0.  1.
         21   -1    0    0  506  502 -0.00000000000E+00 -0.00000000000E+00 -0.15390043719E+04  0.15390043719E+04  0.00000000000E+00 0. -1.
         21    1    1    2  503  504 -0.21413616967E+02  0.43210079634E+02  0.26294915027E+03  0.26733482676E+03  0.00000000000E+00 0. -1.
         21    1    1    2  504  505 -0.89065899885E+02 -0.10799097181E+03  0.13258250151E+03  0.19280275989E+03  0.00000000000E+00 0. -1.
         21    1    1    2  505  502 -0.19380458386E+02  0.74149868041E+02 -0.15020305882E+04  0.15039846053E+04  0.00000000000E+00 0. -1.
         21    1    1    2  506  501  0.12985997524E+03 -0.93689758700E+01  0.11435905094E+04  0.11509781250E+04  0.00000000000E+00 0.  1.
<scales pt_clust_3="48.22503" pt_clust_4="115.22095" pt_clust_5="76.67595" pt_clust_6="14000.00000"></scales>
<clustering>
<clus scale="   48.225">  1  3  2 -1</clus>
<clus scale="   76.676">  2  5  1 -1</clus>
<clus scale="  115.221">  2  4  1 -1</clus>
<clus scale="   48.225">  1  3  2 -1</clus>
</clustering>
</event>
<event>
 6    0  0.1438923E+002  0.2512190E+03  0.7546771E-02  0.1112537E+00
         21   -1    0    0  503  501  0.00000000000E+00  0.00000000000E+00  0.10644203632E+03  0.10644203632E+03  0.00000000000E+00 0.  1.
         21   -1    0    0  505  502 -0.00000000000E+00 -0.00000000000E+00 -0.92294892542E+03  0.92294892542E+03  0.00000000000E+00 0.  1.
         21    1    1    2  503  502  0.68688313791E+02 -0.23931941637E+03 -0.15338011516E+03  0.29243345778E+03  0.00000000000E+00 0.  1.
         21    1    1    2  504  506 -0.93304755845E+01  0.66997597838E+02 -0.18778656513E+03  0.19959842167E+03  0.00000000000E+00 0.  1.
         21    1    1    2  505  504 -0.27299111633E+02  0.29570942209E+02 -0.32534939187E+03  0.32782908491E+03  0.00000000000E+00 0.  1.
         21    1    1    2  506  501 -0.32058726574E+02  0.14275087632E+03 -0.14999081694E+03  0.20952999739E+03  0.00000000000E+00 0. -1.
<scales pt_clust_3="235.63954" pt_clust_4="61.68985" pt_clust_5="40.24527" pt_clust_6="61.68985"></scales>
<clustering>
<clus scale="   40.245">  2  5  1 -1</clus>
<clus scale="   61.690">  4  6 -1 -1</clus>
<clus scale="  235.640">  1  3  2 -1</clus>
<clus scale="  235.640">  1  3  2 -1</clus>
</clustering>
</event>
<event>
 6    0  0.1438923E+002  0.1231778E+03  0.7546771E-02  0.1237945E+00
         21   -1    0    0  503  501  0.00000000000E+00  0.00000000000E+00  0.29144649210E+03  0.29144649210E+03  0.00000000000E+00 0.  1.
         21   -1    0    0  504  502 -0.00000000000E+00 -0.00000000000E+00 -0.47498050239E+03  0.47498050239E+03  0.00000000000E+00 0.  1.
         21    1    1    2  503  502 -0.74826089620E+02 -0.90092212545E+01 -0.39921290959E+03  0.40626476212E+03  0.00000000000E+00 0.  1.
         21    1    1    2  504  505 -0.15438730206E+02 -0.66985595318E+02 -0.37142836700E+02  0.78134593418E+02  0.00000000000E+00 0.  1.
         21    1    1    2  505  506  0.49057400883E+02  0.35399572213E+02  0.83601226787E+02  0.10319362100E+03  0.00000000000E+00 0.  1.
         21    1    1    2  506  501  0.41207418943E+02  0.40595244360E+02  0.16922050922E+03  0.17883401796E+03  0.00000000000E+00 0.  1.
<scales pt_clust_3="116.08174" pt_clust_4="68.74172" pt_clust_5="40.29152" pt_clust_6="40.29152"></scales>
<clustering>
<clus scale="   40.292">  5  6 -1 -1</clus>
<clus scale="   68.742">  2  4  1 -1</clus>
<clus scale="  116.082">  2  3  1 -1</clus>
<clus scale="  123.178">  1  3  2 -1</clus>
</clustering>
</event>
<event>
 6    0  0.1438923E+002  0.1912048E+03  0.7546771E-02  0.1157379E+00
         21   -1    0    0  506  501  0.00000000000E+00  0.00000000000E+00  0.73092495790E+03  0.73092495790E+03  0.00000000000E+00 0.  1.
         21   -1    0    0  503  502 -0.00000000000E+00 -0.00000000000E+00 -0.73493126725E+03  0.73493126725E+03  0.00000000000E+00 0.  1.
         21    1    1    2  503  501 -0.39166646012E+02  0.98212299450E+02  0.36435223259E+03  0.37938401563E+03  0.00000000000E+00 0.  1.
         21    1    1    2  504  502  0.15042958398E+02 -0.19384489310E+03 -0.69769782322E+03  0.72428197942E+03  0.00000000000E+00 0.  1.
         21    1    1    2  505  504  0.64308311989E+02  0.88631797175E+02  0.22737759184E+03  0.25237219286E+03  0.00000000000E+00 0. -1.
         21    1    1    2  506  505 -0.40184624375E+02  0.70007964759E+01  0.10196168944E+03  0.10981803723E+03  0.00000000000E+00 0.  1.
<scales pt_clust_3="14000.00000" pt_clust_4="191.20476" pt_clust_5="103.58065" pt_clust_6="40.78989"></scales>
<clustering>
<clus scale="   40.790">  1  6  2 -1</clus>
<clus scale="  103.581">  1  5  2 -1</clus>
<clus scale="  191.205">  2  4  1 -1</clus>
<clus scale="   40.790">  1  3  2 -1</clus>
</clustering>
</event>
<event>
 6    0  0.1438923E+002  0.3273328E+03  0.7546771E-02  0.1072323E+00
         21   -1    0    0  505  501  0.00000000000E+00  0.00000000000E+00  0.82057288472E+03  0.82057288472E+03  0.00000000000E+00 0. -1.
         21   -1    0    0  506  502 -0.00000000000E+00 -0.00000000000E+00 -0.20511929570E+03  0.20511929570E+03  0.00000000000E+00 0. -1.
         21    1    1    2  503  502 -0.19928285320E+00 -0.33533238736E+03  0.11919947797E+03  0.35588813591E+03  0.00000000000E+00 0. -1.
         21    1    1    2  504  503  0.54448475670E+02  0.35966506944E+02  0.11440137432E+03  0.13170383658E+03  0.00000000000E+00 0. -1.
         21    1    1    2  505  504  0.51931752937E+02 -0.84614985366E+01  0.66539455697E+02  0.84829258426E+02  0.00000000000E+00 0.  1.
         21    1    1    2  506  501 -0.10618094575E+03  0.30782737896E+03  0.31531328103E+03  0.45327094951E+03  0.00000000000E+00 0. -1.
<scales pt_clust_3="14000.00000" pt_clust_4="118.94115" pt_clust_5="40.89112" pt_clust_6="327.33283"></scales>
<clustering>
<clus scale="   40.891">  4  5 -1 -1</clus>
<clus scale="  118.941">  1  4  2 -1</clus>
<clus scale="  327.333">  1  6  2 -1</clus>
<clus scale="  118.941">  1  3  2 -1</clus>
</clustering>
</event>
<event>
 6    0  0.1438923E+002  0.1543881E+03  0.7546771E-02  0.1195182E+00
         21   -1    0    0  505  501  0.00000000000E+00  0.00000000000E+00  0.35295226495E+03  0.35295226495E+03  0.00000000000E+00 0.  1.
         21   -1    0    0  506  502 -0.00000000000E+00 -0.00000000000E+00 -0.54076773026E+03  0.54076773026E+03  0.00000000000E+00 0.  1.
         21    1    1    2  503  501  0.10182631162E+03  0.49004334459E+02  0.17027557996E+03  0.20436192323E+03  0.00000000000E+00 0.  1.
         21    1    1    2  504  503  0.21429354383E+02  0.38950957231E+02  0.11508224926E+03  0.12337065451E+03  0.00000000000E+00 0.  1.
         21    1    1    2  505  502 -0.37213922322E+02 -0.62013576478E+01 -0.44154969936E+03  0.44315851550E+03  0.00000000000E+00 0.  1.
         21    1    1    2  506  504 -0.86041743685E+02 -0.81753934043E+02 -0.31623595173E+02  0.12282890197E+03  0.00000000000E+00 0.  1.
<scales pt_clust_3="34.64769" pt_clust_4="34.64769" pt_clust_5="37.72708" pt_clust_6="144.16734"></scales>
<clustering>
<clus scale="   34.648">  3  4 -1 -1</clus>
<clus scale="   37.727">  2  5  1 -1</clus>
<clus scale="  144.167">  2  6  1 -1</clus>
<clus scale="  154.388">  1  3  2 -1</clus>
</clustering>
</event>
<event>
 6    0  0.1438923E+002  0.1525219E+03  0.7546771E-02  0.1197408E+00
         21   -1    0    0  504  501  0.00000000000E+00  0.00000000000E+00  0.43067900090E+02  0.43067900090E+02  0.00000000000E+00 0. -1.
         21   -1    0    0  503  502 -0.00000000000E+00 -0.00000000000E+00 -0.27303139393E+04  0.27303139393E+04  0.00000000000E+00 0.  1.
         21    1    1    2  503  501 -0.32877439498E+00 -0.40374469702E+02 -0.56600249264E+02  0.69525492541E+02  0.00000000000E+00 0. -1.
         21    1    1    2  504  505  0.19300565162E+02 -0.39858498742E+02 -0.10799472755E+02  0.45583334118E+02  0.00000000000E+00 0. -1.
         21    1    1    2  505  506  0.74634297922E+02 -0.28038122187E+02 -0.75174298600E+02  0.10957914898E+03  0.00000000000E+00 0. -1.
         21    1    1    2  506  502 -0.93606088689E+02  0.10827109063E+03 -0.25446720186E+04  0.25486938638E+04  0.00000000000E+00 0.  1.
<scales pt_clust_3="40.37581" pt_clust_4="47.85845" pt_clust_5="47.85845" pt_clust_6="141.46640"></scales>
<clustering>
<clus scale="   40.376">  1  3  2 -1</clus>
<clus scale="   47.858">  4  5 -1 -1</clus>
<clus scale="  141.466">  2  6  1 -1</clus>
<clus scale="   40.376">  1  3  2 -1</clus>
</clustering>
</event>
<event>
 6    0  0.1438923E+002  0.1944241E+03  0.7546771E-02  0.1154531E+00
         21   -1    0    0  506  501  0.00000000000E+00  0.00000000000E+00  0.17210887440E+03  0.17210887440E+03  0.00000000000E+00 0.  1.
         21   -1    0    0  505  502 -0.00000000000E+00 -0.00000000000E+00 -0.12112001838E+04  0.12112001838E+04  0.00000000000E+00 0. -1.
         21    1    1    2  503  501 -0.14952650856E+03  0.27769214346E+01 -0.15275196952E+03  0.21377336655E+03  0.00000000000E+00 0. -1.
         21    1    1    2  504  502  0.43692446144E+02 -0.87513900012E+01 -0.86328392582E+03  0.86443319768E+03  0.00000000000E+00 0. -1.
         21    1    1    2  505  503 -0.71636839617E+02 -0.30805091535E+02 -0.83306080519E+02  0.11410825345E+03  0.00000000000E+00 0. -1.
         21    1    1    2  506  504  0.17747090203E+03  0.36779560102E+02  0.60250666438E+02  0.19099424053E+03  0.00000000000E+00 0.  1.
<scales pt_clust_3="32.96536" pt_clust_4="44.56026" pt_clust_5="32.96536" pt_clust_6="188.98832"></scales>
<clustering>
<clus scale="   32.965">  3  5 -1 -1</clus>
<clus scale="   44.560">  2  4  1 -1</clus>
<clus scale="  188.988">  1  6  2 -1</clus>
<clus scale="  188.988">  1  3  2 -1</clus>
</clustering>
</event>
<event>
 6    0  0.1438923E+002  0.8287444E+02  0.7546771E-02  0.1321087E+00
         21   -1    0    0  504  501  0.00000000000E+00  0.00000000000E+00  0.32500615750E+03  0.32500615750E+03  0.00000000000E+00 0. -1.
         21   -1    0    0  505  502 -0.00000000000E+00 -0.00000000000E+00 -0.89719090672E+02  0.89719090672E+02  0.00000000000E+00 0. -1.
         21    1    1    2  503  501  0.96721229658E+01 -0.32314694421E+02  0.75247155117E+02  0.82461650428E+02  0.00000000000E+00 0. -1.
         21    1    1    2  504  506 -0.73223729542E+02 -0.17470805950E+02  0.16584603505E+03  0.18213141126E+03  0.00000000000E+00 0. -1.
         21    1    1    2  505  503  0.89160647044E+02  0.69170822864E+02 -0.20698908437E+02  0.11472867352E+03  0.00000000000E+00 0. -1.
         21    1    1    2  506  502 -0.25609040468E+02 -0.19385322493E+02  0.14892785102E+02  0.35403512960E+02  0.00000000000E+00 0. -1.
<scales pt_clust_3="34.26807" pt_clust_4="82.87444" pt_clust_5="14000.00000" pt_clust_6="32.11874"></scales>
<clustering>
<clus scale="   32.119">  2  6  1 -1</clus>
<clus scale="   34.268">  1  3  2 -1</clus>
<clus scale="   82.874">  1  4  2 -1</clus>
<clus scale="   34.268">  1  3  2 -1</clus>
</clustering>
</event>
<event>
 6    0  0.1438923E+002  0.1424776E+03  0.7546771E-02  0.1210033E+00
         21   -1    0    0  505  501  0.00000000000E+00  0.00000000000E+00  0.11974663211E+03  0.11974663211E+03  0.00000000000E+00 0. -1.
         21   -1    0    0  503  502 -0.00000000000E+00 -0.00000000000E+00 -0.31156252515E+03  0.31156252515E+03  0.00000000000E+00 0. -1.
         21    1    1    2  503  504 -0.17192826921E+02 -0.55614855007E+02 -0.11304620916E+02  0.59299239869E+02  0.00000000000E+00 0. -1.
         21    1    1    2  504  506 -0.50177711744E+02 -0.39219270407E+02 -0.31537246642E+02  0.71067234735E+02  0.00000000000E+00 0. -1.
         21    1    1    2  505  502  0.30048922947E+02  0.15254006641E+03 -0.16872945511E+03  0.22943634989E+03  0.00000000000E+00 0. -1.
         21    1    1    2  506  501  0.37321615718E+02 -0.57705940992E+02  0.19755429630E+02  0.71506332765E+02  0.00000000000E+00 0. -1.
<scales pt_clust_3="38.57163" pt_clust_4="38.57163" pt_clust_5="136.64620" pt_clust_6="68.72320"></scales>
<clustering>
<clus scale="   38.572">  3  4 -1 -1</clus>
<clus scale="   68.723">  1  6  2 -1</clus>
<clus scale="  136.646">  2  5  1 -1</clus>
<clus scale="   68.723">  1  3  2 -1</clus>
</clustering>
</event>
<event>
 6    0  0.1438923E+002  0.8285832E+02  0.7546771E-02  0.1321130E+00
         21   -1    0    0  504  501  0.00000000000E+00  0.00000000000E+00  0.13083866257E+04  0.13083866257E+04  0.00000000000E+00 0. -1.
         21   -1    0    0  503  502 -0.00000000000E+00 -0.00000000000E+00 -0.37470428709E+02  0.37470428709E+02  0.00000000000E+00 0. -1.
         21    1    1    2  503  501  0.73812399696E+02 -0.81448850565E+01  0.42205621072E+03  0.42853944335E+03  0.00000000000E+00 0. -1.
         21    1    1    2  504  506 -0.26043500996E+02 -0.32421966975E+02  0.23450792457E+03  0.23816677890E+03  0.00000000000E+00 0.  1.
         21    1    1    2  505  502  0.76984765336E+02  0.18680901762E+02  0.35863503458E+02  0.86958731964E+02  0.00000000000E+00 0. -1.
         21    1    1    2  506  505 -0.12475366404E+03  0.21885950270E+02  0.57848855827E+03  0.59219210022E+03  0.00000000000E+00 0. -1.
<scales pt_clust_3="66.86615" pt_clust_4="41.58663" pt_clust_5="14000.00000" pt_clust_6="82.85832"></scales>
<clustering>
<clus scale="   41.587">  1  4  2 -1</clus>
<clus scale="   66.866">  1  3  2 -1</clus>
<clus scale="   82.858">  1  6  2 -1</clus>
<clus scale="   41.587">  1  3  2 -1</clus>
</clustering>
</event>
<event>
 6    0  0.1438923E+002  0.1688813E+03  0.7546771E-02  0.1179019E+00
         21   -1    0    0  506  501  0.00000000000E+00  0.00000000000E+00  0.21986733828E+03  0.21986733828E+03  0.00000000000E+00 0.  1.
         21   -1    0    0  501  502 -0.00000000000E+00 -0.00000000000E+00 -0.15713445597E+04  0.15713445597E+04  0.00000000000E+00 0.  1.
         21    1    1    2  503  505  0.72176665152E+02 -0.13519214026E+02  0.91237377312E+02  0.11711745881E+03  0.00000000000E+00 0.  1.
         21    1    1    2  504  502 -0.13244030132E+03  0.96352791947E+02 -0.15207302246E+04  0.15295243411E+04  0.00000000000E+00 0.  1.
         21    1    1    2  505  504  0.69290377823E+02 -0.48091471018E+02  0.64633345916E+02  0.10626107212E+03  0.00000000000E+00 0.  1.
         21    1    1    2  506  503 -0.90267416542E+01 -0.34742106902E+02  0.13382279922E+02  0.38309025997E+02  0.00000000000E+00 0. -1.
<scales pt_clust_3="38.34553" pt_clust_4="163.48522" pt_clust_5="38.34553" pt_clust_6="35.89563"></scales>
<clustering>
<clus scale="   35.896">  1  6  2 -1</clus>
<clus scale="   38.346">  3  5 -1 -1</clus>
<clus scale="  163.485">  2  4  1 -1</clus>
<clus scale="   35.896">  1  3  2 -1</clus>
</clustering>
</event>
<event>
 6    0  0.1438923E+002  0.1346384E+03  0.7546771E-02  0.1220731E+00
         21   -1    0    0  503  501  0.00000000000E+00  0.00000000000E+00  0.14339017326E+03  0.14339017326E+03  0.00000000000E+00 0. -1.
         21   -1    0    0  506  502 -0.00000000000E+00 -0.00000000000E+00 -0.60707682175E+03  0.60707682175E+03  0.00000000000E+00 0. -1.
         21    1    1    2  503  505 -0.13482575415E+01  0.39810247156E+02  0.12630062412E+02  0.41787462875E+02  0.00000000000E+00 0.  1.
         21    1    1    2  504  502 -0.78961575591E+02  0.26504915615E+02  0.75071878386E+02  0.11213040576E+03  0.00000000000E+00 0. -1.
         21    1    1    2  505  504 -0.22766072566E+02  0.28726211146E+02 -0.11000312914E+02  0.38268735948E+02  0.00000000000E+00 0.  1.
         21    1    1    2  506  501  0.10307590570E+03 -0.95041373917E+02 -0.54038827638E+03  0.55828039043E+03  0.00000000000E+00 0. -1.
<scales pt_clust_3="80.03961" pt_clust_4="134.63837" pt_clust_5="32.21162" pt_clust_6="14000.00000"></scales>
<clustering>
<clus scale="   32.212">  3  5 -1 -1</clus>
<clus scale="   80.040">  1  3  2 -1</clus>
<clus scale="  134.638">  1  4  2 -1</clus>
<clus scale="   80.040">  1  3  2 -1</clus>
</clustering>
</event>
<event>
 6    0  0.1438923E+002  0.3173143E+03  0.7546771E-02  0.1076892E+00
         21   -1    0    0  504  501  0.00000000000E+00  0.00000000000E+00  0.10445397798E+03  0.10445397798E+03  0.00000000000E+00 0. -1.
         21   -1    0    0  503  502 -0.00000000000E+00 -0.00000000000E+00 -0.13844978696E+04  0.13844978696E+04  0.00000000000E+00 0. -1.
         21    1    1    2  503  501 -0.22860305082E+03 -0.19046994414E+03 -0.51835859159E+03  0.59769037464E+03  0.00000000000E+00 0. -1.
         21    1    1    2  504  505  0.15176679053E+03  0.15322324005E+03 -0.20674995132E+03  0.29875753107E+03  0.00000000000E+00 0. -1.
         21    1    1    2  505  506  0.76141501916E+02  0.81287500499E+02 -0.15901810312E+03  0.19414412989E+03  0.00000000000E+00 0. -1.
         21    1    1    2  506  502  0.69475837282E+00 -0.44040796409E+02 -0.39591724560E+03  0.39835981198E+03  0.00000000000E+00 0. -1.
<scales pt_clust_3="313.78352" pt_clust_4="33.92344" pt_clust_5="33.92344" pt_clust_6="44.04628"></scales>
<clustering>
<clus scale="   33.923">  4  5 -1 -1</clus>
<clus scale="   44.046">  2  6  1 -1</clus>
<clus scale="  313.784">  2  3  1 -1</clus>
<clus scale="  317.314">  1  3  2 -1</clus>
</clustering>
</event>
<event>
 6    0  0.1438923E+002  0.1377875E+03  0.7546771E-02  0.1216337E+00
         21   -1    0    0  505  501  0.00000000000E+00  0.00000000000E+00  0.90767797300E+03  0.90767797300E+03  0.00000000000E+00 0.  1.
         21   -1    0    0  503  502 -0.00000000000E+00 -0.00000000000E+00 -0.39349855909E+02  0.39349855909E+02  0.00000000000E+00 0.  1.
         21    1    1    2  503  501 -0.31204457926E+02 -0.14653083607E+03  0.27758923787E+03  0.31543745671E+03  0.00000000000E+00 0.  1.
         21    1    1    2  504  502 -0.16501668917E+02  0.31284477822E+02  0.10895482892E+02  0.37009933492E+02  0.00000000000E+00 0.  1.
         21    1    1    2  505  506  0.47913248512E+02  0.67938507096E+02  0.40537530347E+03  0.41381210325E+03  0.00000000000E+00 0.  1.
         21    1    1    2  506  504 -0.20712166861E+00  0.47307851152E+02  0.17446809286E+03  0.18076833547E+03  0.00000000000E+00 0. -1.
<scales pt_clust_3="131.28386" pt_clust_4="35.36981" pt_clust_5="31.55655" pt_clust_6="31.55655"></scales>
<clustering>
<clus scale="   31.557">  5  6 -1 -1</clus>
<clus scale="   35.370">  2  4  1 -1</clus>
<clus scale="  131.284">  2  3  1 -1</clus>
<clus scale="  137.787">  1  3  2 -1</clus>
</clustering>
</event>
<event>
 6    0  0.1438923E+002  0.1160891E+03  0.7546771E-02  0.1249692E+00
         21   -1    0    0  504  501  0.00000000000E+00  0.00000000000E+00  0.45886671057E+03  0.45886671057E+03  0.00000000000E+00 0. -1.
         21   -1    0    0  503  502 -0.00000000000E+00 -0.00000000000E+00 -0.66107427280E+02  0.66107427280E+02  0.00000000000E+00 0. -1.
         21    1    1    2  503  505  0.35781756701E+02 -0.45243367435E+02 -0.67959382874E+01  0.58081676858E+02  0.00000000000E+00 0. -1.
         21    1    1    2  504  506 -0.16388507777E+02  0.79516563030E+02  0.13414241578E+03  0.15679813358E+03  0.00000000000E+00 0. -1.
         21    1    1    2  505  501  0.24857828366E+02 -0.87405611893E+02  0.16063958519E+03  0.18456090852E+03  0.00000000000E+00 0. -1.
         21    1    1    2  506  502 -0.44251077290E+02  0.53132416298E+02  0.10477322060E+03  0.12553341889E+03  0.00000000000E+00 0. -1.
<scales pt_clust_3="57.68272" pt_clust_4="34.00251" pt_clust_5="110.08712" pt_clust_6="34.00251"></scales>
<clustering>
<clus scale="   34.003">  4  6 -1 -1</clus>
<clus scale="   57.683">  2  3  1 -1</clus>
<clus scale="  110.087">  1  5  2 -1</clus>
<clus scale="  110.087">  1  3  2 -1</clus>
</clustering>
</event>
<event>
 6    0  0.1438923E+002  0.9268890E+02  0.7546771E-02  0.1296468E+00
         21   -1    0    0  506  501  0.00000000000E+00  0.00000000000E+00  0.10384351571E+04  0.10384351571E+04  0.00000000000E+00 0.  1.
         21   -1    0    0  503  502 -0.00000000000E+00 -0.00000000000E+00 -0.72971807582E+03  0.72971807582E+03  0.00000000000E+00 0. -1.
         21    1    1    2  503  501  0.64929222059E+01  0.64136106548E+02  0.22122918498E+02  0.68154396225E+02  0.00000000000E+00 0.  1.
         21    1    1    2  504  505  0.13013090867E+03 -0.79039945128E+02  0.71220364481E+03  0.72829622957E+03  0.00000000000E+00 0.  1.
         21    1    1    2  505  502 -0.91123207105E+02 -0.16453154451E+02 -0.69274775759E+03  0.69890886445E+03  0.00000000000E+00 0. -1.
         21    1    1    2  506  504 -0.45500623766E+02  0.31356993031E+02  0.26713827560E+03  0.27279374271E+03  0.00000000000E+00 0. -1.
<scales pt_clust_3="66.08848" pt_clust_4="92.68890" pt_clust_5="14000.00000" pt_clust_6="55.25910"></scales>
<clustering>
<clus scale="   55.259">  1  6  2 -1</clus>
<clus scale="   66.088">  1  3  2 -1</clus>
<clus scale="   92.689">  1  4  2 -1</clus>
<clus scale="   55.259">  1  3  2 -1</clus>
</clustering>
</event>
<event>
 6    0  0.1438923E+002  0.1260571E+03  0.7546771E-02  0.1233426E+00
         21   -1    0    0  506  501  0.00000000000E+00  0.00000000000E+00  0.12824988283E+03  0.12824988283E+03  0.00000000000E+00 0.  1.
         21   -1    0    0  504  502 -0.00000000000E+00 -0.00000000000E+00 -0.86142380946E+03  0.86142380946E+03  0.00000000000E+00 0. -1.
         21    1    1    2  503  501  0.10864332560E+03  0.53408601286E+02  0.50043082596E+02  0.13099679769E+03  0.00000000000E+00 0.  1.
         21    1    1    2  504  505  0.46144368122E+02  0.24607432912E+02 -0.35775170419E+03  0.36155374471E+03  0.00000000000E+00 0. -1.
         21    1    1    2  505  503 -0.16621868879E+03 -0.37191806287E+02 -0.42141529707E+03  0.45453573629E+03  0.00000000000E+00 0. -1.
         21    1    1    2  506  502  0.11430995064E+02 -0.40824227911E+02 -0.40500079622E+01  0.42587413600E+02  0.00000000000E+00 0.  1.
<scales pt_clust_3="126.05707" pt_clust_4="52.14145" pt_clust_5="14000.00000" pt_clust_6="42.39440"></scales>
<clustering>
<clus scale="   42.394">  1  6  2 -1</clus>
<clus scale="   52.141">  2  4  1 -1</clus>
<clus scale="  126.057">  1  3  2 -1</clus>
<clus scale="   42.394">  1  3  2 -1</clus>
</clustering>
</event>
<event>
 6    0  0.1438923E+002  0.1608007E+03  0.7546771E-02  0.1187796E+00
         21   -1    0    0  503  501  0.00000000000E+00  0.00000000000E+00  0.63608851534E+03  0.63608851534E+03  0.00000000000E+00 0.  1.
         21   -1    0    0  506  502 -0.00000000000E+00 -0.00000000000E+00 -0.91545626502E+03  0.91545626502E+03  0.00000000000E+00 0. -1.
         21    1    1    2  503  505  0.48972608881E+01  0.68513700875E+02 -0.11143526330E+02  0.69586554382E+02  0.00000000000E+00 0.  1.
         21    1    1    2  504  501 -0.17053448396E+03 -0.59410705390E+02  0.50082719651E+03  0.53239038581E+03  0.00000000000E+00 0.  1.
         21    1    1    2  505  502  0.46015530060E+02  0.10785739682E+02 -0.81758672674E+03  0.81895165726E+03  0.00000000000E+00 0. -1.
         21    1    1    2  506  504  0.11962169301E+03 -0.19888735167E+02  0.48535306877E+02  0.13061618291E+03  0.00000000000E+00 0.  1.
<scales pt_clust_3="76.84054" pt_clust_4="14000.00000" pt_clust_5="47.26268" pt_clust_6="160.80066"></scales>
<clustering>
<clus scale="   47.263">  2  5  1 -1</clus>
<clus scale="   76.841">  2  3  1 -1</clus>
<clus scale="  160.801">  2  6  1 -1</clus>
<clus scale="  160.801">  1  3  2 -1</clus>
</clustering>
</event>
<event>
 6    0  0.1438923E+002  0.1220821E+03  0.7546771E-02  0.1239701E+00
         21   -1    0    0  504  501  0.00000000000E+00  0.00000000000E+00  0.23510162488E+03  0.23510162488E+03  0.00000000000E+00 0. -1.
         21   -1    0    0  506  502 -0.00000000000E+00 -0.00000000000E+00 -0.22558367919E+03  0.22558367919E+03  0.00000000000E+00 0. -1.
         21    1    1    2  503  501 -0.44953945846E+01 -0.81173821268E+02  0.78866590788E+02  0.11326666312E+03  0.00000000000E+00 0. -1.
         21    1    1    2  504  502 -0.28003267521E+02  0.27963237250E+02  0.29006287882E+02  0.49066183529E+02  0.00000000000E+00 0. -1.
         21    1    1    2  505  503 -0.34328820764E+02 -0.35138538978E+02  0.76764361670E+02  0.91136996215E+02  0.00000000000E+00 0. -1.
         21    1    1    2  506  505  0.66827482869E+02  0.88349122996E+02 -0.17511929466E+03  0.20721546120E+03  0.00000000000E+00 0. -1.
<scales pt_clust_3="39.05260" pt_clust_4="39.57431" pt_clust_5="39.05260" pt_clust_6="111.26568"></scales>
<clustering>
<clus scale="   39.053">  3  5 -1 -1</clus>
<clus scale="   39.574">  1  4  2 -1</clus>
<clus scale="  111.266">  2  6  1 -1</clus>
<clus scale="   39.574">  1  3  2 -1</clus>
</clustering>
</event>
<event>
 6    0  0.1438923E+002  0.8164464E+02  0.7546771E-02  0.1324448E+00
         21   -1    0    0  505  501  0.00000000000E+00  0.00000000000E+00  0.12987637304E+03  0.12987637304E+03  0.00000000000E+00 0.  1.
         21   -1    0    0  504  502 -0.00000000000E+00 -0.00000000000E+00 -0.59643480803E+03  0.59643480803E+03  0.00000000000E+00 0. -1.
         21    1    1    2  503  502  0.10897064840E+02  0.33174794169E+02 -0.39988484368E+03  0.40140652859E+03  0.00000000000E+00 0. -1.
         21    1    1    2  504  501 -0.51301747162E+02 -0.58929911609E+02  0.58683829831E+02  0.97715892401E+02  0.00000000000E+00 0.  1.
         21    1    1    2  505  506  0.10889440210E+03  0.26187691815E+02 -0.42749604447E+02  0.11988041830E+03  0.00000000000E+00 0. -1.
         21    1    1    2  506  503 -0.68489719776E+02 -0.43257437503E+00 -0.82607816694E+02  0.10730834178E+03  0.00000000000E+00 0.  1.
<scales pt_clust_3="34.91866" pt_clust_4="81.64464" pt_clust_5="14000.00000" pt_clust_6="65.11508"></scales>
<clustering>
<clus scale="   34.919">  2  3  1 -1</clus>
<clus scale="   65.115">  2  6  1 -1</clus>
<clus scale="   81.645">  1  4  2 -1</clus>
<clus scale="   81.645">  1  3  2 -1</clus>
</clustering>
</event>
<event>
 6    0  0.1438923E+002  0.7281666E+02  0.7546771E-02  0.1350769E+00
         21   -1    0    0  505  501  0.00000000000E+00  0.00000000000E+00  0.13370628122E+03  0.13370628122E+03  0.00000000000E+00 0. -1.
         21   -1    0    0  504  502 -0.00000000000E+00 -0.00000000000E+00 -0.18330092111E+03  0.18330092111E+03  0.00000000000E+00 0.  1.
         21    1    1    2  503  502  0.28086011342E+02  0.30386948476E+02 -0.66393344944E+01  0.41907892256E+02  0.00000000000E+00 0.  1.
         21    1    1    2  504  506 -0.55733354065E+02  0.42544475065E+02 -0.95322907046E+02  0.11833298662E+03  0.00000000000E+00 0.  1.
         21    1    1    2  505  503  0.76513323478E+02 -0.34099132477E+02  0.18626877643E+02  0.85813752255E+02  0.00000000000E+00 0. -1.
         21    1    1    2  506  501 -0.48865980755E+02 -0.38832291064E+02  0.33740724006E+02  0.70952571207E+02  0.00000000000E+00 0. -1.
<scales pt_clust_3="41.37863" pt_clust_4="14000.00000" pt_clust_5="72.81666" pt_clust_6="57.63684"></scales>
<clustering>
<clus scale="   41.379">  2  3  1 -1</clus>
<clus scale="   57.637">  1  6  2 -1</clus>
<clus scale="   72.817">  1  5  2 -1</clus>
<clus scale="   57.637">  1  3  2 -1</clus>
</clustering>
</event>
<event>
 6    0  0.1438923E+002  0.1457980E+03  0.7546771E-02  0.1205734E+00
         21   -1    0    0  506  501  0.00000000000E+00  0.00000000000E+00  0.12093088530E+03  0.12093088530E+03  0.00000000000E+00 0. -1.
         21   -1    0    0  504  502 -0.00000000000E+00 -0.00000000000E+00 -0.27316496300E+04  0.27316496300E+04  0.00000000000E+00 0. -1.
         21    1    1    2  503  501  0.14607416782E+03  0.19935973919E+02  0.63001517318E+02  0.16032559604E+03  0.00000000000E+00 0. -1.
         21    1    1    2  504  505  0.66416523904E+01 -0.34385978492E+02 -0.89992221443E+02  0.96566593518E+02  0.00000000000E+00 0.  1.
         21    1    1    2  505  503 -0.12032303300E+03 -0.27872912612E+02 -0.67439095868E+03  0.68560753838E+03  0.00000000000E+00 0. -1.
         21    1    1    2  506  502 -0.32392787209E+02  0.42322917184E+02 -0.19093370819E+04  0.19100807873E+04  0.00000000000E+00 0. -1.
<scales pt_clust_3="145.79801" pt_clust_4="35.02152" pt_clust_5="14000.00000" pt_clust_6="32.63259"></scales>
<clustering>
<clus scale="   35.022">  2  4  1 -1</clus>
<clus scale="   32.633">  2  6  1 -1</clus>
<clus scale="  145.798">  1  3  2 -1</clus>
<clus scale="  145.798">  1  3  2 -1</clus>
</clustering>
</event>
<event>
 6    0  0.1438923E+002  0.1097234E+03  0.7546771E-02  0.1261083E+00
         21   -1    0    0  503  501  0.00000000000E+00  0.00000000000E+00  0.50877242362E+03  0.50877242362E+03  0.00000000000E+00 0. -1.
         21   -1    0    0  506  502 -0.00000000000E+00 -0.00000000000E+00 -0.12348261948E+03  0.12348261948E+03  0.00000000000E+00 0.  1.
         21    1    1    2  503  502 -0.15396297860E+03 -0.15765044694E+02 -0.24143362074E+02  0.15663983321E+03  0.00000000000E+00 0.  1.
         21    1    1    2  504  501  0.40473148250E+02  0.22805519400E+02  0.20694526061E+03  0.21209551700E+03  0.00000000000E+00 0. -1.
         21    1    1    2  505  504  0.32869373174E+02  0.45951883761E+02  0.13335750996E+03  0.14483161526E+03  0.00000000000E+00 0. -1.
         21    1    1    2  506  505  0.80620457178E+02 -0.52992358468E+02  0.69130395647E+02  0.11868807764E+03  0.00000000000E+00 0. -1.
<scales pt_clust_3="102.73717" pt_clust_4="34.93549" pt_clust_5="34.93549" pt_clust_6="96.47719"></scales>
<clustering>
<clus scale="   34.935">  4  5 -1 -1</clus>
<clus scale="   96.477">  2  6  1 -1</clus>
<clus scale="  102.737">  2  3  1 -1</clus>
<clus scale="  109.723">  1  3  2 -1</clus>
</clustering>
</event>
<event>
 6    0  0.1438923E+002  0.9256813E+02  0.7546771E-02  0.1296749E+00
         21   -1    0    0  504  501  0.00000000000E+00  0.00000000000E+00  0.13917363669E+04  0.13917363669E+04  0.00000000000E+00 0.  1.
         21   -1    0    0  506  502 -0.00000000000E+00 -0.00000000000E+00 -0.15727080895E+03  0.15727080895E+03  0.00000000000E+00 0. -1.
         21    1    1    2  503  505  0.17609747216E+02 -0.64691449004E+02  0.62234472493E+03  0.62594571923E+03  0.00000000000E+00 0.  1.
         21    1    1    2  504  502  0.22024805840E+02  0.36845779227E+02  0.11209612790E+03  0.12003435096E+03  0.00000000000E+00 0. -1.
         21    1    1    2  505  501 -0.17182434857E+02 -0.53715815295E+02  0.63837592686E+03  0.64086226981E+03  0.00000000000E+00 0. -1.
         21    1    1    2  506  503 -0.22452118199E+02  0.81561485071E+02 -0.13835122169E+03  0.16216483590E+03  0.00000000000E+00 0. -1.
<scales pt_clust_3="33.89085" pt_clust_4="42.92672" pt_clust_5="33.89085" pt_clust_6="84.87286"></scales>
<clustering>
<clus scale="   33.891">  3  5 -1 -1</clus>
<clus scale="   42.927">  1  4  2 -1</clus>
<clus scale="   84.873">  2  6  1 -1</clus>
<clus scale="   42.927">  1  3  2 -1</clus>
</clustering>
</event>
<event>
 6    0  0.1438923E+002  0.9369435E+02  0.7546771E-02  0.1294144E+00
         21   -1    0    0  505  501  0.00000000000E+00  0.00000000000E+00  0.76475692861E+03  0.76475692861E+03  0.00000000000E+00 0.  1.
         21   -1    0    0  503  502 -0.00000000000E+00 -0.00000000000E+00 -0.98287421805E+02  0.98287421805E+02  0.00000000000E+00 0.  1.
         21    1    1    2  503  501 -0.84816391535E+02  0.35152691687E+02  0.46838888827E+03  0.47730250645E+03  0.00000000000E+00 0.  1.
         21    1    1    2  504  506  0.62492942133E+02 -0.60904031076E+02  0.15891366702E+03  0.18129595248E+03  0.00000000000E+00 0. -1.
         21    1    1    2  505  504 -0.29494012494E+02 -0.20498023499E+02  0.10363465532E+03  0.10968230270E+03  0.00000000000E+00 0.  1.
         21    1    1    2  506  502  0.51817461896E+02  0.46249362888E+02 -0.64467703818E+02  0.94763588790E+02  0.00000000000E+00 0.  1.
<scales pt_clust_3="14000.00000" pt_clust_4="93.69435" pt_clust_5="35.91749" pt_clust_6="68.63481"></scales>
<clustering>
<clus scale="   35.917">  1  5  2 -1</clus>
<clus scale="   68.635">  2  6  1 -1</clus>
<clus scale="   93.694">  2  4  1 -1</clus>
<clus scale="   35.917">  1  3  2 -1</clus>
</clustering>
</event>
<event>
 6    0  0.1438923E+002  0.3434081E+03  0.7546771E-02  0.1065354E+00
         21   -1    0    0  503  501  0.00000000000E+00  0.00000000000E+00  0.10005807847E+04  0.10005807847E+04  0.00000000000E+00 0. -1.
         21   -1    0    0  505  502 -0.00000000000E+00 -0.00000000000E+00 -0.22360788770E+03  0.22360788770E+03  0.00000000000E+00 0. -1.
         21    1    1    2  503  502 -0.29486783368E+03 -0.70760596478E+02  0.25399331312E+03  0.39555872442E+03  0.00000000000E+00 0. -1.
         21    1    1    2  504  501  0.15818935360E+03  0.12064460102E+03  0.20947005861E+03  0.28888872737E+03  0.00000000000E+00 0. -1.
         21    1    1    2  505  506  0.82941827752E+01 -0.17330210334E+03 -0.63838181792E+01  0.17361787242E+03  0.00000000000E+00 0. -1.
         21    1    1    2  506  504  0.12838429730E+03  0.12341809880E+03  0.31989334341E+03  0.36612334816E+03  0.00000000000E+00 0. -1.
<scales pt_clust_3="332.87382" pt_clust_4="79.85736" pt_clust_5="173.50047" pt_clust_6="79.85736"></scales>
<clustering>
<clus scale="   79.857">  4  6 -1 -1</clus>
<clus scale="  173.500">  2  5  1 -1</clus>
<clus scale="  332.874">  2  3  1 -1</clus>
<clus scale="  343.408">  1  3  2 -1</clus>
</clustering>
</event>
<event>
 6    0  0.1438923E+002  0.1691363E+03  0.7546771E-02  0.1178752E+00
         21   -1    0    0  502  501  0.00000000000E+00  0.00000000000E+00  0.11400452244E+03  0.11400452244E+03  0.00000000000E+00 0. -1.
         21   -1    0    0  504  502 -0.00000000000E+00 -0.00000000000E+00 -0.79611827148E+03  0.79611827148E+03  0.00000000000E+00 0. -1.
         21    1    1    2  503  505 -0.20500283484E+02 -0.31407620076E+02 -0.43282446492E+02  0.57271898834E+02  0.00000000000E+00 0. -1.
         21    1    1    2  504  503 -0.19247236826E+02  0.16751715359E+03 -0.62960694172E+03  0.65179548475E+03  0.00000000000E+00 0. -1.
         21    1    1    2  505  506 -0.43517677130E+02 -0.97415362495E+02 -0.20186361533E+02  0.10858651051E+03  0.00000000000E+00 0.  1.
         21    1    1    2  506  501  0.83265197440E+02 -0.38694171022E+02  0.10962000709E+02  0.92468899828E+02  0.00000000000E+00 0. -1.
<scales pt_clust_3="31.30072" pt_clust_4="160.68607" pt_clust_5="31.30072" pt_clust_6="91.81684"></scales>
<clustering>
<clus scale="   31.301">  3  5 -1 -1</clus>
<clus scale="   91.817">  1  6  2 -1</clus>
<clus scale="  160.686">  2  4  1 -1</clus>
<clus scale="   91.817">  1  3  2 -1</clus>
</clustering>
</event>
<event>
 6    0  0.1438923E+002  0.1247963E+03  0.7546771E-02  0.1235388E+00
         21   -1    0    0  502  501  0.00000000000E+00  0.00000000000E+00  0.86968264048E+02  0.86968264048E+02  0.00000000000E+00 0.  1.
         21   -1    0    0  505  502 -0.00000000000E+00 -0.00000000000E+00 -0.27778456138E+03  0.27778456138E+03  0.00000000000E+00 0.  1.
         21    1    1    2  503  501 -0.48050369330E+02 -0.49652156440E+02 -0.40069213942E+02  0.79873127758E+02  0.00000000000E+00 0.  1.
         21    1    1    2  504  506  0.93397174023E+02  0.49951631281E+02 -0.83263049383E+02  0.13472539841E+03  0.00000000000E+00 0.  1.
         21    1    1    2  505  504 -0.38694787660E+01  0.53816222177E+02 -0.61343495425E+02  0.81695673485E+02  0.00000000000E+00 0.  1.
         21    1    1    2  506  503 -0.41477325927E+02 -0.54115697018E+02 -0.61405385848E+01  0.68458625782E+02  0.00000000000E+00 0.  1.
<scales pt_clust_3="32.70586" pt_clust_4="120.37495" pt_clust_5="53.95515" pt_clust_6="32.70586"></scales>
<clustering>
<clus scale="   32.706">  3  6 -1 -1</clus>
<clus scale="   53.955">  2  5  1 -1</clus>
<clus scale="  120.375">  2  4  1 -1</clus>
<clus scale="  124.796">  1  3  2 -1</clus>
</clustering>
</event>
<event>
 6    0  0.1438923E+002  0.7966628E+02  0.7546771E-02  0.1330001E+00
         21   -1    0    0  506  501  0.00000000000E+00  0.00000000000E+00  0.19010671519E+03  0.19010671519E+03  0.00000000000E+00 0. -1.
         21   -1    0    0  504  502 -0.00000000000E+00 -0.00000000000E+00 -0.44246205118E+03  0.44246205118E+03  0.00000000000E+00 0. -1.
         21    1    1    2  503  502 -0.36848397106E+02  0.11642469204E+01 -0.32587526099E+03  0.32795402966E+03  0.00000000000E+00 0. -1.
         21    1    1    2  504  501  0.10217187053E+03 -0.81282102786E+02  0.10224182494E+03  0.16582901474E+03  0.00000000000E+00 0. -1.
         21    1    1    2  505  503 -0.10538530555E+02  0.65382146019E+02 -0.44635794170E+02  0.79863882735E+02  0.00000000000E+00 0. -1.
         21    1    1    2  506  505 -0.54784942872E+02  0.14735709846E+02  0.15913894234E+02  0.58921839243E+02  0.00000000000E+00 0. -1.
<scales pt_clust_3="36.86679" pt_clust_4="79.66628" pt_clust_5="14000.00000" pt_clust_6="63.43017"></scales>
<clustering>
<clus scale="   36.867">  2  3  1 -1</clus>
<clus scale="   63.430">  1  6  2 -1</clus>
<clus scale="   79.666">  1  4  2 -1</clus>
<clus scale="   63.430">  1  3  2 -1</clus>
</clustering>
</event>
<event>
 6    0  0.1438923E+002  0.9887757E+02  0.7546771E-02  0.1282674E+00
         21   -1    0    0  504  501  0.00000000000E+00  0.00000000000E+00  0.42868839980E+03  0.42868839980E+03  0.00000000000E+00 0. -1.
         21   -1    0    0  503  502 -0.00000000000E+00 -0.00000000000E+00 -0.14469128559E+03  0.14469128559E+03  0.00000000000E+00 0.  1.
         21    1    1    2  503  506  0.45504938601E+02  0.89773241989E+02 -0.10608554237E+03  0.14623295359E+03  0.00000000000E+00 0.  1.
         21    1    1    2  504  505  0.34339247317E+02  0.58617421715E+01  0.12184944190E+03  0.12673133164E+03  0.00000000000E+00 0. -1.
         21    1    1    2  505  502 -0.21878452909E+02 -0.37293559177E+02  0.44503845756E+02  0.62048920578E+02  0.00000000000E+00 0.  1.
         21    1    1    2  506  501 -0.57965733009E+02 -0.58341424984E+02  0.22372936893E+03  0.23836647959E+03  0.00000000000E+00 0. -1.
<scales pt_clust_3="98.87757" pt_clust_4="34.83596" pt_clust_5="39.58717" pt_clust_6="14000.00000"></scales>
<clustering>
<clus scale="   34.836">  1  4  2 -1</clus>
<clus scale="   39.587">  1  5  2 -1</clus>
<clus scale="   98.878">  2  3  1 -1</clus>
<clus scale="   34.836">  1  3  2 -1</clus>
</clustering>
</event>
<event>
 6    0  0.1438923E+002  0.1338874E+03  0.7546771E-02  0.1221799E+00
         21   -1    0    0  504  501  0.00000000000E+00  0.00000000000E+00  0.59387529893E+02  0.59387529893E+02  0.00000000000E+00 0. -1.
         21   -1    0    0  505  502 -0.00000000000E+00 -0.00000000000E+00 -0.95603435393E+03  0.95603435393E+03  0.00000000000E+00 0. -1.
         21    1    1    2  503  506  0.75850746457E+02 -0.36806701781E+02 -0.43187065193E+02  0.94726931936E+02  0.00000000000E+00 0. -1.
         21    1    1    2  504  502 -0.10031828719E+03  0.10560666236E+03 -0.72217196351E+03  0.73671491824E+03  0.00000000000E+00 0. -1.
         21    1    1    2  505  503 -0.95446421965E+00 -0.35395781714E+02 -0.13710299967E+03  0.14160157091E+03  0.00000000000E+00 0. -1.
         21    1    1    2  506  501  0.25422004956E+02 -0.33404178865E+02  0.58152043454E+01  0.42378462728E+02  0.00000000000E+00 0. -1.
<scales pt_clust_3="33.21286" pt_clust_4="125.34085" pt_clust_5="35.40865" pt_clust_6="33.21286"></scales>
<clustering>
<clus scale="   33.213">  3  6 -1 -1</clus>
<clus scale="   35.409">  2  5  1 -1</clus>
<clus scale="  125.341">  2  4  1 -1</clus>
<clus scale="  133.887">  1  3  2 -1</clus>
</clustering>
</event>
<event>
 6    0  0.1438923E+002  0.1268285E+03  0.7546771E-02  0.1232239E+00
         21   -1    0    0  506  501  0.00000000000E+00  0.00000000000E+00  0.28067283836E+04  0.28067283836E+04  0.00000000000E+00 0. -1.
         21   -1    0    0  504  502 -0.00000000000E+00 -0.00000000000E+00 -0.16422850621E+03  0.16422850621E+03  0.00000000000E+00 0.  1.
         21    1    1    2  503  502  0.11460530372E+03  0.60827782283E+02 -0.12512642530E+03  0.18025264782E+03  0.00000000000E+00 0.  1.
         21    1    1    2  504  501 -0.27195983867E+02  0.82835258193E+02  0.30363840898E+03  0.31590755759E+03  0.00000000000E+00 0.  1.
         21    1    1    2  505  503 -0.53321461804E+02 -0.71769856015E+02  0.42723855735E+03  0.43649384350E+03  0.00000000000E+00 0. -1.
         21    1    1    2  506  505 -0.34087858052E+02 -0.71893184461E+02  0.20367493364E+04  0.20383028409E+04  0.00000000000E+00 0. -1.
<scales pt_clust_3="14000.00000" pt_clust_4="67.66150" pt_clust_5="126.82852" pt_clust_6="79.56514"></scales>
<clustering>
<clus scale="   79.565">  1  6  2 -1</clus>
<clus scale="   67.662">  1  4  2 -1</clus>
<clus scale="  126.829">  1  5  2 -1</clus>
<clus scale="   79.565">  1  3  2 -1</clus>
</clustering>
</event>
<event>
 6    0  0.1438923E+002  0.1130296E+03  0.7546771E-02  0.1255060E+00
         21   -1    0    0  506  501  0.00000000000E+00  0.00000000000E+00  0.25206204327E+03  0.25206204327E+03  0.00000000000E+00 0. -1.
         21   -1    0    0  505  502 -0.00000000000E+00 -0.00000000000E+00 -0.15317629638E+04  0.15317629638E+04  0.00000000000E+00 0. -1.
         21    1    1    2  503  501  0.64098097653E+01  0.36318417671E+02 -0.23536999552E+02  0.43750468240E+02  0.00000000000E+00 0.  1.
         21    1    1    2  504  502  0.43423720570E+02 -0.66246910132E+02 -0.17487630336E+03  0.19197915014E+03  0.00000000000E+00 0.  1.
         21    1    1    2  505  503  0.62464633196E+02  0.83424673498E+00 -0.12994804281E+04  0.13009811334E+04  0.00000000000E+00 0. -1.
         21    1    1    2  506  504 -0.11229816353E+03  0.29094245726E+02  0.21819281045E+03  0.24711425536E+03  0.00000000000E+00 0. -1.
<scales pt_clust_3="36.87971" pt_clust_4="113.02956" pt_clust_5="62.49169" pt_clust_6="14000.00000"></scales>
<clustering>
<clus scale="   36.880">  1  3  2 -1</clus>
<clus scale="   62.492">  2  5  1 -1</clus>
<clus scale="  113.030">  2  4  1 -1</clus>
<clus scale="   36.880">  1  3  2 -1</clus>
</clustering>
</event>
<event>
 6    0  0.1438923E+002  0.5475192E+03  0.7546771E-02  0.1002070E+00
         21   -1    0    0  505  501  0.00000000000E+00  0.00000000000E+00  0.12906170647E+04  0.12906170647E+04  0.00000000000E+00 0.  1.
         21   -1    0    0  503  502 -0.00000000000E+00 -0.00000000000E+00 -0.92625585187E+03  0.92625585187E+03  0.00000000000E+00 0. -1.
         21    1    1    2  503  506 -0.41567028904E+02 -0.50902366800E+03 -0.75124915944E+03  0.90840971595E+03  0.00000000000E+00 0. -1.
         21    1    1    2  504  501  0.62631166266E+01  0.16197600909E+03  0.41492253675E+03  0.44546174432E+03  0.00000000000E+00 0.  1.
         21    1    1    2  505  502  0.28701025108E+01 -0.58571102627E+02  0.24568618598E+03  0.25258763535E+03  0.00000000000E+00 0.  1.
         21    1    1    2  506  504  0.32433809767E+02  0.40561876153E+03  0.45500164956E+03  0.61041382097E+03  0.00000000000E+00 0.  1.
<scales pt_clust_3="515.10529" pt_clust_4="112.25140" pt_clust_5="58.64138" pt_clust_6="112.25140"></scales>
<clustering>
<clus scale="   58.641">  1  5  2 -1</clus>
<clus scale="  112.251">  4  6 -1 -1</clus>
<clus scale="  515.105">  2  3  1 -1</clus>
<clus scale="   58.641">  1  3  2 -1</clus>
</clustering>
</event>
<event>
 6    0  0.1438923E+002  0.6162517E+03  0.7546771E-02  0.9872251E-01
         21   -1    0    0  504  501  0.00000000000E+00  0.00000000000E+00  0.17739880259E+04  0.17739880259E+04  0.00000000000E+00 0.  1.
         21   -1    0    0  506  502 -0.00000000000E+00 -0.00000000000E+00 -0.40544989219E+03  0.40544989219E+03  0.00000000000E+00 0.  1.
         21    1    1    2  503  502  0.12010820453E+03  0.18395962878E+03  0.39439388418E+03  0.45145726453E+03  0.00000000000E+00 0.  1.
         21    1    1    2  504  503  0.26431251291E+03  0.30604598974E+03  0.62632460062E+03  0.74552515561E+03  0.00000000000E+00 0.  1.
         21    1    1    2  505  501 -0.34158854386E+03 -0.49396070556E+03  0.52649711876E+03  0.79867335501E+03  0.00000000000E+00 0.  1.
         21    1    1    2  506  505 -0.42832173579E+02  0.39550870459E+01 -0.17867746989E+03  0.18378214291E+03  0.00000000000E+00 0.  1.
<scales pt_clust_3="40.47853" pt_clust_4="40.47853" pt_clust_5="613.79984" pt_clust_6="43.01439"></scales>
<clustering>
<clus scale="   40.479">  3  4 -1 -1</clus>
<clus scale="   43.014">  2  6  1 -1</clus>
<clus scale="  613.800">  2  5  1 -1</clus>
<clus scale="  616.252">  1  3  2 -1</clus>
</clustering>
</event>
<event>
 6    0  0.1438923E+002  0.1071081E+03  0.7546771E-02  0.1266021E+00
         21   -1    0    0  505  501  0.00000000000E+00  0.00000000000E+00  0.64008710326E+03  0.64008710326E+03  0.00000000000E+00 0. -1.
         21   -1    0    0  503  502 -0.00000000000E+00 -0.00000000000E+00 -0.78478398681E+03  0.78478398681E+03  0.00000000000E+00 0.  1.
         21    1    1    2  503  504  0.79607859713E+02 -0.70749483844E+02 -0.74821006011E+03  0.75575207234E+03  0.00000000000E+00 0.  1.
         21    1    1    2  504  501 -0.63876360026E+02  0.13820391003E+03  0.17580264508E+03  0.23256629192E+03  0.00000000000E+00 0. -1.
         21    1    1    2  505  506 -0.23470754578E+02 -0.24626887560E+02  0.29342965972E+03  0.29539520158E+03  0.00000000000E+00 0.  1.
         21    1    1    2  506  502  0.77392548909E+01 -0.42827538629E+02  0.13428087176E+03  0.14115752425E+03  0.00000000000E+00 0. -1.
<scales pt_clust_3="14000.00000" pt_clust_4="107.10808" pt_clust_5="34.01999" pt_clust_6="52.66373"></scales>
<clustering>
<clus scale="   34.020">  1  5  2 -1</clus>
<clus scale="   52.664">  1  6  2 -1</clus>
<clus scale="  107.108">  1  4  2 -1</clus>
<clus scale="   34.020">  1  3  2 -1</clus>
</clustering>
</event>
<event>
 6    0  0.1438923E+002  0.1887056E+03  0.7546771E-02  0.1159634E+00
         21   -1    0    0  506  501  0.00000000000E+00  0.00000000000E+00  0.53629757779E+02  0.53629757779E+02  0.00000000000E+00 0. -1.
         21   -1    0    0  503  502 -0.00000000000E+00 -0.00000000000E+00 -0.13821678137E+04  0.13821678137E+04  0.00000000000E+00 0. -1.
         21    1    1    2  503  501 -0.15644783615E+03 -0.10480172609E+03 -0.39076087837E+03  0.43376651703E+03  0.00000000000E+00 0. -1.
         21    1    1    2  504  505  0.13425879741E+03  0.37870369445E+02 -0.23687384254E+03  0.27489781164E+03  0.00000000000E+00 0. -1.
         21    1    1    2  505  502 -0.15171246879E+02  0.88315748084E+02 -0.66519399834E+03  0.67120257264E+03  0.00000000000E+00 0. -1.
         21    1    1    2  506  504  0.37360285621E+02 -0.21384391439E+02 -0.35709336621E+02  0.55930670126E+02  0.00000000000E+00 0. -1.
<scales pt_clust_3="173.74925" pt_clust_4="40.90062" pt_clust_5="89.60936" pt_clust_6="40.90062"></scales>
<clustering>
<clus scale="   40.901">  4  6 -1 -1</clus>
<clus scale="   89.609">  2  5  1 -1</clus>
<clus scale="  173.749">  2  3  1 -1</clus>
<clus scale="  188.706">  1  3  2 -1</clus>
</clustering>
</event>
<event>
 6    0  0.1438923E+002  0.7121849E+02  0.7546771E-02  0.1355998E+00
         21   -1    0    0  506  501  0.00000000000E+00  0.00000000000E+00  0.37110070569E+02  0.37110070569E+02  0.00000000000E+00 0.  1.
         21   -1    0    0  504  502 -0.00000000000E+00 -0.00000000000E+00 -0.94050982147E+03  0.94050982147E+03  0.00000000000E+00 0.  1.
         21    1    1    2  503  502 -0.53953316413E+02  0.22980565723E+02 -0.14893705735E+03  0.16006659178E+03  0.00000000000E+00 0.  1.
         21    1    1    2  504  501  0.30194094948E+02 -0.36771531942E+02 -0.53689577666E+03  0.53899991088E+03  0.00000000000E+00 0.  1.
         21    1    1    2  505  503  0.72593580274E+02 -0.35597046927E+02 -0.18489097261E+03  0.20179605893E+03  0.00000000000E+00 0.  1.
         21    1    1    2  506  505 -0.48834358809E+02  0.49388013146E+02 -0.32675944281E+02  0.76757330448E+02  0.00000000000E+00 0.  1.
<scales pt_clust_3="43.28308" pt_clust_4="47.57971" pt_clust_5="71.21849" pt_clust_6="14000.00000"></scales>
<clustering>
<clus scale="   47.580">  2  4  1 -1</clus>
<clus scale="   43.283">  2  3  1 -1</clus>
<clus scale="   71.218">  2  5  1 -1</clus>
<clus scale="   71.218">  1  3  2 -1</clus>
</clustering>
</event>
<event>
 6    0  0.1438923E+002  0.1375117E+03  0.7546771E-02  0.1216717E+00
         21   -1    0    0  503  501  0.00000000000E+00  0.00000000000E+00  0.63877011961E+02  0.63877011961E+02  0.00000000000E+00 0. -1.
         21   -1    0    0  506  502 -0.00000000000E+00 -0.00000000000E+00 -0.86840084245E+03  0.86840084245E+03  0.00000000000E+00 0.  1.
         21    1    1    2  503  505 -0.54753780350E+02  0.21462653735E+02 -0.25844472733E+02  0.64238296512E+02  0.00000000000E+00 0. -1.
         21    1    1    2  504  502  0.79204743765E+02 -0.10632255461E+03 -0.61827799186E+03  0.63233341859E+03  0.00000000000E+00 0.  1.
         21    1    1    2  505  504 -0.83708138510E+02  0.27031778379E+02 -0.10021368360E+03  0.13334373579E+03  0.00000000000E+00 0. -1.
         21    1    1    2  506  501  0.59257175095E+02  0.57828122498E+02 -0.60187682298E+02  0.10236240351E+03  0.00000000000E+00 0.  1.
<scales pt_clust_3="32.95668" pt_clust_4="131.47194" pt_clust_5="32.95668" pt_clust_6="82.79797"></scales>
<clustering>
<clus scale="   32.957">  3  5 -1 -1</clus>
<clus scale="   82.798">  1  6  2 -1</clus>
<clus scale="  131.472">  2  4  1 -1</clus>
<clus scale="   82.798">  1  3  2 -1</clus>
</clustering>
</event>
<event>
 6    0  0.1438923E+002  0.1020710E+03  0.7546771E-02  0.1276000E+00
         21   -1    0    0  503  501  0.00000000000E+00  0.00000000000E+00  0.10684959464E+03  0.10684959464E+03  0.00000000000E+00 0.  1.
         21   -1    0    0  506  502 -0.00000000000E+00 -0.00000000000E+00 -0.64612679021E+03  0.64612679021E+03  0.00000000000E+00 0.  1.
         21    1    1    2  503  502  0.12704239381E+03 -0.56418899456E+02 -0.47401246871E+03  0.49397437437E+03  0.00000000000E+00 0.  1.
         21    1    1    2  504  501 -0.23608689908E+02  0.34570689623E+02  0.66105792816E+02  0.78246269330E+02  0.00000000000E+00 0.  1.
         21    1    1    2  505  504 -0.72976412025E+02  0.13106449189E+02 -0.40425339496E+02  0.84448468285E+02  0.00000000000E+00 0.  1.
         21    1    1    2  506  505 -0.30457291878E+02  0.87417606431E+01 -0.90945180185E+02  0.96307272865E+02  0.00000000000E+00 0.  1.
<scales pt_clust_3="14000.00000" pt_clust_4="42.13152" pt_clust_5="102.07101" pt_clust_6="31.68698"></scales>
<clustering>
<clus scale="   31.687">  2  6  1 -1</clus>
<clus scale="   42.132">  1  4  2 -1</clus>
<clus scale="  102.071">  1  5  2 -1</clus>
<clus scale="   42.132">  1  3  2 -1</clus>
</clustering>
</event>
<event>
 6    0  0.1438923E+002  0.1828711E+03  0.7546771E-02  0.1165053E+00
         21   -1    0    0  506  501  0.00000000000E+00  0.00000000000E+00  0.33965075003E+03  0.33965075003E+03  0.00000000000E+00 0.  1.
         21   -1    0    0  505  502 -0.00000000000E+00 -0.00000000000E+00 -0.11467371977E+04  0.11467371977E+04  0.00000000000E+00 0.  1.
         21    1    1    2  503  504 -0.15095246977E+03  0.39987606467E+02 -0.12299390083E+03  0.19877916501E+03  0.00000000000E+00 0.  1.
         21    1    1    2  504  502 -0.29490282837E+02 -0.21724469438E+02 -0.90779664833E+03  0.90853529600E+03  0.00000000000E+00 0.  1.
         21    1    1    2  505  501  0.22112828791E+03 -0.47260941746E+02  0.10307485447E+03  0.24850702596E+03  0.00000000000E+00 0.  1.
         21    1    1    2  506  503 -0.40685535299E+02  0.28997804717E+02  0.12062924698E+03  0.13056646081E+03  0.00000000000E+00 0.  1.
<scales pt_clust_3="14000.00000" pt_clust_4="36.62826" pt_clust_5="182.87111" pt_clust_6="50.20462"></scales>
<clustering>
<clus scale="   36.628">  2  4  1 -1</clus>
<clus scale="   50.205">  1  6  2 -1</clus>
<clus scale="  182.871">  1  5  2 -1</clus>
<clus scale="   50.205">  1  3  2 -1</clus>
</clustering>
</event>
<event>
 6    0  0.1438923E+002  0.1108157E+03  0.7546771E-02  0.1259067E+00
         21   -1    0    0  504  501  0.00000000000E+00  0.00000000000E+00  0.19145093115E+03  0.19145093115E+03  0.00000000000E+00 0.  1.
         21   -1    0    0  505  502 -0.00000000000E+00 -0.00000000000E+00 -0.75599745712E+03  0.75599745712E+03  0.00000000000E+00 0. -1.
         21    1    1    2  503  506 -0.42759211799E+02  0.21643738816E+02 -0.14164725292E+02  0.49974404110E+02  0.00000000000E+00 0.  1.
         21    1    1    2  504  503  0.76703412393E+01 -0.39215050746E+02 -0.22329760112E+02  0.45774146922E+02  0.00000000000E+00 0.  1.
         21    1    1    2  505  501 -0.55044351433E+02 -0.48766717816E+02  0.14862874518E+03  0.16582694982E+03  0.00000000000E+00 0.  1.
         21    1    1    2  506  502  0.90133221993E+02  0.66338029747E+02 -0.67668078575E+03  0.68587288742E+03  0.00000000000E+00 0. -1.
<scales pt_clust_3="45.58718" pt_clust_4="39.95816" pt_clust_5="110.81567" pt_clust_6="14000.00000"></scales>
<clustering>
<clus scale="   39.958">  1  4  2 -1</clus>
<clus scale="   45.587">  1  3  2 -1</clus>
<clus scale="  110.816">  1  5  2 -1</clus>
<clus scale="   39.958">  1  3  2 -1</clus>
</clustering>
</event>
<event>
 6    0  0.1763795E+002  0.9526207E+02  0.7546771E-02  0.1290587E+00
         21   -1    0    0  506  501  0.00000000000E+00  0.00000000000E+00  0.53349582623E+03  0.53349582623E+03  0.00000000000E+00 0.  1.
         21   -1    0    0  504  502 -0.00000000000E+00 -0.00000000000E+00 -0.11146161212E+04  0.11146161212E+04  0.00000000000E+00 0.  1.
         21    1    1    2  503  501 -0.57409909931E+02 -0.57757298052E+02 -0.10957980088E+02  0.82169827577E+02  0.00000000000E+00 0.  1.
         21    1    1    2  504  503 -0.54486085093E+02  0.32245780015E+02 -0.10576995027E+04  0.10595927339E+04  0.00000000000E+00 0.  1.
         21    1    1    2  505  502  0.70562153119E+02  0.27653965874E+02  0.17002842467E+03  0.18615430287E+03  0.00000000000E+00 0. -1.
         21    1    1    2  506  505  0.41333841904E+02 -0.21424478374E+01  0.31750876311E+03  0.32019508307E+03  0.00000000000E+00 0.  1.
<scales pt_clust_3="14000.00000" pt_clust_4="63.15127" pt_clust_5="95.26207" pt_clust_6="41.38933"></scales>
<clustering>
<clus scale="   41.389">  1  6  2 -1</clus>
<clus scale="   63.151">  2  4  1 -1</clus>
<clus scale="   95.262">  1  5  2 -1</clus>
<clus scale="   41.389">  1  3  2 -1</clus>
</clustering>
</event>
<event>
 6    0  0.1438923E+002  0.1290470E+03  0.7546771E-02  0.1228877E+00
         21   -1    0    0  503  501  0.00000000000E+00  0.00000000000E+00  0.29718601822E+03  0.29718601822E+03  0.00000000000E+00 0.  1.
         21   -1    0    0  506  502 -0.00000000000E+00 -0.00000000000E+00 -0.11174374099E+04  0.11174374099E+04  0.00000000000E+00 0. -1.
         21    1    1    2  503  505  0.61663233985E+02 -0.18045751743E+02  0.27252169963E+02  0.69790288359E+02  0.00000000000E+00 0.  1.
         21    1    1    2  504  501 -0.12365398777E+03 -0.11184477299E+02  0.14196128732E+03  0.18859588628E+03  0.00000000000E+00 0.  1.
         21    1    1    2  505  502  0.62258093215E+02 -0.11847963659E+02  0.70889089689E+02  0.95087893291E+02  0.00000000000E+00 0.  1.
         21    1    1    2  506  504 -0.26733942889E+00  0.41078192702E+02 -0.10603539387E+04  0.10611493602E+04  0.00000000000E+00 0. -1.
<scales pt_clust_3="35.85040" pt_clust_4="123.89573" pt_clust_5="35.85040" pt_clust_6="41.07906"></scales>
<clustering>
<clus scale="   35.850">  3  5 -1 -1</clus>
<clus scale="   41.079">  2  6  1 -1</clus>
<clus scale="  123.896">  1  4  2 -1</clus>
<clus scale="  123.896">  1  3  2 -1</clus>
</clustering>
</event>
<event>
 6    0  0.1438923E+002  0.1160082E+03  0.7546771E-02  0.1249831E+00
         21   -1    0    0  505  501  0.00000000000E+00  0.00000000000E+00  0.12664608445E+03  0.12664608445E+03  0.00000000000E+00 0.  1.
         21   -1    0    0  504  502 -0.00000000000E+00 -0.00000000000E+00 -0.16017819321E+03  0.16017819321E+03  0.00000000000E+00 0.  1.
         21    1    1    2  503  502 -0.16361743448E+02  0.82501666096E+02 -0.60083998592E+02  0.10336497687E+03  0.00000000000E+00 0.  1.
         21    1    1    2  504  501  0.48987447853E+02 -0.84743600537E+02  0.16710494204E+02  0.99299992425E+02  0.00000000000E+00 0.  1.
         21    1    1    2  505  506 -0.41434831115E+02 -0.29351153247E+02  0.54717361258E+01  0.51071276885E+02  0.00000000000E+00 0.  1.
         21    1    1    2  506  503  0.88091267106E+01  0.31593087688E+02  0.43696595012E+01  0.33088031480E+02  0.00000000000E+00 0.  1.
<scales pt_clust_3="30.85041" pt_clust_4="104.96295" pt_clust_5="50.77731" pt_clust_6="30.85041"></scales>
<clustering>
<clus scale="   30.850">  3  6 -1 -1</clus>
<clus scale="   50.777">  1  5  2 -1</clus>
<clus scale="  104.963">  1  4  2 -1</clus>
<clus scale="   50.777">  1  3  2 -1</clus>
</clustering>
</event>
<event>
 6    0  0.1438923E+002  0.3097285E+03  0.7546771E-02  0.1080476E+00
         21   -1    0    0  502  501  0.00000000000E+00  0.00000000000E+00  0.55542864271E+03  0.55542864271E+03  0.00000000000E+00 0.  1.
         21   -1    0    0  503  502 -0.00000000000E+00 -0.00000000000E+00 -0.92832237503E+03  0.92832237503E+03  0.00000000000E+00 0.  1.
         21    1    1    2  503  506 -0.44669749245E+02 -0.65659296297E+02 -0.72647243859E+03  0.73080006412E+03  0.00000000000E+00 0.  1.
         21    1    1    2  504  501  0.31636620692E+03 -0.21913164019E+02  0.33625815569E+03  0.46220916359E+03  0.00000000000E+00 0.  1.
         21    1    1    2  505  504 -0.13926287854E+03  0.24974063229E+02 -0.95839930590E+01  0.14180869541E+03  0.00000000000E+00 0. -1.
         21    1    1    2  506  505 -0.13243357914E+03  0.62598397087E+02  0.26904543644E+02  0.14893309461E+03  0.00000000000E+00 0. -1.
<scales pt_clust_3="79.41366" pt_clust_4="305.26847" pt_clust_5="51.47128" pt_clust_6="51.47128"></scales>
<clustering>
<clus scale="   51.471">  5  6 -1 -1</clus>
<clus scale="   79.414">  2  3  1 -1</clus>
<clus scale="  305.268">  1  4  2 -1</clus>
<clus scale="  305.268">  1  3  2 -1</clus>
</clustering>
</event>
<event>
 6    0  0.1438923E+002  0.1446957E+03  0.7546771E-02  0.1207147E+00
         21   -1    0    0  505  501  0.00000000000E+00  0.00000000000E+00  0.35300333377E+03  0.35300333377E+03  0.00000000000E+00 0. -1.
         21   -1    0    0  503  502 -0.00000000000E+00 -0.00000000000E+00 -0.67997039544E+03  0.67997039544E+03  0.00000000000E+00 0. -1.
         21    1    1    2  503  504  0.61165229553E+02 -0.58143121668E+02 -0.55772843411E+03  0.56407695762E+03  0.00000000000E+00 0. -1.
         21    1    1    2  504  501 -0.98397624942E+02 -0.88144378883E+02 -0.27141118872E+01  0.13213209499E+03  0.00000000000E+00 0. -1.
         21    1    1    2  505  506  0.31114652737E+02 -0.41041437987E+02  0.27905951690E+02  0.58576986836E+02  0.00000000000E+00 0. -1.
         21    1    1    2  506  502  0.61177426523E+01  0.18732893854E+03  0.20556953264E+03  0.27818768977E+03  0.00000000000E+00 0. -1.
<scales pt_clust_3="84.91170" pt_clust_4="144.69570" pt_clust_5="51.50263" pt_clust_6="14000.00000"></scales>
<clustering>
<clus scale="   51.503">  1  5  2 -1</clus>
<clus scale="   84.912">  2  3  1 -1</clus>
<clus scale="  144.696">  2  4  1 -1</clus>
<clus scale="   51.503">  1  3  2 -1</clus>
</clustering>
</event>
<event>
 6    0  0.1438923E+002  0.1062304E+03  0.7546771E-02  0.1267714E+00
         21   -1    0    0  505  501  0.00000000000E+00  0.00000000000E+00  0.12555055093E+04  0.12555055093E+04  0.00000000000E+00 0. -1.
         21   -1    0    0  503  502 -0.00000000000E+00 -0.00000000000E+00 -0.40851516574E+02  0.40851516574E+02  0.00000000000E+00 0. -1.
         21    1    1    2  503  504 -0.10923018253E+03  0.24717293410E+01  0.64842519863E+02  0.12705075601E+03  0.00000000000E+00 0. -1.
         21    1    1    2  504  501 -0.26570481325E+01 -0.55699135924E+02  0.14901844695E+03  0.15910987141E+03  0.00000000000E+00 0. -1.
         21    1    1    2  505  506  0.31301734214E+02 -0.12017168222E+02  0.21706096214E+03  0.21963531633E+03  0.00000000000E+00 0. -1.
         21    1    1    2  506  502  0.80585496445E+02  0.65244574805E+02  0.78373206377E+03  0.79056108212E+03  0.00000000000E+00 0. -1.
<scales pt_clust_3="14000.00000" pt_clust_4="57.51875" pt_clust_5="33.52925" pt_clust_6="106.23039"></scales>
<clustering>
<clus scale="   33.529">  1  5  2 -1</clus>
<clus scale="   57.519">  1  4  2 -1</clus>
<clus scale="  106.230">  1  6  2 -1</clus>
<clus scale="   33.529">  1  3  2 -1</clus>
</clustering>
</event>
<event>
 6    0  0.1438923E+002  0.1049316E+03  0.7546771E-02  0.1270254E+00
         21   -1    0    0  502  501  0.00000000000E+00  0.00000000000E+00  0.10301592817E+04  0.10301592817E+04  0.00000000000E+00 0. -1.
         21   -1    0    0  503  502 -0.00000000000E+00 -0.00000000000E+00 -0.22557954234E+03  0.22557954234E+03  0.00000000000E+00 0. -1.
         21    1    1    2  503  504 -0.62513076320E+02  0.66177927079E+02 -0.20771359231E+03  0.22678699075E+03  0.00000000000E+00 0. -1.
         21    1    1    2  504  505  0.30566201168E+02 -0.40774160347E+02  0.17137202325E+03  0.17878812924E+03  0.00000000000E+00 0.  1.
         21    1    1    2  505  506  0.74361240240E+02 -0.16561703302E+02  0.40568394137E+03  0.41277517409E+03  0.00000000000E+00 0. -1.
         21    1    1    2  506  501 -0.42414365088E+02 -0.88420634305E+01  0.43523736707E+03  0.43738852996E+03  0.00000000000E+00 0. -1.
<scales pt_clust_3="91.40160" pt_clust_4="42.15282" pt_clust_5="42.15282" pt_clust_6="43.32621"></scales>
<clustering>
<clus scale="   42.153">  4  5 -1 -1</clus>
<clus scale="   43.326">  1  6  2 -1</clus>
<clus scale="   91.402">  2  3  1 -1</clus>
<clus scale="   43.326">  1  3  2 -1</clus>
</clustering>
</event>
<event>
 6    0  0.1438923E+002  0.8147780E+02  0.7546771E-02  0.1324909E+00
         21   -1    0    0  502  501  0.00000000000E+00  0.00000000000E+00  0.38571068673E+03  0.38571068673E+03  0.00000000000E+00 0. -1.
         21   -1    0    0  503  502 -0.00000000000E+00 -0.00000000000E+00 -0.15508896470E+03  0.15508896470E+03  0.00000000000E+00 0.  1.
         21    1    1    2  503  506 -0.56270943483E+02  0.32854629429E+02 -0.12014678685E+03  0.13667880650E+03  0.00000000000E+00 0.  1.
         21    1    1    2  504  505  0.47056920485E+02 -0.69761552124E+01  0.66312362821E+02  0.81610967216E+02  0.00000000000E+00 0. -1.
         21    1    1    2  505  501 -0.47570557657E+02  0.40665060004E+02  0.14440636423E+03  0.15738425300E+03  0.00000000000E+00 0. -1.
         21    1    1    2  506  504  0.56784580655E+02 -0.66543534220E+02  0.14004978183E+03  0.16512562471E+03  0.00000000000E+00 0. -1.
<scales pt_clust_3="67.32921" pt_clust_4="33.83678" pt_clust_5="62.58279" pt_clust_6="33.83678"></scales>
<clustering>
<clus scale="   33.837">  4  6 -1 -1</clus>
<clus scale="   62.583">  1  5  2 -1</clus>
<clus scale="   67.329">  2  3  1 -1</clus>
<clus scale="   62.583">  1  3  2 -1</clus>
</clustering>
</event>
<event>
 6    0  0.1438923E+002  0.1496360E+03  0.7546771E-02  0.1200921E+00
         21   -1    0    0  505  501  0.00000000000E+00  0.00000000000E+00  0.10563636567E+03  0.10563636567E+03  0.00000000000E+00 0.  1.
         21   -1    0    0  504  502 -0.00000000000E+00 -0.00000000000E+00 -0.17036957038E+04  0.17036957038E+04  0.00000000000E+00 0.  1.
         21    1    1    2  503  501  0.49502672913E+02  0.35379976769E+02  0.28859010928E+02  0.67343150309E+02  0.00000000000E+00 0.  1.
         21    1    1    2  504  506 -0.69288588861E+02 -0.10137182969E+03 -0.15572968948E+04  0.15621302043E+04  0.00000000000E+00 0.  1.
         21    1    1    2  505  502  0.21750150579E+02 -0.21741123980E+02 -0.85335663808E+02  0.90707888519E+02  0.00000000000E+00 0.  1.
         21    1    1    2  506  503 -0.19642346310E+01  0.87732976906E+02  0.15714209611E+02  0.89150826346E+02  0.00000000000E+00 0.  1.
<scales pt_clust_3="59.59029" pt_clust_4="131.54485" pt_clust_5="30.75298" pt_clust_6="59.59029"></scales>
<clustering>
<clus scale="   30.753">  2  5  1 -1</clus>
<clus scale="   59.590">  3  6 -1 -1</clus>
<clus scale="  131.545">  2  4  1 -1</clus>
<clus scale="  149.636">  1  3  2 -1</clus>
</clustering>
</event>
<event>
 6    0  0.1438923E+002  0.1225494E+03  0.7546771E-02  0.1238950E+00
         21   -1    0    0  504  501  0.00000000000E+00  0.00000000000E+00  0.95532280391E+02  0.95532280391E+02  0.00000000000E+00 0. -1.
         21   -1    0    0  506  502 -0.00000000000E+00 -0.00000000000E+00 -0.37383176022E+03  0.37383176022E+03  0.00000000000E+00 0.  1.
         21    1    1    2  503  502 -0.30477505953E+02 -0.46732643731E+02 -0.21777652888E+03  0.22480977490E+03  0.00000000000E+00 0.  1.
         21    1    1    2  504  503 -0.28548920643E+02 -0.78888203642E+02 -0.28006016098E+02  0.88446178444E+02  0.00000000000E+00 0. -1.
         21    1    1    2  505  501  0.17953506209E+01  0.62770412941E+02  0.54072568633E+01  0.63028457473E+02  0.00000000000E+00 0. -1.
         21    1    1    2  506  505  0.57231075975E+02  0.62850434432E+02 -0.37924191715E+02  0.93079629795E+02  0.00000000000E+00 0. -1.
<scales pt_clust_3="55.79264" pt_clust_4="104.74109" pt_clust_5="54.68278" pt_clust_6="54.68278"></scales>
<clustering>
<clus scale="   54.683">  5  6 -1 -1</clus>
<clus scale="   55.793">  2  3  1 -1</clus>
<clus scale="  104.741">  1  4  2 -1</clus>
<clus scale="  104.741">  1  3  2 -1</clus>
</clustering>
</event>
<event>
 6    0  0.1438923E+002  0.1533911E+03  0.7546771E-02  0.1196367E+00
         21   -1    0    0  506  501  0.00000000000E+00  0.00000000000E+00  0.66412071362E+03  0.66412071362E+03  0.00000000000E+00 0.  1.
         21   -1    0    0  503  502 -0.00000000000E+00 -0.00000000000E+00 -0.12492715433E+03  0.12492715433E+03  0.00000000000E+00 0.  1.
         21    1    1    2  503  501  0.12844491216E+03 -0.11928795716E+03 -0.33962288036E+02  0.17855293106E+03  0.00000000000E+00 0.  1.
         21    1    1    2  504  505 -0.14361368020E+02  0.39274541720E+02  0.15839033031E+03  0.16381768907E+03  0.00000000000E+00 0.  1.
         21    1    1    2  505  502 -0.81830732213E+02  0.58992669111E+02  0.16089440023E+03  0.18990369077E+03  0.00000000000E+00 0.  1.
         21    1    1    2  506  504 -0.32252811923E+02  0.21020746330E+02  0.25387111679E+03  0.25677355704E+03  0.00000000000E+00 0.  1.
<scales pt_clust_3="153.39113" pt_clust_4="83.29163" pt_clust_5="14000.00000" pt_clust_6="32.24066"></scales>
<clustering>
<clus scale="   32.241">  4  6 -1 -1</clus>
<clus scale="   83.292">  1  4  2 -1</clus>
<clus scale="  153.391">  2  3  1 -1</clus>
<clus scale="   83.292">  1  3  2 -1</clus>
</clustering>
</event>
<event>
 6    0  0.1438923E+002  0.1856249E+03  0.7546771E-02  0.1162468E+00
         21   -1    0    0  502  501  0.00000000000E+00  0.00000000000E+00  0.11965004745E+04  0.11965004745E+04  0.00000000000E+00 0.  1.
         21   -1    0    0  505  502 -0.00000000000E+00 -0.00000000000E+00 -0.15188110918E+03  0.15188110918E+03  0.00000000000E+00 0. -1.
         21    1    1    2  503  504  0.10057522922E+03 -0.52616462346E+02  0.54177238997E+03  0.55353517628E+03  0.00000000000E+00 0.  1.
         21    1    1    2  504  501  0.61555564512E+02 -0.40421663567E+02  0.54145704020E+03  0.54644187686E+03  0.00000000000E+00 0.  1.
         21    1    1    2  505  506 -0.31372647809E+02  0.29592217390E+02 -0.85440676183E+02  0.95708157997E+02  0.00000000000E+00 0. -1.
         21    1    1    2  506  503 -0.13075814592E+03  0.63445908523E+02  0.46830611359E+02  0.15269637256E+03  0.00000000000E+00 0. -1.
<scales pt_clust_3="32.42979" pt_clust_4="32.42979" pt_clust_5="43.12705" pt_clust_6="181.20586"></scales>
<clustering>
<clus scale="   32.430">  3  4 -1 -1</clus>
<clus scale="   43.127">  2  5  1 -1</clus>
<clus scale="  181.206">  2  6  1 -1</clus>
<clus scale="  185.625">  1  3  2 -1</clus>
</clustering>
</event>
<event>
 6    0  0.1438923E+002  0.9991808E+02  0.7546771E-02  0.1280468E+00
         21   -1    0    0  505  501  0.00000000000E+00  0.00000000000E+00  0.32995257213E+03  0.32995257213E+03  0.00000000000E+00 0. -1.
         21   -1    0    0  504  502 -0.00000000000E+00 -0.00000000000E+00 -0.22493506945E+03  0.22493506945E+03  0.00000000000E+00 0. -1.
         21    1    1    2  503  502 -0.56887634737E+02 -0.53177070785E+02  0.89340656099E+02  0.11851479517E+03  0.00000000000E+00 0. -1.
         21    1    1    2  504  506  0.65703856234E+02  0.40781711832E+02 -0.14863573699E+03  0.16754917802E+03  0.00000000000E+00 0. -1.
         21    1    1    2  505  503 -0.88886102334E+02  0.63921389306E+02  0.50889765831E+02  0.12073297588E+03  0.00000000000E+00 0. -1.
         21    1    1    2  506  501  0.80069880837E+02 -0.51526030354E+02  0.11342281774E+03  0.14809069250E+03  0.00000000000E+00 0. -1.
<scales pt_clust_3="61.40766" pt_clust_4="77.33140" pt_clust_5="14000.00000" pt_clust_6="99.91808"></scales>
<clustering>
<clus scale="   77.331">  2  4  1 -1</clus>
<clus scale="   61.408">  2  3  1 -1</clus>
<clus scale="   99.918">  1  6  2 -1</clus>
<clus scale="   99.918">  1  3  2 -1</clus>
</clustering>
</event>
<event>
 6    0  0.1438923E+002  0.1782339E+03  0.7546771E-02  0.1169523E+00
         21   -1    0    0  505  501  0.00000000000E+00  0.00000000000E+00  0.13106709820E+04  0.13106709820E+04  0.00000000000E+00 0.  1.
         21   -1    0    0  503  502 -0.00000000000E+00 -0.00000000000E+00 -0.19500936863E+03  0.19500936863E+03  0.00000000000E+00 0.  1.
         21    1    1    2  503  506  0.91664541718E+02 -0.36815669388E+02  0.11835776734E+02  0.99488026072E+02  0.00000000000E+00 0.  1.
         21    1    1    2  504  502  0.31860877343E+02 -0.37168784447E+01 -0.13017495745E+03  0.13406882649E+03  0.00000000000E+00 0.  1.
         21    1    1    2  505  504 -0.15816278629E+03  0.75047275459E+02  0.11996728507E+04  0.12123788638E+04  0.00000000000E+00 0.  1.
         21    1    1    2  506  501  0.34637367233E+02 -0.34514727626E+02  0.34327943320E+02  0.59744634274E+02  0.00000000000E+00 0.  1.
<scales pt_clust_3="31.32343" pt_clust_4="32.07695" pt_clust_5="171.99873" pt_clust_6="31.32343"></scales>
<clustering>
<clus scale="   32.077">  2  4  1 -1</clus>
<clus scale="   31.323">  3  6 -1 -1</clus>
<clus scale="  171.999">  1  5  2 -1</clus>
<clus scale="  171.999">  1  3  2 -1</clus>
</clustering>
</event>
<event>
 6    0  0.1438923E+002  0.1121985E+03  0.7546771E-02  0.1256552E+00
         21   -1    0    0  506  501  0.00000000000E+00  0.00000000000E+00  0.22560780241E+04  0.22560780241E+04  0.00000000000E+00 0.  1.
         21   -1    0    0  503  502 -0.00000000000E+00 -0.00000000000E+00 -0.20512615687E+03  0.20512615687E+03  0.00000000000E+00 0.  1.
         21    1    1    2  503  505 -0.87050523415E+02  0.70701918528E+02 -0.18046764270E+03  0.21247382185E+03  0.00000000000E+00 0.  1.
         21    1    1    2  504  502  0.89448806864E+02 -0.77451065844E+02  0.18210751815E+04  0.18249149496E+04  0.00000000000E+00 0.  1.
         21    1    1    2  505  501  0.10648948189E+02  0.51844654747E+02  0.14516136495E+03  0.15450919131E+03  0.00000000000E+00 0. -1.
         21    1    1    2  506  504 -0.13047231638E+02 -0.45095507431E+02  0.26518296341E+03  0.26930621813E+03  0.00000000000E+00 0.  1.
<scales pt_clust_3="14000.00000" pt_clust_4="112.19847" pt_clust_5="49.40209" pt_clust_6="46.94502"></scales>
<clustering>
<clus scale="   46.945">  1  6  2 -1</clus>
<clus scale="   49.402">  1  5  2 -1</clus>
<clus scale="  112.198">  1  4  2 -1</clus>
<clus scale="   46.945">  1  3  2 -1</clus>
</clustering>
</event>
<event>
 6    0  0.1438923E+002  0.8947445E+02  0.7546771E-02  0.1304129E+00
         21   -1    0    0  505  501  0.00000000000E+00  0.00000000000E+00  0.29974367943E+03  0.29974367943E+03  0.00000000000E+00 0. -1.
         21   -1    0    0  504  502 -0.00000000000E+00 -0.00000000000E+00 -0.11182745184E+03  0.11182745184E+03  0.00000000000E+00 0. -1.
         21    1    1    2  503  502  0.67655802874E+02 -0.23901400262E+02 -0.60402921706E+02  0.93792843798E+02  0.00000000000E+00 0. -1.
         21    1    1    2  504  506 -0.89114576022E+02 -0.10391062663E+02  0.12175026146E+03  0.15123659613E+03  0.00000000000E+00 0. -1.
         21    1    1    2  505  503  0.55675211268E+02  0.11692794427E+02  0.36539687069E+02  0.67613603086E+02  0.00000000000E+00 0. -1.
         21    1    1    2  506  501 -0.34216438120E+02  0.22599668498E+02  0.90029200773E+02  0.98928088254E+02  0.00000000000E+00 0. -1.
<scales pt_clust_3="75.05623" pt_clust_4="32.92786" pt_clust_5="56.88981" pt_clust_6="32.92786"></scales>
<clustering>
<clus scale="   32.928">  4  6 -1 -1</clus>
<clus scale="   56.890">  1  5  2 -1</clus>
<clus scale="   75.056">  2  3  1 -1</clus>
<clus scale="   56.890">  1  3  2 -1</clus>
</clustering>
</event>
<event>
 6    0  0.1438923E+002  0.1714928E+03  0.7546771E-02  0.1176300E+00
         21   -1    0    0  503  501  0.00000000000E+00  0.00000000000E+00  0.11598539273E+04  0.11598539273E+04  0.00000000000E+00 0. -1.
         21   -1    0    0  506  502 -0.00000000000E+00 -0.00000000000E+00 -0.81541391854E+02  0.81541391854E+02  0.00000000000E+00 0.  1.
         21    1    1    2  503  505  0.40088919265E+02  0.44557509283E+02  0.47855746376E+03  0.48229631888E+03  0.00000000000E+00 0. -1.
         21    1    1    2  504  502 -0.11024526305E+03 -0.13222398776E+03  0.38127519064E+02  0.17632614291E+03  0.00000000000E+00 0.  1.
         21    1    1    2  505  504 -0.47118395939E+01  0.58644872590E+02  0.37525093758E+03  0.37983508088E+03  0.00000000000E+00 0. -1.
         21    1    1    2  506  501  0.74868183379E+02  0.29021605884E+02  0.18637661503E+03  0.20293777647E+03  0.00000000000E+00 0.  1.
<scales pt_clust_3="48.32892" pt_clust_4="164.40885" pt_clust_5="48.32892" pt_clust_6="80.29632"></scales>
<clustering>
<clus scale="   48.329">  3  5 -1 -1</clus>
<clus scale="   80.296">  1  6  2 -1</clus>
<clus scale="  164.409">  2  4  1 -1</clus>
<clus scale="   80.296">  1  3  2 -1</clus>
</clustering>
</event>
<event>
 6    0  0.1438923E+002  0.1375823E+03  0.7546771E-02  0.1216620E+00
         21   -1    0    0  504  501  0.00000000000E+00  0.00000000000E+00  0.10072457930E+04  0.10072457930E+04  0.00000000000E+00 0. -1.
         21   -1    0    0  503  502 -0.00000000000E+00 -0.00000000000E+00 -0.55183473475E+02  0.55183473475E+02  0.00000000000E+00 0.  1.
         21    1    1    2  503  501 -0.39625880650E+02  0.88649215759E+00  0.21577903121E+03  0.21938912141E+03  0.00000000000E+00 0. -1.
         21    1    1    2  504  506  0.94673383997E+01  0.50729365607E+02  0.39483801697E+03  0.39819613091E+03  0.00000000000E+00 0. -1.
         21    1    1    2  505  502 -0.85148789956E+01 -0.12609746328E+03  0.40955605133E+02  0.13285493970E+03  0.00000000000E+00 0.  1.
         21    1    1    2  506  505  0.38673421246E+02  0.74481605520E+02  0.30048966619E+03  0.31198907442E+03  0.00000000000E+00 0. -1.
<scales pt_clust_3="39.63580" pt_clust_4="43.86323" pt_clust_5="126.65608" pt_clust_6="43.86323"></scales>
<clustering>
<clus scale="   39.636">  1  3  2 -1</clus>
<clus scale="   43.863">  4  6 -1 -1</clus>
<clus scale="  126.656">  2  5  1 -1</clus>
<clus scale="   39.636">  1  3  2 -1</clus>
</clustering>
</event>
<event>
 6    0  0.1438923E+002  0.9432958E+02  0.7546771E-02  0.1292693E+00
         21   -1    0    0  504  501  0.00000000000E+00  0.00000000000E+00  0.10887926266E+04  0.10887926266E+04  0.00000000000E+00 0.  1.
         21   -1    0    0  506  502 -0.00000000000E+00 -0.00000000000E+00 -0.48961597306E+03  0.48961597306E+03  0.00000000000E+00 0.  1.
         21    1    1    2  503  501  0.48553111359E+02 -0.13301530570E+02  0.33829574443E+03  0.34202097309E+03  0.00000000000E+00 0. -1.
         21    1    1    2  504  502 -0.13235632674E+03 -0.68425640996E+02  0.58671931332E+03  0.60534272788E+03  0.00000000000E+00 0.  1.
         21    1    1    2  505  503  0.51991726046E+02  0.26797664967E+02  0.14478836122E+03  0.15615672887E+03  0.00000000000E+00 0.  1.
         21    1    1    2  506  505  0.31811489336E+02  0.54929506599E+02 -0.47062676540E+03  0.47488816985E+03  0.00000000000E+00 0.  1.
<scales pt_clust_3="50.34218" pt_clust_4="94.32958" pt_clust_5="14000.00000" pt_clust_6="63.51279"></scales>
<clustering>
<clus scale="   50.342">  1  3  2 -1</clus>
<clus scale="   63.513">  2  6  1 -1</clus>
<clus scale="   94.330">  1  4  2 -1</clus>
<clus scale="   50.342">  1  3  2 -1</clus>
</clustering>
</event>
<event>
 6    0  0.1438923E+002  0.9650050E+02  0.7546771E-02  0.1287832E+00
         21   -1    0    0  506  501  0.00000000000E+00  0.00000000000E+00  0.15780928522E+04  0.15780928522E+04  0.00000000000E+00 0.  1.
         21   -1    0    0  503  502 -0.00000000000E+00 -0.00000000000E+00 -0.18489505208E+02  0.18489505208E+02  0.00000000000E+00 0.  1.
         21    1    1    2  503  501 -0.97608542877E+02 -0.62889475222E+02  0.42898346087E+03  0.44442021042E+03  0.00000000000E+00 0.  1.
         21    1    1    2  504  502  0.37505746782E+02  0.65878144636E+01  0.51394073857E+02  0.63964296046E+02  0.00000000000E+00 0.  1.
         21    1    1    2  505  504  0.92849022380E+02  0.30425759368E+02  0.76111173827E+03  0.76735763886E+03  0.00000000000E+00 0.  1.
         21    1    1    2  506  505 -0.32746226285E+02  0.25875901391E+02  0.31811407404E+03  0.32084021211E+03  0.00000000000E+00 0. -1.
<scales pt_clust_3="96.50050" pt_clust_4="38.07992" pt_clust_5="14000.00000" pt_clust_6="39.03463"></scales>
<clustering>
<clus scale="   38.080">  2  4  1 -1</clus>
<clus scale="   39.035">  1  6  2 -1</clus>
<clus scale="   96.501">  2  3  1 -1</clus>
<clus scale="   39.035">  1  3  2 -1</clus>
</clustering>
</event>
<event>
 6    0  0.1438923E+002  0.1249177E+03  0.7546771E-02  0.1235198E+00
         21   -1    0    0  503  501  0.00000000000E+00  0.00000000000E+00  0.87574456484E+02  0.87574456484E+02  0.00000000000E+00 0.  1.
         21   -1    0    0  504  502 -0.00000000000E+00 -0.00000000000E+00 -0.49683473006E+03  0.49683473006E+03  0.00000000000E+00 0. -1.
         21    1    1    2  503  505  0.65291315287E+01  0.37293691803E+02 -0.35302211970E+02  0.51765772252E+02  0.00000000000E+00 0. -1.
         21    1    1    2  504  506  0.28426069448E+02  0.15244642387E+02 -0.76076575280E+02  0.82632232525E+02  0.00000000000E+00 0. -1.
         21    1    1    2  505  502  0.11307376411E+02 -0.13975235555E+03 -0.31953236389E+03  0.34894055256E+03  0.00000000000E+00 0. -1.
         21    1    1    2  506  501 -0.46262577387E+02  0.87214021363E+02  0.21650877570E+02  0.10107062921E+03  0.00000000000E+00 0.  1.
<scales pt_clust_3="40.02549" pt_clust_4="32.25586" pt_clust_5="124.91774" pt_clust_6="14000.00000"></scales>
<clustering>
<clus scale="   32.256">  2  4  1 -1</clus>
<clus scale="   40.025">  1  3  2 -1</clus>
<clus scale="  124.918">  2  5  1 -1</clus>
<clus scale="   40.025">  1  3  2 -1</clus>
</clustering>
</event>
<event>
 6    0  0.1438923E+002  0.1191940E+03  0.7546771E-02  0.1244433E+00
         21   -1    0    0  505  501  0.00000000000E+00  0.00000000000E+00  0.77804944977E+03  0.77804944977E+03  0.00000000000E+00 0. -1.
         21   -1    0    0  504  502 -0.00000000000E+00 -0.00000000000E+00 -0.27178351099E+03  0.27178351099E+03  0.00000000000E+00 0. -1.
         21    1    1    2  503  501 -0.27016496289E+02  0.11768336996E+03  0.46324392239E+03  0.47872142031E+03  0.00000000000E+00 0. -1.
         21    1    1    2  504  503  0.85767922606E+02  0.12721143496E+02 -0.22109210126E+03  0.23748617071E+03  0.00000000000E+00 0. -1.
         21    1    1    2  505  506  0.40990652390E+02 -0.66480132025E+01  0.81910912303E+02  0.91835871081E+02  0.00000000000E+00 0. -1.
         21    1    1    2  506  502 -0.99742078707E+02 -0.12375650025E+03  0.18220320535E+03  0.24178949865E+03  0.00000000000E+00 0. -1.
<scales pt_clust_3="14000.00000" pt_clust_4="87.17562" pt_clust_5="41.52625" pt_clust_6="119.19400"></scales>
<clustering>
<clus scale="   41.526">  1  5  2 -1</clus>
<clus scale="   87.176">  2  4  1 -1</clus>
<clus scale="  119.194">  2  6  1 -1</clus>
<clus scale="   41.526">  1  3  2 -1</clus>
</clustering>
</event>
<event>
 6    0  0.1438923E+002  0.1106850E+03  0.7546771E-02  0.1259307E+00
         21   -1    0    0  503  501  0.00000000000E+00  0.00000000000E+00  0.17762204197E+04  0.17762204197E+04  0.00000000000E+00 0. -1.
         21   -1    0    0  505  502 -0.00000000000E+00 -0.00000000000E+00 -0.40007132869E+02  0.40007132869E+02  0.00000000000E+00 0.  1.
         21    1    1    2  503  502  0.36487032773E+02 -0.95887438900E+02  0.32288955558E+03  0.33879694450E+03  0.00000000000E+00 0.  1.
         21    1    1    2  504  506 -0.14171285878E+03  0.23417260160E+02  0.10746538246E+04  0.10842101941E+04  0.00000000000E+00 0. -1.
         21    1    1    2  505  504  0.10317560625E+03  0.34346042567E+02  0.88639635681E+02  0.14029198615E+03  0.00000000000E+00 0.  1.
         21    1    1    2  506  501  0.20502197589E+01  0.38124136174E+02  0.25003027101E+03  0.25292842779E+03  0.00000000000E+00 0. -1.
<scales pt_clust_3="95.08090" pt_clust_4="14000.00000" pt_clust_5="110.68504" pt_clust_6="38.17922"></scales>
<clustering>
<clus scale="   38.179">  1  6  2 -1</clus>
<clus scale="   95.081">  1  3  2 -1</clus>
<clus scale="  110.685">  2  5  1 -1</clus>
<clus scale="   38.179">  1  3  2 -1</clus>
</clustering>
</event>
<event>
 6    0  0.1438923E+002  0.1492046E+03  0.7546771E-02  0.1201454E+00
         21   -1    0    0  505  501  0.00000000000E+00  0.00000000000E+00  0.14557270527E+03  0.14557270527E+03  0.00000000000E+00 0. -1.
         21   -1    0    0  504  502 -0.00000000000E+00 -0.00000000000E+00 -0.13719202812E+04  0.13719202812E+04  0.00000000000E+00 0.  1.
         21    1    1    2  503  501 -0.54696806301E+02  0.85263304646E+02  0.15885585006E+02  0.10253742512E+03  0.00000000000E+00 0. -1.
         21    1    1    2  504  503 -0.93629697858E+02  0.10936618726E+03 -0.11074652056E+03  0.18163775779E+03  0.00000000000E+00 0. -1.
         21    1    1    2  505  506  0.12227841881E+03 -0.14381584884E+03 -0.12770039739E+03  0.22790875713E+03  0.00000000000E+00 0. -1.
         21    1    1    2  506  502  0.26048085351E+02 -0.50813643074E+02 -0.10037862430E+04  0.10054090465E+04  0.00000000000E+00 0.  1.
<scales pt_clust_3="94.59801" pt_clust_4="149.20456" pt_clust_5="14000.00000" pt_clust_6="57.10104"></scales>
<clustering>
<clus scale="   57.101">  2  6  1 -1</clus>
<clus scale="   94.598">  1  3  2 -1</clus>
<clus scale="  149.205">  2  4  1 -1</clus>
<clus scale="   94.598">  1  3  2 -1</clus>
</clustering>
</event>
<event>
 6    0  0.1438923E+002  0.1611481E+03  0.7546771E-02  0.1187407E+00
         21   -1    0    0  502  501  0.00000000000E+00  0.00000000000E+00  0.35956782604E+03  0.35956782604E+03  0.00000000000E+00 0. -1.
         21   -1    0    0  506  502 -0.00000000000E+00 -0.00000000000E+00 -0.82712078541E+03  0.82712078541E+03  0.00000000000E+00 0. -1.
         21    1    1    2  503  505 -0.59958539413E+02 -0.10233678751E+03 -0.83154105367E+01  0.11889907728E+03  0.00000000000E+00 0. -1.
         21    1    1    2  504  501 -0.22959919786E+02  0.25986854406E+02  0.13055972902E+02  0.37053109815E+02  0.00000000000E+00 0.  1.
         21    1    1    2  505  504  0.80295191102E+02  0.15865245182E+03  0.24832801000E+03  0.30542547165E+03  0.00000000000E+00 0. -1.
         21    1    1    2  506  503  0.26232680970E+01 -0.82302518722E+02 -0.72062153173E+03  0.72531095271E+03  0.00000000000E+00 0. -1.
<scales pt_clust_3="161.14808" pt_clust_4="34.67671" pt_clust_5="14000.00000" pt_clust_6="82.15728"></scales>
<clustering>
<clus scale="   34.677">  1  4  2 -1</clus>
<clus scale="   82.157">  2  6  1 -1</clus>
<clus scale="  161.148">  2  3  1 -1</clus>
<clus scale="   34.677">  1  3  2 -1</clus>
</clustering>
</event>
<event>
 6    0  0.1438923E+002  0.1079344E+03  0.7546771E-02  0.1264444E+00
         21   -1    0    0  505  501  0.00000000000E+00  0.00000000000E+00  0.68928212602E+03  0.68928212602E+03  0.00000000000E+00 0. -1.
         21   -1    0    0  506  502 -0.00000000000E+00 -0.00000000000E+00 -0.12361671464E+03  0.12361671464E+03  0.00000000000E+00 0. -1.
         21    1    1    2  503  502  0.35758920832E+02 -0.41470438399E+02 -0.97833514361E+02  0.11211553957E+03  0.00000000000E+00 0. -1.
         21    1    1    2  504  501 -0.28489100952E+01  0.57785474318E+02  0.10618164975E+03  0.12092071813E+03  0.00000000000E+00 0. -1.
         21    1    1    2  505  503 -0.36395197259E+02 -0.84399458895E+02  0.32578518174E+03  0.33850238358E+03  0.00000000000E+00 0. -1.
         21    1    1    2  506  504  0.34851865225E+01  0.68084422977E+02  0.23153209425E+03  0.24136019938E+03  0.00000000000E+00 0. -1.
<scales pt_clust_3="54.75854" pt_clust_4="33.88868" pt_clust_5="101.47202" pt_clust_6="33.88868"></scales>
<clustering>
<clus scale="   33.889">  4  6 -1 -1</clus>
<clus scale="   54.759">  2  3  1 -1</clus>
<clus scale="  101.472">  1  5  2 -1</clus>
<clus scale="  101.472">  1  3  2 -1</clus>
</clustering>
</event>
<event>
 6    0  0.1438923E+002  0.1135205E+03  0.7546771E-02  0.1254186E+00
         21   -1    0    0  503  501  0.00000000000E+00  0.00000000000E+00  0.68369214645E+03  0.68369214645E+03  0.00000000000E+00 0.  1.
         21   -1    0    0  505  502 -0.00000000000E+00 -0.00000000000E+00 -0.11170390409E+03  0.11170390409E+03  0.00000000000E+00 0. -1.
         21    1    1    2  503  504 -0.30115115876E+02  0.75366631995E+01  0.21529411590E+03  0.21752075266E+03  0.00000000000E+00 0.  1.
         21    1    1    2  504  502  0.99123681088E+02  0.19356604853E+02  0.12774825176E+03  0.16284900408E+03  0.00000000000E+00 0.  1.
         21    1    1    2  505  506  0.38112742695E+02  0.20801565820E+02 -0.76434957514E+02  0.87906706380E+02  0.00000000000E+00 0. -1.
         21    1    1    2  506  501 -0.10712130791E+03 -0.47694833873E+02  0.30538083222E+03  0.32711958742E+03  0.00000000000E+00 0.  1.
<scales pt_clust_3="31.04386" pt_clust_4="113.52054" pt_clust_5="43.14050" pt_clust_6="14000.00000"></scales>
<clustering>
<clus scale="   31.044">  1  3  2 -1</clus>
<clus scale="   43.141">  2  5  1 -1</clus>
<clus scale="  113.521">  2  4  1 -1</clus>
<clus scale="   31.044">  1  3  2 -1</clus>
</clustering>
</event>
<event>
 6    0  0.1438923E+002  0.1091953E+03  0.7546771E-02  0.1262067E+00
         21   -1    0    0  502  501  0.00000000000E+00  0.00000000000E+00  0.42476246874E+02  0.42476246874E+02  0.00000000000E+00 0.  1.
         21   -1    0    0  505  502 -0.00000000000E+00 -0.00000000000E+00 -0.14412178339E+04  0.14412178339E+04  0.00000000000E+00 0.  1.
         21    1    1    2  503  504 -0.45434744495E+02 -0.96107769555E+02 -0.20711876180E+03  0.23280721824E+03  0.00000000000E+00 0.  1.
         21    1    1    2  504  506 -0.29322188337E+02 -0.24403587490E+02 -0.30560666893E+02  0.48880263627E+02  0.00000000000E+00 0. -1.
         21    1    1    2  505  503  0.35654896590E+02  0.84879809934E+02 -0.11421070268E+04  0.11458116400E+04  0.00000000000E+00 0.  1.
         21    1    1    2  506  501  0.39102036242E+02  0.35631547111E+02 -0.18955131498E+02  0.56194958830E+02  0.00000000000E+00 0.  1.
<scales pt_clust_3="31.38422" pt_clust_4="31.38422" pt_clust_5="95.80647" pt_clust_6="52.90157"></scales>
<clustering>
<clus scale="   31.384">  3  4 -1 -1</clus>
<clus scale="   52.902">  1  6  2 -1</clus>
<clus scale="   95.806">  2  5  1 -1</clus>
<clus scale="   52.902">  1  3  2 -1</clus>
</clustering>
</event>
<event>
 6    0  0.1438923E+002  0.7681938E+02  0.7546771E-02  0.1338328E+00
         21   -1    0    0  503  501  0.00000000000E+00  0.00000000000E+00  0.32396506456E+03  0.32396506456E+03  0.00000000000E+00 0. -1.
         21   -1    0    0  504  502 -0.00000000000E+00 -0.00000000000E+00 -0.91761528848E+02  0.91761528848E+02  0.00000000000E+00 0. -1.
         21    1    1    2  503  506 -0.64924849701E+02 -0.79888590486E+01  0.83786478189E+02  0.10629784525E+03  0.00000000000E+00 0. -1.
         21    1    1    2  504  505 -0.70419732668E+00  0.30778422068E+02  0.12324266589E+02  0.33161645101E+02  0.00000000000E+00 0. -1.
         21    1    1    2  505  501  0.12994001043E+03 -0.12933975770E+02  0.16038230097E+03  0.20681918795E+03  0.00000000000E+00 0. -1.
         21    1    1    2  506  502 -0.64310963404E+02 -0.98555872492E+01 -0.24289510040E+02  0.69447915102E+02  0.00000000000E+00 0. -1.
<scales pt_clust_3="65.12919" pt_clust_4="30.78648" pt_clust_5="14000.00000" pt_clust_6="76.81938"></scales>
<clustering>
<clus scale="   30.786">  2  4  1 -1</clus>
<clus scale="   65.129">  1  3  2 -1</clus>
<clus scale="   76.819">  2  6  1 -1</clus>
<clus scale="   65.129">  1  3  2 -1</clus>
</clustering>
</event>
<event>
 6    0  0.1438923E+002  0.1071686E+03  0.7546771E-02  0.1265905E+00
         21   -1    0    0  504  501  0.00000000000E+00  0.00000000000E+00  0.64018657433E+02  0.64018657433E+02  0.00000000000E+00 0.  1.
         21   -1    0    0  506  502 -0.00000000000E+00 -0.00000000000E+00 -0.10253972497E+04  0.10253972497E+04  0.00000000000E+00 0.  1.
         21    1    1    2  503  501  0.27640300013E+02  0.34005423786E+02  0.10554360977E+02  0.45074932804E+02  0.00000000000E+00 0.  1.
         21    1    1    2  504  505 -0.54823280147E+02  0.19266372609E+01 -0.51783445092E+02  0.75437584550E+02  0.00000000000E+00 0.  1.
         21    1    1    2  505  502  0.58554528860E+02 -0.97680488527E+02 -0.88298965210E+03  0.89030378883E+03  0.00000000000E+00 0.  1.
         21    1    1    2  506  503 -0.31371548727E+02  0.61748427480E+02 -0.37159856031E+02  0.78599600928E+02  0.00000000000E+00 0.  1.
<scales pt_clust_3="43.82186" pt_clust_4="47.61297" pt_clust_5="14000.00000" pt_clust_6="107.16863"></scales>
<clustering>
<clus scale="   43.822">  1  3  2 -1</clus>
<clus scale="   47.613">  1  4  2 -1</clus>
<clus scale="  107.169">  1  6  2 -1</clus>
<clus scale="   43.822">  1  3  2 -1</clus>
</clustering>
</event>
<event>
 6    0  0.1438923E+002  0.1694378E+03  0.7546771E-02  0.1178435E+00
         21   -1    0    0  502  501  0.00000000000E+00  0.00000000000E+00  0.16995182526E+04  0.16995182526E+04  0.00000000000E+00 0.  1.
         21   -1    0    0  505  502 -0.00000000000E+00 -0.00000000000E+00 -0.88752658677E+02  0.88752658677E+02  0.00000000000E+00 0.  1.
         21    1    1    2  503  504  0.63372539999E+02  0.21243851736E+02  0.35980634140E+03  0.36596172392E+03  0.00000000000E+00 0.  1.
         21    1    1    2  504  506  0.34555846580E+02  0.48257168637E+02  0.33098650758E+03  0.33626615806E+03  0.00000000000E+00 0. -1.
         21    1    1    2  505  503 -0.11598947542E+03 -0.12559263388E+03  0.69289461038E+01  0.17109961540E+03  0.00000000000E+00 0.  1.
         21    1    1    2  506  501  0.18061088846E+02  0.56091613512E+02  0.91304379885E+03  0.91494341391E+03  0.00000000000E+00 0.  1.
<scales pt_clust_3="36.60476" pt_clust_4="36.60476" pt_clust_5="164.92511" pt_clust_6="58.92768"></scales>
<clustering>
<clus scale="   36.605">  3  4 -1 -1</clus>
<clus scale="   58.928">  1  6  2 -1</clus>
<clus scale="  164.925">  2  5  1 -1</clus>
<clus scale="   58.928">  1  3  2 -1</clus>
</clustering>
</event>
<event>
 6    0  0.1438923E+002  0.1910328E+03  0.7546771E-02  0.1157533E+00
         21   -1    0    0  503  501  0.00000000000E+00  0.00000000000E+00  0.98011547097E+03  0.98011547097E+03  0.00000000000E+00 0.  1.
         21   -1    0    0  505  502 -0.00000000000E+00 -0.00000000000E+00 -0.20825212953E+03  0.20825212953E+03  0.00000000000E+00 0.  1.
         21    1    1    2  503  502 -0.13092847338E+03  0.14024180408E+03  0.78546836739E+03  0.80856081090E+03  0.00000000000E+00 0.  1.
         21    1    1    2  504  506  0.43294806763E+02 -0.59831461276E+02  0.46279192805E+02  0.87155078668E+02  0.00000000000E+00 0.  1.
         21    1    1    2  505  504  0.29174644655E+01 -0.38433578272E+02 -0.15429668164E+03  0.15903810079E+03  0.00000000000E+00 0.  1.
         21    1    1    2  506  501  0.84716202154E+02 -0.41976764533E+02  0.94412462892E+02  0.13361361015E+03  0.00000000000E+00 0.  1.
<scales pt_clust_3="185.20415" pt_clust_4="43.13850" pt_clust_5="38.54415" pt_clust_6="43.13850"></scales>
<clustering>
<clus scale="   38.544">  2  5  1 -1</clus>
<clus scale="   43.138">  4  6 -1 -1</clus>
<clus scale="  185.204">  1  3  2 -1</clus>
<clus scale="  185.204">  1  3  2 -1</clus>
</clustering>
</event>
<event>
 6    0  0.1438923E+002  0.1938657E+03  0.7546771E-02  0.1155020E+00
         21   -1    0    0  504  501  0.00000000000E+00  0.00000000000E+00  0.59489300861E+03  0.59489300861E+03  0.00000000000E+00 0.  1.
         21   -1    0    0  505  502 -0.00000000000E+00 -0.00000000000E+00 -0.25403092125E+03  0.25403092125E+03  0.00000000000E+00 0.  1.
         21    1    1    2  503  506 -0.16847293398E+03 -0.52254465481E+02  0.68928513956E+02  0.18938003771E+03  0.00000000000E+00 0.  1.
         21    1    1    2  504  503 -0.81196460263E+02 -0.18811234047E+02  0.19791727689E+03  0.21475096315E+03  0.00000000000E+00 0.  1.
         21    1    1    2  505  501  0.43555315078E+02  0.92760780585E+02  0.18366670676E+03  0.21032138992E+03  0.00000000000E+00 0.  1.
         21    1    1    2  506  502  0.20611407916E+03 -0.21695081056E+02 -0.10965041024E+03  0.23447153908E+03  0.00000000000E+00 0.  1.
<scales pt_clust_3="14000.00000" pt_clust_4="83.34703" pt_clust_5="83.25805" pt_clust_6="193.86566"></scales>
<clustering>
<clus scale="   83.347">  1  4  2 -1</clus>
<clus scale="   83.258">  1  5  2 -1</clus>
<clus scale="  193.866">  2  6  1 -1</clus>
<clus scale="   83.347">  1  3  2 -1</clus>
</clustering>
</event>
<event>
 6    0  0.1438923E+002  0.1210537E+03  0.7546771E-02  0.1241369E+00
         21   -1    0    0  504  501  0.00000000000E+00  0.00000000000E+00  0.42033516178E+03  0.42033516178E+03  0.00000000000E+00 0. -1.
         21   -1    0    0  503  502 -0.00000000000E+00 -0.00000000000E+00 -0.59748214892E+02  0.59748214892E+02  0.00000000000E+00 0. -1.
         21    1    1    2  503  501 -0.21358180661E+02 -0.12170711685E+03  0.62167275281E+02  0.13832412764E+03  0.00000000000E+00 0. -1.
         21    1    1    2  504  506  0.23902132286E+02  0.22209695638E+02  0.17292872979E+03  0.17597990821E+03  0.00000000000E+00 0. -1.
         21    1    1    2  505  502  0.19468087227E+02  0.39852026661E+02  0.44675463816E+02  0.62953058039E+02  0.00000000000E+00 0. -1.
         21    1    1    2  506  505 -0.22012038852E+02  0.59645394548E+02  0.80815478003E+02  0.10282628278E+03  0.00000000000E+00 0. -1.
<scales pt_clust_3="113.24924" pt_clust_4="32.62794" pt_clust_5="36.74306" pt_clust_6="36.74306"></scales>
<clustering>
<clus scale="   32.628">  1  4  2 -1</clus>
<clus scale="   36.743">  5  6 -1 -1</clus>
<clus scale="  113.249">  2  3  1 -1</clus>
<clus scale="   32.628">  1  3  2 -1</clus>
</clustering>
</event>
<event>
 6    0  0.1438923E+002  0.1465398E+03  0.7546771E-02  0.1204790E+00
         21   -1    0    0  506  501  0.00000000000E+00  0.00000000000E+00  0.22510690140E+03  0.22510690140E+03  0.00000000000E+00 0. -1.
         21   -1    0    0  503  502 -0.00000000000E+00 -0.00000000000E+00 -0.25158720631E+03  0.25158720631E+03  0.00000000000E+00 0. -1.
         21    1    1    2  503  505 -0.84853780879E+02  0.27631725914E+01  0.98018744059E+02  0.12967449032E+03  0.00000000000E+00 0. -1.
         21    1    1    2  504  502  0.13752970317E+02  0.36668409872E+02 -0.13785575551E+03  0.14331059208E+03  0.00000000000E+00 0. -1.
         21    1    1    2  505  501 -0.57242049432E+02  0.13159135580E+02  0.26403342744E+02  0.64396828963E+02  0.00000000000E+00 0.  1.
         21    1    1    2  506  504  0.12834285999E+03 -0.52590718043E+02 -0.13046636205E+02  0.13931219635E+03  0.00000000000E+00 0. -1.
<scales pt_clust_3="34.67630" pt_clust_4="39.16269" pt_clust_5="34.67630" pt_clust_6="140.48433"></scales>
<clustering>
<clus scale="   34.676">  3  5 -1 -1</clus>
<clus scale="   39.163">  2  4  1 -1</clus>
<clus scale="  140.484">  2  6  1 -1</clus>
<clus scale="  146.540">  1  3  2 -1</clus>
</clustering>
</event>
<event>
 6    0  0.1438923E+002  0.1399333E+03  0.7546771E-02  0.1213419E+00
         21   -1    0    0  504  501  0.00000000000E+00  0.00000000000E+00  0.13090605238E+04  0.13090605238E+04  0.00000000000E+00 0. -1.
         21   -1    0    0  505  502 -0.00000000000E+00 -0.00000000000E+00 -0.74009095620E+02  0.74009095620E+02  0.00000000000E+00 0. -1.
         21    1    1    2  503  501  0.76808373886E+02  0.90449105216E+02  0.90977111188E+03  0.91747699859E+03  0.00000000000E+00 0. -1.
         21    1    1    2  504  502 -0.10222663856E+02 -0.39825835560E+02  0.10995528390E+03  0.11739150094E+03  0.00000000000E+00 0.  1.
         21    1    1    2  505  506 -0.11078273110E+03 -0.55310329164E+02 -0.45233248324E+01  0.12390523189E+03  0.00000000000E+00 0. -1.
         21    1    1    2  506  503  0.44197021067E+02  0.46870595077E+01  0.21984835723E+03  0.22429588801E+03  0.00000000000E+00 0. -1.
<scales pt_clust_3="38.27844" pt_clust_4="41.11691" pt_clust_5="125.17728" pt_clust_6="38.27844"></scales>
<clustering>
<clus scale="   38.278">  3  6 -1 -1</clus>
<clus scale="   41.117">  1  4  2 -1</clus>
<clus scale="  125.177">  2  5  1 -1</clus>
<clus scale="   41.117">  1  3  2 -1</clus>
</clustering>
</event>
<event>
 6    0  0.1438923E+002  0.1405805E+03  0.7546771E-02  0.1212550E+00
         21   -1    0    0  504  501  0.00000000000E+00  0.00000000000E+00  0.63419609948E+03  0.63419609948E+03  0.00000000000E+00 0. -1.
         21   -1    0    0  501  502 -0.00000000000E+00 -0.00000000000E+00 -0.10676033555E+03  0.10676033555E+03  0.00000000000E+00 0. -1.
         21    1    1    2  503  502 -0.24739604502E+02 -0.19298385953E+02 -0.31629590851E+02  0.44552292295E+02  0.00000000000E+00 0. -1.
         21    1    1    2  504  506 -0.10003581064E+02 -0.49859575261E+02  0.10597566826E+03  0.11754527273E+03  0.00000000000E+00 0.  1.
         21    1    1    2  505  503 -0.53960152259E+02  0.14437385366E+03  0.54231256846E+02  0.16339074904E+03  0.00000000000E+00 0. -1.
         21    1    1    2  506  505  0.88703337826E+02 -0.75215892445E+02  0.39885842967E+03  0.41546812096E+03  0.00000000000E+00 0. -1.
<scales pt_clust_3="31.37636" pt_clust_4="52.88523" pt_clust_5="140.58054" pt_clust_6="14000.00000"></scales>
<clustering>
<clus scale="   31.376">  2  3  1 -1</clus>
<clus scale="   52.885">  1  4  2 -1</clus>
<clus scale="  140.581">  2  5  1 -1</clus>
<clus scale="   52.885">  1  3  2 -1</clus>
</clustering>
</event>
<event>
 6    0  0.1438923E+002  0.9232412E+02  0.7546771E-02  0.1297319E+00
         21   -1    0    0  506  501  0.00000000000E+00  0.00000000000E+00  0.11862530282E+03  0.11862530282E+03  0.00000000000E+00 0. -1.
         21   -1    0    0  503  502 -0.00000000000E+00 -0.00000000000E+00 -0.17852335154E+04  0.17852335154E+04  0.00000000000E+00 0.  1.
         21    1    1    2  503  505  0.10904069969E+02  0.91957894807E+02 -0.17231950463E+04  0.17256814077E+04  0.00000000000E+00 0.  1.
         21    1    1    2  504  502 -0.33409330342E+02 -0.78758872962E+02  0.46215149777E+01  0.85676728607E+02  0.00000000000E+00 0. -1.
         21    1    1    2  505  501  0.13697846881E+02  0.29711448735E+02  0.21856390310E+02  0.39345939975E+02  0.00000000000E+00 0. -1.
         21    1    1    2  506  504  0.88074134920E+01 -0.42910470580E+02  0.30108928471E+02  0.53154741947E+02  0.00000000000E+00 0. -1.
<scales pt_clust_3="92.32412" pt_clust_4="14000.00000" pt_clust_5="32.71699" pt_clust_6="32.65660"></scales>
<clustering>
<clus scale="   32.717">  1  5  2 -1</clus>
<clus scale="   32.657">  1  6  2 -1</clus>
<clus scale="   92.324">  2  3  1 -1</clus>
<clus scale="   32.717">  1  3  2 -1</clus>
</clustering>
</event>
<event>
 6    0  0.1438923E+002  0.1432685E+03  0.7546771E-02  0.1208997E+00
         21   -1    0    0  505  501  0.00000000000E+00  0.00000000000E+00  0.25267881001E+03  0.25267881001E+03  0.00000000000E+00 0.  1.
         21   -1    0    0  504  502 -0.00000000000E+00 -0.00000000000E+00 -0.25075483324E+04  0.25075483324E+04  0.00000000000E+00 0.  1.
         21    1    1    2  503  502 -0.13883412487E+03 -0.34418964598E+02 -0.23371094283E+04  0.23414824491E+04  0.00000000000E+00 0.  1.
         21    1    1    2  504  506 -0.75897843511E+02  0.11110443899E+03 -0.24931986483E+02  0.13684400960E+03  0.00000000000E+00 0.  1.
         21    1    1    2  505  503  0.18304629147E+03 -0.62762359793E+02  0.13627834097E+03  0.23667877987E+03  0.00000000000E+00 0.  1.
         21    1    1    2  506  501  0.31685676913E+02 -0.13923114598E+02 -0.29106448521E+02  0.45221903842E+02  0.00000000000E+00 0.  1.
<scales pt_clust_3="143.26847" pt_clust_4="127.90404" pt_clust_5="14000.00000" pt_clust_6="34.60976"></scales>
<clustering>
<clus scale="   34.610">  1  6  2 -1</clus>
<clus scale="  127.904">  1  4  2 -1</clus>
<clus scale="  143.268">  2  3  1 -1</clus>
<clus scale="   34.610">  1  3  2 -1</clus>
</clustering>
</event>
<event>
 6    0  0.1438923E+002  0.2136607E+03  0.7546771E-02  0.1138699E+00
         21   -1    0    0  502  501  0.00000000000E+00  0.00000000000E+00  0.18292616555E+03  0.18292616555E+03  0.00000000000E+00 0.  1.
         21   -1    0    0  504  502 -0.00000000000E+00 -0.00000000000E+00 -0.10152909410E+04  0.10152909410E+04  0.00000000000E+00 0. -1.
         21    1    1    2  503  501  0.23358883861E+02  0.30381725452E+02  0.54883934013E+02  0.66939770760E+02  0.00000000000E+00 0.  1.
         21    1    1    2  504  505 -0.20543895665E+03 -0.94829070359E+01 -0.91214748960E+03  0.93504445521E+03  0.00000000000E+00 0. -1.
         21    1    1    2  505  506  0.25888725753E+02 -0.24823390368E+02 -0.75632564799E+01  0.36655554546E+02  0.00000000000E+00 0. -1.
         21    1    1    2  506  503  0.15619134703E+03  0.39245719514E+01  0.32462036636E+02  0.15957732601E+03  0.00000000000E+00 0.  1.
<scales pt_clust_3="38.32345" pt_clust_4="203.35540" pt_clust_5="31.40915" pt_clust_6="31.40915"></scales>
<clustering>
<clus scale="   31.409">  5  6 -1 -1</clus>
<clus scale="   38.323">  1  3  2 -1</clus>
<clus scale="  203.355">  2  4  1 -1</clus>
<clus scale="   38.323">  1  3  2 -1</clus>
</clustering>
</event>
<event>
 6    0  0.1438923E+002  0.9148094E+02  0.7546771E-02  0.1299304E+00
         21   -1    0    0  505  501  0.00000000000E+00  0.00000000000E+00  0.26855493813E+03  0.26855493813E+03  0.00000000000E+00 0. -1.
         21   -1    0    0  504  502 -0.00000000000E+00 -0.00000000000E+00 -0.17433173479E+03  0.17433173479E+03  0.00000000000E+00 0. -1.
         21    1    1    2  503  501  0.17442278489E+02  0.37513977868E+02  0.40739445148E+02  0.58062328625E+02  0.00000000000E+00 0. -1.
         21    1    1    2  504  506  0.16425678020E+02  0.67868881217E+02 -0.89985900926E+02  0.11390105487E+03  0.00000000000E+00 0. -1.
         21    1    1    2  505  502 -0.57038725841E+02  0.40721473093E+02  0.89004974319E+02  0.11328521558E+03  0.00000000000E+00 0. -1.
         21    1    1    2  506  503  0.23170769331E+02 -0.14610433218E+03  0.54464684800E+02  0.15763807384E+03  0.00000000000E+00 0. -1.
<scales pt_clust_3="41.37066" pt_clust_4="72.04292" pt_clust_5="14000.00000" pt_clust_6="91.48094"></scales>
<clustering>
<clus scale="   41.371">  1  3  2 -1</clus>
<clus scale="   72.043">  2  4  1 -1</clus>
<clus scale="   91.481">  2  6  1 -1</clus>
<clus scale="   41.371">  1  3  2 -1</clus>
</clustering>
</event>
<event>
 6    0  0.1438923E+002  0.1525819E+03  0.7546771E-02  0.1197336E+00
         21   -1    0    0  504  501  0.00000000000E+00  0.00000000000E+00  0.87430268811E+02  0.87430268811E+02  0.00000000000E+00 0.  1.
         21   -1    0    0  505  502 -0.00000000000E+00 -0.00000000000E+00 -0.21660646413E+04  0.21660646413E+04  0.00000000000E+00 0.  1.
         21    1    1    2  503  501 -0.14408831915E+03 -0.55082719699E+01 -0.84616282486E+01  0.14444162810E+03  0.00000000000E+00 0.  1.
         21    1    1    2  504  502 -0.28831701299E+02  0.17269678027E+02 -0.16845828798E+04  0.16849180953E+04  0.00000000000E+00 0.  1.
         21    1    1    2  505  506  0.74229854815E+02 -0.21294868709E+02 -0.15679048499E+03  0.17477642565E+03  0.00000000000E+00 0.  1.
         21    1    1    2  506  503  0.98690165637E+02  0.95334626524E+01 -0.22879937940E+03  0.24935876106E+03  0.00000000000E+00 0.  1.
<scales pt_clust_3="148.69364" pt_clust_4="33.60817" pt_clust_5="30.20594" pt_clust_6="30.20594"></scales>
<clustering>
<clus scale="   30.206">  5  6 -1 -1</clus>
<clus scale="   33.608">  2  4  1 -1</clus>
<clus scale="  148.694">  1  3  2 -1</clus>
<clus scale="  148.694">  1  3  2 -1</clus>
</clustering>
</event>
<event>
 6    0  0.1438923E+002  0.1296995E+03  0.7546771E-02  0.1227902E+00
         21   -1    0    0  505  501  0.00000000000E+00  0.00000000000E+00  0.26510952949E+04  0.26510952949E+04  0.00000000000E+00 0. -1.
         21   -1    0    0  504  502 -0.00000000000E+00 -0.00000000000E+00 -0.51311765142E+02  0.51311765142E+02  0.00000000000E+00 0. -1.
         21    1    1    2  503  501 -0.59380687713E+01  0.36392696150E+02  0.21509911775E+03  0.21823684256E+03  0.00000000000E+00 0. -1.
         21    1    1    2  504  503 -0.49599648452E+02 -0.12294512357E+03  0.44057192403E+02  0.13970205703E+03  0.00000000000E+00 0. -1.
         21    1    1    2  505  506  0.48982268623E+02  0.19557991898E+01  0.78613849213E+03  0.78766542173E+03  0.00000000000E+00 0. -1.
         21    1    1    2  506  502  0.65554485999E+01  0.84596628233E+02  0.15544887275E+04  0.15568027387E+04  0.00000000000E+00 0. -1.
<scales pt_clust_3="36.87396" pt_clust_4="129.69953" pt_clust_5="49.02175" pt_clust_6="14000.00000"></scales>
<clustering>
<clus scale="   36.874">  1  3  2 -1</clus>
<clus scale="   49.022">  1  5  2 -1</clus>
<clus scale="  129.700">  2  4  1 -1</clus>
<clus scale="   36.874">  1  3  2 -1</clus>
</clustering>
</event>
<event>
 6    0  0.1438923E+002  0.1003525E+03  0.7546771E-02  0.1279556E+00
         21   -1    0    0  505  501  0.00000000000E+00  0.00000000000E+00  0.67893836120E+02  0.67893836120E+02  0.00000000000E+00 0.  1.
         21   -1    0    0  503  502 -0.00000000000E+00 -0.00000000000E+00 -0.11806716272E+04  0.11806716272E+04  0.00000000000E+00 0.  1.
         21    1    1    2  503  501 -0.38497587019E+02 -0.64673312974E+02 -0.62560533798E+02  0.97869923912E+02  0.00000000000E+00 0.  1.
         21    1    1    2  504  506  0.13411127935E+02  0.73113727187E+02 -0.37302833717E+02  0.83168364532E+02  0.00000000000E+00 0.  1.
         21    1    1    2  505  504  0.65981600680E+02  0.64591267842E+02 -0.58190018739E+02  0.10914065141E+03  0.00000000000E+00 0.  1.
         21    1    1    2  506  502 -0.40895141596E+02 -0.73031682055E+02 -0.95472440486E+03  0.95838652350E+03  0.00000000000E+00 0.  1.
<scales pt_clust_3="75.26421" pt_clust_4="45.73312" pt_clust_5="45.73312" pt_clust_6="86.44430"></scales>
<clustering>
<clus scale="   45.733">  4  5 -1 -1</clus>
<clus scale="   75.264">  1  3  2 -1</clus>
<clus scale="   86.444">  2  6  1 -1</clus>
<clus scale="   75.264">  1  3  2 -1</clus>
</clustering>
</event>
<event>
 6    0  0.1438923E+002  0.7760712E+02  0.7546771E-02  0.1335983E+00
         21   -1    0    0  506  501  0.00000000000E+00  0.00000000000E+00  0.93978507614E+03  0.93978507614E+03  0.00000000000E+00 0. -1.
         21   -1    0    0  504  502 -0.00000000000E+00 -0.00000000000E+00 -0.35217989287E+03  0.35217989287E+03  0.00000000000E+00 0. -1.
         21    1    1    2  503  501  0.54828193470E+02 -0.59368095529E+02  0.46025643991E+03  0.46729722024E+03  0.00000000000E+00 0. -1.
         21    1    1    2  504  505 -0.21566298333E+02 -0.73977123417E+02 -0.31747423517E+03  0.32669191911E+03  0.00000000000E+00 0. -1.
         21    1    1    2  505  503  0.22861786104E+02  0.12689166588E+03  0.41401654312E+03  0.43362870536E+03  0.00000000000E+00 0. -1.
         21    1    1    2  506  502 -0.56123681241E+02  0.64535530638E+01  0.30806435411E+02  0.64347124302E+02  0.00000000000E+00 0. -1.
<scales pt_clust_3="61.60903" pt_clust_4="14000.00000" pt_clust_5="77.60712" pt_clust_6="56.49350"></scales>
<clustering>
<clus scale="   56.494">  1  6  2 -1</clus>
<clus scale="   61.609">  1  3  2 -1</clus>
<clus scale="   77.607">  1  5  2 -1</clus>
<clus scale="   56.494">  1  3  2 -1</clus>
</clustering>
</event>
<event>
 6    0  0.1438923E+002  0.2513945E+03  0.7546771E-02  0.1112427E+00
         21   -1    0    0  504  501  0.00000000000E+00  0.00000000000E+00  0.64469327901E+03  0.64469327901E+03  0.00000000000E+00 0. -1.
         21   -1    0    0  503  502 -0.00000000000E+00 -0.00000000000E+00 -0.14519591573E+04  0.14519591573E+04  0.00000000000E+00 0.  1.
         21    1    1    2  503  505 -0.13678831965E+02 -0.41848723147E+02 -0.52879192553E+02  0.68808684613E+02  0.00000000000E+00 0.  1.
         21    1    1    2  504  502 -0.23899334904E+02 -0.20137822025E+03 -0.13583230176E+04  0.13733775104E+04  0.00000000000E+00 0.  1.
         21    1    1    2  505  506  0.50902973233E+02  0.16148947606E+03  0.40996615760E+03  0.44355632556E+03  0.00000000000E+00 0. -1.
         21    1    1    2  506  501 -0.13324806364E+02  0.81737467334E+02  0.19397017431E+03  0.21090991573E+03  0.00000000000E+00 0. -1.
<scales pt_clust_3="44.02756" pt_clust_4="245.32368" pt_clust_5="38.40444" pt_clust_6="38.40444"></scales>
<clustering>
<clus scale="   38.404">  5  6 -1 -1</clus>
<clus scale="   44.028">  2  3  1 -1</clus>
<clus scale="  245.324">  2  4  1 -1</clus>
<clus scale="  251.395">  1  3  2 -1</clus>
</clustering>
</event>
<event>
 6    0  0.1438923E+002  0.1826175E+03  0.7546771E-02  0.1165294E+00
         21   -1    0    0  504  501  0.00000000000E+00  0.00000000000E+00  0.57707605312E+03  0.57707605312E+03  0.00000000000E+00 0. -1.
         21   -1    0    0  505  502 -0.00000000000E+00 -0.00000000000E+00 -0.40647156763E+03  0.40647156763E+03  0.00000000000E+00 0.  1.
         21    1    1    2  503  501  0.26384454966E+02 -0.70609852819E+02  0.84319617444E+02  0.11310034777E+03  0.00000000000E+00 0. -1.
         21    1    1    2  504  506 -0.27818615635E+02  0.13935633133E+03  0.15998845593E+03  0.21398684186E+03  0.00000000000E+00 0. -1.
         21    1    1    2  505  503  0.11028022925E+03 -0.10213715397E+03  0.26195592845E+03  0.30201760815E+03  0.00000000000E+00 0. -1.
         21    1    1    2  506  502 -0.10884606858E+03  0.33390675454E+02 -0.33565951633E+03  0.35444282297E+03  0.00000000000E+00 0.  1.
<scales pt_clust_3="44.20931" pt_clust_4="171.61515" pt_clust_5="44.20931" pt_clust_6="113.85255"></scales>
<clustering>
<clus scale="   44.209">  3  5 -1 -1</clus>
<clus scale="  113.853">  2  6  1 -1</clus>
<clus scale="  171.615">  1  4  2 -1</clus>
<clus scale="  171.615">  1  3  2 -1</clus>
</clustering>
</event>
<event>
 6    0  0.1438923E+002  0.1264546E+03  0.7546771E-02  0.1232813E+00
         21   -1    0    0  506  501  0.00000000000E+00  0.00000000000E+00  0.11649774452E+03  0.11649774452E+03  0.00000000000E+00 0. -1.
         21   -1    0    0  503  502 -0.00000000000E+00 -0.00000000000E+00 -0.41284262367E+03  0.41284262367E+03  0.00000000000E+00 0. -1.
         21    1    1    2  503  504  0.47269576126E+02  0.27367514821E+02 -0.19254375060E+03  0.20014117415E+03  0.00000000000E+00 0. -1.
         21    1    1    2  504  501  0.82886088141E+02 -0.82407906997E+02 -0.84270868823E+02  0.14409283839E+03  0.00000000000E+00 0. -1.
         21    1    1    2  505  502 -0.25765200970E+02 -0.25068757462E+02 -0.37908663866E+02  0.52243229014E+02  0.00000000000E+00 0. -1.
         21    1    1    2  506  505 -0.10439046330E+03  0.80109149638E+02  0.18378404137E+02  0.13286312664E+03  0.00000000000E+00 0. -1.
<scales pt_clust_3="36.31451" pt_clust_4="126.45462" pt_clust_5="35.94841" pt_clust_6="14000.00000"></scales>
<clustering>
<clus scale="   35.948">  2  5  1 -1</clus>
<clus scale="   36.315">  2  3  1 -1</clus>
<clus scale="  126.455">  2  4  1 -1</clus>
<clus scale="  126.455">  1  3  2 -1</clus>
</clustering>
</event>
<event>
 6    0  0.1438923E+002  0.7453471E+02  0.7546771E-02  0.1345318E+00
         21   -1    0    0  504  501  0.00000000000E+00  0.00000000000E+00  0.40133253527E+02  0.40133253527E+02  0.00000000000E+00 0.  1.
         21   -1    0    0  503  502 -0.00000000000E+00 -0.00000000000E+00 -0.12468714945E+04  0.12468714945E+04  0.00000000000E+00 0.  1.
         21    1    1    2  503  506 -0.38074105262E+02  0.70533515163E+00 -0.53680146209E+03  0.53815048518E+03  0.00000000000E+00 0.  1.
         21    1    1    2  504  502  0.76263779311E+02  0.29907788475E+02 -0.79566741495E+02  0.11419941418E+03  0.00000000000E+00 0.  1.
         21    1    1    2  505  501 -0.39390283676E+02  0.42510659129E+02 -0.22618017287E+02  0.62211938514E+02  0.00000000000E+00 0.  1.
         21    1    1    2  506  505  0.12006096266E+01 -0.73123782756E+02 -0.56775202011E+03  0.57244291017E+03  0.00000000000E+00 0.  1.
<scales pt_clust_3="38.08064" pt_clust_4="14000.00000" pt_clust_5="59.55553" pt_clust_6="74.53471"></scales>
<clustering>
<clus scale="   38.081">  2  3  1 -1</clus>
<clus scale="   59.556">  1  5  2 -1</clus>
<clus scale="   74.535">  2  6  1 -1</clus>
<clus scale="   59.556">  1  3  2 -1</clus>
</clustering>
</event>
<event>
 6    0  0.1438923E+002  0.1438534E+03  0.7546771E-02  0.1208236E+00
         21   -1    0    0  506  501  0.00000000000E+00  0.00000000000E+00  0.54292456723E+03  0.54292456723E+03  0.00000000000E+00 0.  1.
         21   -1    0    0  504  502 -0.00000000000E+00 -0.00000000000E+00 -0.97900540189E+03  0.97900540189E+03  0.00000000000E+00 0.  1.
         21    1    1    2  503  501 -0.29141872290E+02  0.16436072558E+02  0.31194124139E+03  0.31373034804E+03  0.00000000000E+00 0.  1.
         21    1    1    2  504  503 -0.41598567652E+02  0.20268850736E+02  0.14987943876E+03  0.15686017118E+03  0.00000000000E+00 0.  1.
         21    1    1    2  505  502  0.14924504263E+03 -0.54158092029E+01 -0.94354509695E+03  0.95529093145E+03  0.00000000000E+00 0.  1.
         21    1    1    2  506  505 -0.78504602685E+02 -0.31289114091E+02  0.45643582146E+02  0.96048518440E+02  0.00000000000E+00 0. -1.
<scales pt_clust_3="33.45733" pt_clust_4="68.54821" pt_clust_5="14000.00000" pt_clust_6="143.85339"></scales>
<clustering>
<clus scale="   33.457">  1  3  2 -1</clus>
<clus scale="   68.548">  1  4  2 -1</clus>
<clus scale="  143.853">  1  6  2 -1</clus>
<clus scale="   33.457">  1  3  2 -1</clus>
</clustering>
</event>
<event>
 6    0  0.1438923E+002  0.9123233E+02  0.7546771E-02  0.1299895E+00
         21   -1    0    0  504  501  0.00000000000E+00  0.00000000000E+00  0.36526167793E+03  0.36526167793E+03  0.00000000000E+00 0. -1.
         21   -1    0    0  506  502 -0.00000000000E+00 -0.00000000000E+00 -0.64755212993E+03  0.64755212993E+03  0.00000000000E+00 0.  1.
         21    1    1    2  503  501  0.86904559834E+00  0.78089103773E+02  0.23664628988E+02  0.81600723241E+02  0.00000000000E+00 0.  1.
         21    1    1    2  504  505 -0.80327479443E+02 -0.52457803364E+02  0.22093017889E+03  0.24086192939E+03  0.00000000000E+00 0. -1.
         21    1    1    2  505  502  0.14739302880E+03 -0.81079596033E+02 -0.12654540550E+02  0.16869719389E+03  0.00000000000E+00 0. -1.
         21    1    1    2  506  503 -0.67934594952E+02  0.55448295624E+02 -0.51423071932E+03  0.52165396133E+03  0.00000000000E+00 0.  1.
<scales pt_clust_3="78.09394" pt_clust_4="79.85616" pt_clust_5="14000.00000" pt_clust_6="91.23233"></scales>
<clustering>
<clus scale="   78.094">  1  3  2 -1</clus>
<clus scale="   79.856">  1  4  2 -1</clus>
<clus scale="   91.232">  2  6  1 -1</clus>
<clus scale="   78.094">  1  3  2 -1</clus>
</clustering>
</event>
<event>
 6    0  0.1438923E+002  0.3170948E+03  0.7546771E-02  0.1076994E+00
         21   -1    0    0  505  501  0.00000000000E+00  0.00000000000E+00  0.17334661884E+04  0.17334661884E+04  0.00000000000E+00 0.  1.
         21   -1    0    0  503  502 -0.00000000000E+00 -0.00000000000E+00 -0.28200678037E+03  0.28200678037E+03  0.00000000000E+00 0.  1.
         21    1    1    2  503  506  0.26768311489E+03  0.26635049046E+03  0.52083991248E+03  0.64332810307E+03  0.00000000000E+00 0.  1.
         21    1    1    2  504  502 -0.17162796239E+03 -0.22628698251E+03 -0.61445904286E+02  0.29058140869E+03  0.00000000000E+00 0.  1.
         21    1    1    2  505  504 -0.21106946471E+03 -0.15436776109E+03  0.70397919368E+03  0.75097698349E+03  0.00000000000E+00 0.  1.
         21    1    1    2  506  501  0.11501431220E+03  0.11430425313E+03  0.28808620619E+03  0.33058647355E+03  0.00000000000E+00 0.  1.
<scales pt_clust_3="34.63014" pt_clust_4="312.66011" pt_clust_5="261.49517" pt_clust_6="34.63014"></scales>
<clustering>
<clus scale="   34.630">  3  6 -1 -1</clus>
<clus scale="  261.495">  1  5  2 -1</clus>
<clus scale="  312.660">  2  4  1 -1</clus>
<clus scale="  261.495">  1  3  2 -1</clus>
</clustering>
</event>
<event>
 6    0  0.1438923E+002  0.2915690E+03  0.7546771E-02  0.1089533E+00
         21   -1    0    0  506  501  0.00000000000E+00  0.00000000000E+00  0.38105674942E+03  0.38105674942E+03  0.00000000000E+00 0. -1.
         21   -1    0    0  505  502 -0.00000000000E+00 -0.00000000000E+00 -0.13141468889E+04  0.13141468889E+04  0.00000000000E+00 0. -1.
         21    1    1    2  503  502 -0.14382363254E+03 -0.18632147921E+03  0.15116938250E+03  0.27973757899E+03  0.00000000000E+00 0. -1.
         21    1    1    2  504  501  0.86836400762E+02 -0.31117049222E+02  0.40955273655E+02  0.10092653610E+03  0.00000000000E+00 0. -1.
         21    1    1    2  505  504  0.72669833765E+02  0.27584972160E+03 -0.11912879419E+04  0.12249656870E+04  0.00000000000E+00 0. -1.
         21    1    1    2  506  503 -0.15682601986E+02 -0.58411193166E+02  0.66073146262E+02  0.89573836298E+02  0.00000000000E+00 0. -1.
<scales pt_clust_3="31.49458" pt_clust_4="92.24333" pt_clust_5="284.87224" pt_clust_6="31.49458"></scales>
<clustering>
<clus scale="   31.495">  3  6 -1 -1</clus>
<clus scale="   92.243">  1  4  2 -1</clus>
<clus scale="  284.872">  2  5  1 -1</clus>
<clus scale="   92.243">  1  3  2 -1</clus>
</clustering>
</event>
<event>
 6    0  0.1438923E+002  0.2108275E+03  0.7546771E-02  0.1140912E+00
         21   -1    0    0  503  501  0.00000000000E+00  0.00000000000E+00  0.14226872314E+04  0.14226872314E+04  0.00000000000E+00 0.  1.
         21   -1    0    0  506  502 -0.00000000000E+00 -0.00000000000E+00 -0.79532874947E+02  0.79532874947E+02  0.00000000000E+00 0.  1.
         21    1    1    2  503  505 -0.24553169622E+03 -0.57417673814E+02  0.92907368046E+03  0.96268401193E+03  0.00000000000E+00 0.  1.
         21    1    1    2  504  501  0.21971477477E+02  0.57856995780E+02  0.16771382055E+03  0.17876829525E+03  0.00000000000E+00 0.  1.
         21    1    1    2  505  502  0.56038016018E+02 -0.44018144564E+02  0.16726096314E+02  0.73195755259E+02  0.00000000000E+00 0.  1.
         21    1    1    2  506  504  0.16752220272E+03  0.43578822598E+02  0.22964075917E+03  0.28757204394E+03  0.00000000000E+00 0.  1.
<scales pt_clust_3="210.82753" pt_clust_4="61.88843" pt_clust_5="70.62676" pt_clust_6="14000.00000"></scales>
<clustering>
<clus scale="   61.888">  1  4  2 -1</clus>
<clus scale="   70.627">  2  5  1 -1</clus>
<clus scale="  210.828">  1  3  2 -1</clus>
<clus scale="   61.888">  1  3  2 -1</clus>
</clustering>
</event>
<event>
 6    0  0.1438923E+002  0.2007360E+03  0.7546771E-02  0.1149120E+00
         21   -1    0    0  505  501  0.00000000000E+00  0.00000000000E+00  0.29346138470E+03  0.29346138470E+03  0.00000000000E+00 0. -1.
         21   -1    0    0  506  502 -0.00000000000E+00 -0.00000000000E+00 -0.47928889665E+03  0.47928889665E+03  0.00000000000E+00 0.  1.
         21    1    1    2  503  501 -0.12479441871E+03 -0.41725148820E+01  0.16800450348E+03  0.20932407891E+03  0.00000000000E+00 0. -1.
         21    1    1    2  504  503 -0.53750160939E+02 -0.36629799056E+01  0.28544213841E+02  0.60969413369E+02  0.00000000000E+00 0. -1.
         21    1    1    2  505  502 -0.10131936252E+02  0.64265325928E+02  0.76740438857E+01  0.65510145767E+02  0.00000000000E+00 0.  1.
         21    1    1    2  506  504  0.18867651590E+03 -0.56429831140E+02 -0.39005027317E+03  0.43694664330E+03  0.00000000000E+00 0.  1.
<scales pt_clust_3="32.76162" pt_clust_4="32.76162" pt_clust_5="65.05911" pt_clust_6="194.44107"></scales>
<clustering>
<clus scale="   32.762">  3  4 -1 -1</clus>
<clus scale="   65.059">  1  5  2 -1</clus>
<clus scale="  194.441">  2  6  1 -1</clus>
<clus scale="   65.059">  1  3  2 -1</clus>
</clustering>
</event>
<event>
 6    0  0.1438923E+002  0.1701205E+03  0.7546771E-02  0.1177722E+00
         21   -1    0    0  503  501  0.00000000000E+00  0.00000000000E+00  0.61089100638E+03  0.61089100638E+03  0.00000000000E+00 0. -1.
         21   -1    0    0  506  502 -0.00000000000E+00 -0.00000000000E+00 -0.66883574581E+03  0.66883574581E+03  0.00000000000E+00 0.  1.
         21    1    1    2  503  504 -0.15556959322E+03 -0.54223256763E+02  0.53244181591E+03  0.55734760001E+03  0.00000000000E+00 0. -1.
         21    1    1    2  504  505  0.74311773601E+02  0.61474033784E+02  0.35344565701E+01  0.96507973291E+02  0.00000000000E+00 0. -1.
         21    1    1    2  505  502  0.47313411005E+02  0.29495156008E+00 -0.20780263119E+02  0.51676543931E+02  0.00000000000E+00 0. -1.
         21    1    1    2  506  501  0.33944408611E+02 -0.75457285814E+01 -0.57314074879E+03  0.57419463496E+03  0.00000000000E+00 0.  1.
<scales pt_clust_3="160.89705" pt_clust_4="41.34036" pt_clust_5="41.34036" pt_clust_6="34.77299"></scales>
<clustering>
<clus scale="   34.773">  2  6  1 -1</clus>
<clus scale="   41.340">  4  5 -1 -1</clus>
<clus scale="  160.897">  1  3  2 -1</clus>
<clus scale="  160.897">  1  3  2 -1</clus>
</clustering>
</event>
<event>
 6    0  0.1438923E+002  0.2405997E+03  0.7546771E-02  0.1119394E+00
         21   -1    0    0  505  501  0.00000000000E+00  0.00000000000E+00  0.48463363880E+02  0.48463363880E+02  0.00000000000E+00 0. -1.
         21   -1    0    0  506  502 -0.00000000000E+00 -0.00000000000E+00 -0.19589085329E+04  0.19589085329E+04  0.00000000000E+00 0. -1.
         21    1    1    2  503  501  0.34085002854E+02  0.24654955882E+02 -0.86829509065E+02  0.96483251985E+02  0.00000000000E+00 0. -1.
         21    1    1    2  504  502  0.52464032721E+02 -0.16086724005E+03 -0.27683112904E+03  0.32444755763E+03  0.00000000000E+00 0. -1.
         21    1    1    2  505  504  0.63640084153E+02 -0.32691500316E+02 -0.10506276153E+03  0.12711010331E+03  0.00000000000E+00 0. -1.
         21    1    1    2  506  503 -0.15018911973E+03  0.16890378448E+03 -0.14417217694E+04  0.14593309839E+04  0.00000000000E+00 0. -1.
<scales pt_clust_3="42.06726" pt_clust_4="57.84388" pt_clust_5="57.84388" pt_clust_6="225.32636"></scales>
<clustering>
<clus scale="   42.067">  1  3  2 -1</clus>
<clus scale="   57.844">  4  5 -1 -1</clus>
<clus scale="  225.326">  2  6  1 -1</clus>
<clus scale="   42.067">  1  3  2 -1</clus>
</clustering>
</event>
<event>
 6    0  0.1438923E+002  0.9673479E+02  0.7546771E-02  0.1287316E+00
         21   -1    0    0  504  501  0.00000000000E+00  0.00000000000E+00  0.25742565203E+03  0.25742565203E+03  0.00000000000E+00 0. -1.
         21   -1    0    0  503  502 -0.00000000000E+00 -0.00000000000E+00 -0.28643797533E+03  0.28643797533E+03  0.00000000000E+00 0. -1.
         21    1    1    2  503  506  0.84889309482E+02 -0.38106339709E+02  0.11993053408E+03  0.15179466722E+03  0.00000000000E+00 0. -1.
         21    1    1    2  504  505 -0.23380313043E+01  0.29969062501E+02  0.13331777922E+02  0.32883847101E+02  0.00000000000E+00 0. -1.
         21    1    1    2  505  502 -0.72028284228E+02  0.65399164671E+02 -0.24179274068E+03  0.26063164411E+03  0.00000000000E+00 0. -1.
         21    1    1    2  506  501 -0.10522993949E+02 -0.57261887463E+02  0.79518105370E+02  0.98553468935E+02  0.00000000000E+00 0. -1.
<scales pt_clust_3="96.73479" pt_clust_4="30.06012" pt_clust_5="14000.00000" pt_clust_6="47.27229"></scales>
<clustering>
<clus scale="   30.060">  1  4  2 -1</clus>
<clus scale="   47.272">  1  6  2 -1</clus>
<clus scale="   96.735">  1  3  2 -1</clus>
<clus scale="   30.060">  1  3  2 -1</clus>
</clustering>
</event>
<event>
 6    0  0.1438923E+002  0.8709252E+02  0.7546771E-02  0.1310049E+00
         21   -1    0    0  504  501  0.00000000000E+00  0.00000000000E+00  0.19823359176E+03  0.19823359176E+03  0.00000000000E+00 0.  1.
         21   -1    0    0  506  502 -0.00000000000E+00 -0.00000000000E+00 -0.37437817675E+03  0.37437817675E+03  0.00000000000E+00 0.  1.
         21    1    1    2  503  505 -0.95035968518E+02 -0.77686363001E+02  0.47895232954E+02  0.13176099441E+03  0.00000000000E+00 0.  1.
         21    1    1    2  504  503  0.70277587464E+02  0.27470112752E+02  0.77750702344E+02  0.10834536497E+03  0.00000000000E+00 0.  1.
         21    1    1    2  505  502  0.60277953383E+02  0.60257459118E+02 -0.27209432981E+03  0.28513105295E+03  0.00000000000E+00 0.  1.
         21    1    1    2  506  501 -0.35519572328E+02 -0.10041208869E+02 -0.29696190480E+02  0.47374356175E+02  0.00000000000E+00 0.  1.
<scales pt_clust_3="14000.00000" pt_clust_4="87.09252" pt_clust_5="60.38029" pt_clust_6="36.91160"></scales>
<clustering>
<clus scale="   36.912">  2  6  1 -1</clus>
<clus scale="   60.380">  2  5  1 -1</clus>
<clus scale="   87.093">  1  4  2 -1</clus>
<clus scale="   87.093">  1  3  2 -1</clus>
</clustering>
</event>
<event>
 6    0  0.1438923E+002  0.1328729E+03  0.7546771E-02  0.1223254E+00
         21   -1    0    0  505  501  0.00000000000E+00  0.00000000000E+00  0.48576965430E+03  0.48576965430E+03  0.00000000000E+00 0. -1.
         21   -1    0    0  503  502 -0.00000000000E+00 -0.00000000000E+00 -0.11788131848E+03  0.11788131848E+03  0.00000000000E+00 0. -1.
         21    1    1    2  503  504  0.33210244175E+02  0.32197585337E+02 -0.20358845630E+02  0.50537979927E+02  0.00000000000E+00 0. -1.
         21    1    1    2  504  506  0.28351329381E+01  0.78190457736E+02 -0.68393074252E+01  0.78540192168E+02  0.00000000000E+00 0. -1.
         21    1    1    2  505  502  0.23453983831E+02 -0.17294610507E+03  0.23540081299E+03  0.29304263746E+03  0.00000000000E+00 0. -1.
         21    1    1    2  506  501 -0.59499360944E+02  0.62558061999E+02  0.15968567589E+03  0.18153016322E+03  0.00000000000E+00 0. -1.
<scales pt_clust_3="37.95422" pt_clust_4="37.95422" pt_clust_5="123.36354" pt_clust_6="86.33473"></scales>
<clustering>
<clus scale="   37.954">  3  4 -1 -1</clus>
<clus scale="   86.335">  1  6  2 -1</clus>
<clus scale="  123.364">  1  5  2 -1</clus>
<clus scale="   86.335">  1  3  2 -1</clus>
</clustering>
</event>
<event>
 6    0  0.1438923E+002  0.1609479E+03  0.7546771E-02  0.1187631E+00
         21   -1    0    0  503  501  0.00000000000E+00  0.00000000000E+00  0.81179611125E+03  0.81179611125E+03  0.00000000000E+00 0.  1.
         21   -1    0    0  504  502 -0.00000000000E+00 -0.00000000000E+00 -0.23135782686E+03  0.23135782686E+03  0.00000000000E+00 0.  1.
         21    1    1    2  503  505  0.56325442107E+02 -0.18771408062E+02  0.14413778084E+03  0.15588656470E+03  0.00000000000E+00 0.  1.
         21    1    1    2  504  506 -0.58958001483E+02 -0.10522556757E+02 -0.18600077335E+03  0.19540485620E+03  0.00000000000E+00 0.  1.
         21    1    1    2  505  502  0.79302207551E+02 -0.64141966294E+02  0.53015589321E+03  0.53987804463E+03  0.00000000000E+00 0.  1.
         21    1    1    2  506  501 -0.76669648175E+02  0.93435931113E+02  0.92145383680E+02  0.15198447259E+03  0.00000000000E+00 0.  1.
<scales pt_clust_3="49.13167" pt_clust_4="59.88965" pt_clust_5="49.13167" pt_clust_6="147.50353"></scales>
<clustering>
<clus scale="   49.132">  3  5 -1 -1</clus>
<clus scale="   59.890">  2  4  1 -1</clus>
<clus scale="  147.504">  2  6  1 -1</clus>
<clus scale="  160.948">  1  3  2 -1</clus>
</clustering>
</event>
<event>
 6    0  0.1438923E+002  0.8073837E+02  0.7546771E-02  0.1326969E+00
         21   -1    0    0  505  501  0.00000000000E+00  0.00000000000E+00  0.80460210921E+03  0.80460210921E+03  0.00000000000E+00 0. -1.
         21   -1    0    0  503  502 -0.00000000000E+00 -0.00000000000E+00 -0.15511986193E+03  0.15511986193E+03  0.00000000000E+00 0.  1.
         21    1    1    2  503  506  0.21695984971E+02  0.76421823435E+02 -0.12811696924E+03  0.15074803040E+03  0.00000000000E+00 0.  1.
         21    1    1    2  504  502  0.26420911003E+02  0.26974536684E+02  0.16042308476E+03  0.16480672405E+03  0.00000000000E+00 0. -1.
         21    1    1    2  505  504 -0.10910764219E+01  0.33919945439E+02  0.66180387569E+02  0.74374705681E+02  0.00000000000E+00 0. -1.
         21    1    1    2  506  501 -0.47025819552E+02 -0.13731630556E+03  0.55099574420E+03  0.56979251101E+03  0.00000000000E+00 0. -1.
<scales pt_clust_3="80.73837" pt_clust_4="43.29715" pt_clust_5="33.93749" pt_clust_6="14000.00000"></scales>
<clustering>
<clus scale="   33.937">  1  5  2 -1</clus>
<clus scale="   43.297">  1  4  2 -1</clus>
<clus scale="   80.738">  2  3  1 -1</clus>
<clus scale="   33.937">  1  3  2 -1</clus>
</clustering>
</event>
<event>
 6    0  0.1438923E+002  0.1117458E+03  0.7546771E-02  0.1257371E+00
         21   -1    0    0  505  501  0.00000000000E+00  0.00000000000E+00  0.19397989874E+03  0.19397989874E+03  0.00000000000E+00 0. -1.
         21   -1    0    0  501  502 -0.00000000000E+00 -0.00000000000E+00 -0.68383809032E+03  0.68383809032E+03  0.00000000000E+00 0.  1.
         21    1    1    2  503  506  0.26110848513E+02  0.62459153087E+02  0.36514105538E+02  0.76916851974E+02  0.00000000000E+00 0.  1.
         21    1    1    2  504  503 -0.14013526693E+02  0.42269337661E+02  0.28505120644E+02  0.52873601538E+02  0.00000000000E+00 0. -1.
         21    1    1    2  505  504 -0.57298458483E+02 -0.94499659839E+01  0.83106823053E+02  0.10138618860E+03  0.00000000000E+00 0. -1.
         21    1    1    2  506  502  0.45201136664E+02 -0.95278524763E+02 -0.63798424082E+03  0.64664134694E+03  0.00000000000E+00 0.  1.
<scales pt_clust_3="31.45025" pt_clust_4="31.45025" pt_clust_5="58.07250" pt_clust_6="104.80205"></scales>
<clustering>
<clus scale="   31.450">  3  4 -1 -1</clus>
<clus scale="   58.072">  1  5  2 -1</clus>
<clus scale="  104.802">  2  6  1 -1</clus>
<clus scale="   58.072">  1  3  2 -1</clus>
</clustering>
</event>
<event>
 6    0  0.1438923E+002  0.1033892E+03  0.7546771E-02  0.1273326E+00
         21   -1    0    0  506  501  0.00000000000E+00  0.00000000000E+00  0.87058843267E+03  0.87058843267E+03  0.00000000000E+00 0.  1.
         21   -1    0    0  505  502 -0.00000000000E+00 -0.00000000000E+00 -0.39406038159E+02  0.39406038159E+02  0.00000000000E+00 0.  1.
         21    1    1    2  503  501  0.95286002141E+02 -0.18144821395E+02  0.38398696109E+03  0.39604878870E+03  0.00000000000E+00 0.  1.
         21    1    1    2  504  502 -0.23201485731E+02  0.36316407483E+02  0.13139746179E+02  0.45053782552E+02  0.00000000000E+00 0.  1.
         21    1    1    2  505  503  0.45116665173E+02  0.19376656352E+02  0.78011522976E+02  0.92177904103E+02  0.00000000000E+00 0.  1.
         21    1    1    2  506  504 -0.11720118158E+03 -0.37548242440E+02  0.35604416427E+03  0.37671399547E+03  0.00000000000E+00 0.  1.
<scales pt_clust_3="103.38925" pt_clust_4="43.09513" pt_clust_5="48.71508" pt_clust_6="14000.00000"></scales>
<clustering>
<clus scale="   43.095">  2  4  1 -1</clus>
<clus scale="   48.715">  2  5  1 -1</clus>
<clus scale="  103.389">  1  3  2 -1</clus>
<clus scale="  103.389">  1  3  2 -1</clus>
</clustering>
</event>
<event>
 6    0  0.1438923E+002  0.2065965E+03  0.7546771E-02  0.1144290E+00
         21   -1    0    0  506  501  0.00000000000E+00  0.00000000000E+00  0.20555050889E+03  0.20555050889E+03  0.00000000000E+00 0. -1.
         21   -1    0    0  501  502 -0.00000000000E+00 -0.00000000000E+00 -0.62072966695E+03  0.62072966695E+03  0.00000000000E+00 0.  1.
         21    1    1    2  503  502  0.36726090479E+02  0.16201949706E+02 -0.35546436227E+03  0.35772366673E+03  0.00000000000E+00 0.  1.
         21    1    1    2  504  505 -0.77095696837E+02  0.14028217970E+03  0.48352169338E+02  0.16721473826E+03  0.00000000000E+00 0. -1.
         21    1    1    2  505  503  0.79994179718E+02 -0.17606390894E+03 -0.14662710356E+03  0.24268719851E+03  0.00000000000E+00 0. -1.
         21    1    1    2  506  504 -0.39624573360E+02  0.19579779543E+02  0.38560138428E+02  0.58654572341E+02  0.00000000000E+00 0. -1.
<scales pt_clust_3="40.14111" pt_clust_4="34.39190" pt_clust_5="195.95510" pt_clust_6="34.39190"></scales>
<clustering>
<clus scale="   34.392">  4  6 -1 -1</clus>
<clus scale="   40.141">  2  3  1 -1</clus>
<clus scale="  195.955">  2  5  1 -1</clus>
<clus scale="  206.597">  1  3  2 -1</clus>
</clustering>
</event>
<event>
 6    0  0.1438923E+002  0.2017699E+03  0.7546771E-02  0.1148254E+00
         21   -1    0    0  504  501  0.00000000000E+00  0.00000000000E+00  0.60822732483E+03  0.60822732483E+03  0.00000000000E+00 0. -1.
         21   -1    0    0  506  502 -0.00000000000E+00 -0.00000000000E+00 -0.56483889735E+03  0.56483889735E+03  0.00000000000E+00 0. -1.
         21    1    1    2  503  502 -0.37178527569E+02 -0.19931752750E+03  0.95623014059E+02  0.22417288083E+03  0.00000000000E+00 0. -1.
         21    1    1    2  504  503  0.17907596711E+02  0.34513143589E+02  0.16577173744E+03  0.17027069048E+03  0.00000000000E+00 0. -1.
         21    1    1    2  505  501 -0.11526768316E+03  0.10129513127E+02  0.24572164561E+03  0.27160333749E+03  0.00000000000E+00 0. -1.
         21    1    1    2  506  505  0.13453861402E+03  0.15467487079E+03 -0.46372796964E+03  0.50701931338E+03  0.00000000000E+00 0. -1.
<scales pt_clust_3="14000.00000" pt_clust_4="38.88238" pt_clust_5="109.07014" pt_clust_6="201.76992"></scales>
<clustering>
<clus scale="   38.882">  1  4  2 -1</clus>
<clus scale="  109.070">  1  5  2 -1</clus>
<clus scale="  201.770">  2  6  1 -1</clus>
<clus scale="   38.882">  1  3  2 -1</clus>
</clustering>
</event>
<event>
 6    0  0.1438923E+002  0.8656472E+02  0.7546771E-02  0.1311391E+00
         21   -1    0    0  506  501  0.00000000000E+00  0.00000000000E+00  0.45813176804E+03  0.45813176804E+03  0.00000000000E+00 0. -1.
         21   -1    0    0  503  502 -0.00000000000E+00 -0.00000000000E+00 -0.23873785027E+03  0.23873785027E+03  0.00000000000E+00 0.  1.
         21    1    1    2  503  504  0.60331062588E+02  0.32053457424E+01 -0.14523199136E-01  0.60416153182E+02  0.00000000000E+00 0. -1.
         21    1    1    2  504  501 -0.33114654845E+02  0.48808658345E+02  0.80213884247E+02  0.99564716244E+02  0.00000000000E+00 0.  1.
         21    1    1    2  505  502  0.41232049009E+02  0.24158833927E+02 -0.18803300786E+03  0.19401067797E+03  0.00000000000E+00 0.  1.
         21    1    1    2  506  505 -0.68448456753E+02 -0.76172838014E+02  0.32722756459E+03  0.34287807091E+03  0.00000000000E+00 0. -1.
<scales pt_clust_3="86.56472" pt_clust_4="59.13748" pt_clust_5="47.78840" pt_clust_6="14000.00000"></scales>
<clustering>
<clus scale="   47.788">  2  5  1 -1</clus>
<clus scale="   59.137">  1  4  2 -1</clus>
<clus scale="   86.565">  2  3  1 -1</clus>
<clus scale="   59.137">  1  3  2 -1</clus>
</clustering>
</event>
<event>
 6    0  0.1438923E+002  0.1440612E+03  0.7546771E-02  0.1207966E+00
         21   -1    0    0  506  501  0.00000000000E+00  0.00000000000E+00  0.14034212397E+04  0.14034212397E+04  0.00000000000E+00 0.  1.
         21   -1    0    0  503  502 -0.00000000000E+00 -0.00000000000E+00 -0.25992376078E+03  0.25992376078E+03  0.00000000000E+00 0.  1.
         21    1    1    2  503  504 -0.79922637171E+02 -0.31743159083E+02  0.46796572721E+02  0.97903908499E+02  0.00000000000E+00 0.  1.
         21    1    1    2  504  501 -0.59596781335E+02  0.13714116098E+01  0.93089773389E+02  0.11054122772E+03  0.00000000000E+00 0.  1.
         21    1    1    2  505  502  0.23966337846E+02 -0.30705311604E+02 -0.22045800319E+03  0.22387258135E+03  0.00000000000E+00 0.  1.
         21    1    1    2  506  505  0.11555308066E+03  0.61077059078E+02  0.12240691359E+04  0.12310272829E+04  0.00000000000E+00 0.  1.
<scales pt_clust_3="47.95687" pt_clust_4="47.95687" pt_clust_5="38.95127" pt_clust_6="131.37940"></scales>
<clustering>
<clus scale="   38.951">  2  5  1 -1</clus>
<clus scale="   47.957">  3  4 -1 -1</clus>
<clus scale="  131.379">  1  6  2 -1</clus>
<clus scale="  131.379">  1  3  2 -1</clus>
</clustering>
</event>
<event>
 6    0  0.1438923E+002  0.6795245E+02  0.7546771E-02  0.1367198E+00
         21   -1    0    0  503  501  0.00000000000E+00  0.00000000000E+00  0.16842591128E+03  0.16842591128E+03  0.00000000000E+00 0.  1.
         21   -1    0    0  504  502 -0.00000000000E+00 -0.00000000000E+00 -0.45611844554E+03  0.45611844554E+03  0.00000000000E+00 0. -1.
         21    1    1    2  503  502 -0.27093158325E+02  0.37759307999E+02  0.23789473674E+02  0.52208654707E+02  0.00000000000E+00 0. -1.
         21    1    1    2  504  506 -0.47528380332E+02 -0.45886474108E+02 -0.34272673675E+03  0.34903600319E+03  0.00000000000E+00 0. -1.
         21    1    1    2  505  501 -0.43841877766E+02  0.46596561447E+01  0.82995693549E+02  0.93979294470E+02  0.00000000000E+00 0.  1.
         21    1    1    2  506  505  0.11846341642E+03  0.34675099640E+01 -0.51750964730E+02  0.12932040445E+03  0.00000000000E+00 0. -1.
<scales pt_clust_3="62.41452" pt_clust_4="67.95245" pt_clust_5="44.08880" pt_clust_6="14000.00000"></scales>
<clustering>
<clus scale="   44.089">  1  5  2 -1</clus>
<clus scale="   62.415">  1  3  2 -1</clus>
<clus scale="   67.952">  2  4  1 -1</clus>
<clus scale="   44.089">  1  3  2 -1</clus>
</clustering>
</event>
<event>
 6    0  0.1438923E+002  0.1496379E+03  0.7546771E-02  0.1200919E+00
         21   -1    0    0  504  501  0.00000000000E+00  0.00000000000E+00  0.19346269075E+04  0.19346269075E+04  0.00000000000E+00 0. -1.
         21   -1    0    0  503  502 -0.00000000000E+00 -0.00000000000E+00 -0.15417668625E+04  0.15417668625E+04  0.00000000000E+00 0.  1.
         21    1    1    2  503  501 -0.11341681838E+03 -0.40579340142E+02  0.41358914996E+02  0.12736018761E+03  0.00000000000E+00 0. -1.
         21    1    1    2  504  505  0.46377332344E+02  0.85683069293E+02  0.82236555639E+03  0.82811687198E+03  0.00000000000E+00 0.  1.
         21    1    1    2  505  506  0.10215886658E+03  0.94142904677E+02  0.10168456549E+04  0.10262915796E+04  0.00000000000E+00 0. -1.
         21    1    1    2  506  502 -0.35119380543E+02 -0.13924663383E+03 -0.14877100813E+04  0.14946251309E+04  0.00000000000E+00 0.  1.
<scales pt_clust_3="120.45770" pt_clust_4="34.85687" pt_clust_5="34.85687" pt_clust_6="143.73257"></scales>
<clustering>
<clus scale="   34.857">  4  5 -1 -1</clus>
<clus scale="  120.458">  1  3  2 -1</clus>
<clus scale="  143.733">  2  6  1 -1</clus>
<clus scale="  120.458">  1  3  2 -1</clus>
</clustering>
</event>
<event>
 6    0  0.1438923E+002  0.8972629E+02  0.7546771E-02  0.1303516E+00
         21   -1    0    0  506  501  0.00000000000E+00  0.00000000000E+00  0.10624948893E+03  0.10624948893E+03  0.00000000000E+00 0. -1.
         21   -1    0    0  505  502 -0.00000000000E+00 -0.00000000000E+00 -0.63987998196E+03  0.63987998196E+03  0.00000000000E+00 0. -1.
         21    1    1    2  503  502 -0.84175466155E+02 -0.41420287265E+02 -0.56389446463E+03  0.57164509666E+03  0.00000000000E+00 0. -1.
         21    1    1    2  504  501  0.61544242790E+02  0.19314190571E+02  0.43722986316E+02  0.77925806447E+02  0.00000000000E+00 0. -1.
         21    1    1    2  505  504  0.52306109035E+02  0.35032051277E+02 -0.12461984744E+02  0.64175343574E+02  0.00000000000E+00 0. -1.
         21    1    1    2  506  503 -0.29674885670E+02 -0.12925954583E+02 -0.99702996913E+00  0.32383224209E+02  0.00000000000E+00 0. -1.
<scales pt_clust_3="14000.00000" pt_clust_4="42.94920" pt_clust_5="89.72629" pt_clust_6="32.36787"></scales>
<clustering>
<clus scale="   32.368">  1  6  2 -1</clus>
<clus scale="   42.949">  1  4  2 -1</clus>
<clus scale="   89.726">  1  5  2 -1</clus>
<clus scale="   32.368">  1  3  2 -1</clus>
</clustering>
</event>
<event>
 6    0  0.1438923E+002  0.2757776E+03  0.7546771E-02  0.1098018E+00
         21   -1    0    0  505  501  0.00000000000E+00  0.00000000000E+00  0.15569342050E+03  0.15569342050E+03  0.00000000000E+00 0.  1.
         21   -1    0    0  503  502 -0.00000000000E+00 -0.00000000000E+00 -0.14560073134E+04  0.14560073134E+04  0.00000000000E+00 0.  1.
         21    1    1    2  503  506 -0.25174439092E+03 -0.37588408425E+02 -0.11142273161E+04  0.11429307235E+04  0.00000000000E+00 0.  1.
         21    1    1    2  504  502  0.43621481047E+02 -0.26014767472E+02 -0.55200639823E+02  0.75011414947E+02  0.00000000000E+00 0. -1.
         21    1    1    2  505  504  0.26195734651E+03 -0.26903208887E+02 -0.71536716045E+02  0.27287897644E+03  0.00000000000E+00 0.  1.
         21    1    1    2  506  501 -0.53834436643E+02  0.90506384784E+02 -0.59349220854E+02  0.12087961892E+03  0.00000000000E+00 0. -1.
<scales pt_clust_3="259.35816" pt_clust_4="41.16660" pt_clust_5="41.16660" pt_clust_6="105.30694"></scales>
<clustering>
<clus scale="   41.167">  4  5 -1 -1</clus>
<clus scale="  105.307">  1  6  2 -1</clus>
<clus scale="  259.358">  2  3  1 -1</clus>
<clus scale="  105.307">  1  3  2 -1</clus>
</clustering>
</event>
<event>
 6    0  0.1438923E+002  0.1072442E+03  0.7546771E-02  0.1265760E+00
         21   -1    0    0  506  501  0.00000000000E+00  0.00000000000E+00  0.79665220422E+03  0.79665220422E+03  0.00000000000E+00 0.  1.
         21   -1    0    0  504  502 -0.00000000000E+00 -0.00000000000E+00 -0.86117903605E+03  0.86117903605E+03  0.00000000000E+00 0.  1.
         21    1    1    2  503  505 -0.10911154450E+02  0.64420061011E+02  0.38429097171E+03  0.38980578303E+03  0.00000000000E+00 0.  1.
         21    1    1    2  504  501 -0.34780914057E+02  0.44233434532E+01  0.23366562664E+02  0.42134002903E+02  0.00000000000E+00 0.  1.
         21    1    1    2  505  502  0.92458035273E+02 -0.55461809973E+02 -0.84402459605E+03  0.85088308209E+03  0.00000000000E+00 0.  1.
         21    1    1    2  506  503 -0.46765966766E+02 -0.13381594491E+02  0.37184022984E+03  0.37500837224E+03  0.00000000000E+00 0.  1.
<scales pt_clust_3="107.24419" pt_clust_4="35.06106" pt_clust_5="14000.00000" pt_clust_6="64.74763"></scales>
<clustering>
<clus scale="   35.061">  1  4  2 -1</clus>
<clus scale="   64.748">  1  6  2 -1</clus>
<clus scale="  107.244">  1  3  2 -1</clus>
<clus scale="   35.061">  1  3  2 -1</clus>
</clustering>
</event>
<event>
 6    0  0.1438923E+002  0.1848975E+03  0.7546771E-02  0.1163146E+00
         21   -1    0    0  505  501  0.00000000000E+00  0.00000000000E+00  0.49877007148E+03  0.49877007148E+03  0.00000000000E+00 0. -1.
         21   -1    0    0  503  502 -0.00000000000E+00 -0.00000000000E+00 -0.12953041754E+03  0.12953041754E+03  0.00000000000E+00 0. -1.
         21    1    1    2  503  504  0.62850074640E+02 -0.99610129343E+01 -0.42335181763E+02  0.76430499644E+02  0.00000000000E+00 0. -1.
         21    1    1    2  504  501 -0.13041844430E+03 -0.14193283734E+03  0.22425995596E+03  0.29571342340E+03  0.00000000000E+00 0. -1.
         21    1    1    2  505  506  0.13427108401E+02  0.90401420506E+02  0.11486257586E+03  0.14678595097E+03  0.00000000000E+00 0.  1.
         21    1    1    2  506  502  0.54141261258E+02  0.61492429772E+02  0.72452303881E+02  0.10937061501E+03  0.00000000000E+00 0. -1.
<scales pt_clust_3="63.63453" pt_clust_4="176.90391" pt_clust_5="50.91810" pt_clust_6="50.91810"></scales>
<clustering>
<clus scale="   50.918">  5  6 -1 -1</clus>
<clus scale="   63.635">  2  3  1 -1</clus>
<clus scale="  176.904">  2  4  1 -1</clus>
<clus scale="  184.898">  1  3  2 -1</clus>
</clustering>
</event>
<event>
 6    0  0.1438923E+002  0.1663772E+03  0.7546771E-02  0.1181679E+00
         21   -1    0    0  503  501  0.00000000000E+00  0.00000000000E+00  0.21878194602E+03  0.21878194602E+03  0.00000000000E+00 0.  1.
         21   -1    0    0  505  502 -0.00000000000E+00 -0.00000000000E+00 -0.16682646383E+04  0.16682646383E+04  0.00000000000E+00 0.  1.
         21    1    1    2  503  504  0.43623739741E+02 -0.34383358669E+02 -0.69830353439E+01  0.55982218650E+02  0.00000000000E+00 0.  1.
         21    1    1    2  504  502 -0.14724437904E+03  0.63317916102E+02 -0.16145337877E+04  0.16224701592E+04  0.00000000000E+00 0.  1.
         21    1    1    2  505  506  0.56495148575E+02 -0.31989956086E+02  0.13026838588E+03  0.14555037431E+03  0.00000000000E+00 0.  1.
         21    1    1    2  506  501  0.47125490721E+02  0.30553986537E+01  0.41765744886E+02  0.63043832232E+02  0.00000000000E+00 0.  1.
<scales pt_clust_3="55.54499" pt_clust_4="159.18551" pt_clust_5="41.26826" pt_clust_6="41.26826"></scales>
<clustering>
<clus scale="   41.268">  5  6 -1 -1</clus>
<clus scale="   55.545">  1  3  2 -1</clus>
<clus scale="  159.186">  2  4  1 -1</clus>
<clus scale="   55.545">  1  3  2 -1</clus>
</clustering>
</event>
<event>
 6    0  0.1438923E+002  0.1158946E+03  0.7546771E-02  0.1250028E+00
         21   -1    0    0  505  501  0.00000000000E+00  0.00000000000E+00  0.22239620457E+03  0.22239620457E+03  0.00000000000E+00 0.  1.
         21   -1    0    0  503  502 -0.00000000000E+00 -0.00000000000E+00 -0.24787603149E+03  0.24787603149E+03  0.00000000000E+00 0.  1.
         21    1    1    2  503  501 -0.10560688172E+02  0.53615664161E+02  0.37210585293E+02  0.66111990108E+02  0.00000000000E+00 0.  1.
         21    1    1    2  504  506  0.57103814700E+02  0.50882461622E+01  0.41522151246E+02  0.70787180664E+02  0.00000000000E+00 0.  1.
         21    1    1    2  505  504  0.48768519334E+02 -0.44168109691E+01  0.94479267878E+02  0.10641526561E+03  0.00000000000E+00 0.  1.
         21    1    1    2  506  502 -0.95311645862E+02 -0.54287099354E+02 -0.19869183134E+03  0.22695779968E+03  0.00000000000E+00 0.  1.
<scales pt_clust_3="54.64584" pt_clust_4="38.04871" pt_clust_5="38.04871" pt_clust_6="108.33573"></scales>
<clustering>
<clus scale="   38.049">  4  5 -1 -1</clus>
<clus scale="   54.646">  1  3  2 -1</clus>
<clus scale="  108.336">  2  6  1 -1</clus>
<clus scale="   54.646">  1  3  2 -1</clus>
</clustering>
</event>
<event>
 6    0  0.1438923E+002  0.1469033E+03  0.7546771E-02  0.1204331E+00
         21   -1    0    0  505  501  0.00000000000E+00  0.00000000000E+00  0.23983705516E+04  0.23983705516E+04  0.00000000000E+00 0. -1.
         21   -1    0    0  504  502 -0.00000000000E+00 -0.00000000000E+00 -0.18969972836E+03  0.18969972836E+03  0.00000000000E+00 0.  1.
         21    1    1    2  503  501  0.73777244822E+02  0.19519346504E+02  0.83149061956E+03  0.83498547122E+03  0.00000000000E+00 0. -1.
         21    1    1    2  504  506 -0.23884617267E+02 -0.19601769298E+02 -0.17545605773E+03  0.17815592186E+03  0.00000000000E+00 0.  1.
         21    1    1    2  505  502 -0.11924357740E+03  0.19958969860E+02  0.35309972846E+03  0.37322487788E+03  0.00000000000E+00 0. -1.
         21    1    1    2  506  503  0.69350949849E+02 -0.19876547065E+02  0.11995365329E+04  0.12017040090E+04  0.00000000000E+00 0. -1.
<scales pt_clust_3="49.82703" pt_clust_4="30.89829" pt_clust_5="137.96246" pt_clust_6="49.82703"></scales>
<clustering>
<clus scale="   30.898">  2  4  1 -1</clus>
<clus scale="   49.827">  3  6 -1 -1</clus>
<clus scale="  137.962">  2  5  1 -1</clus>
<clus scale="  146.903">  1  3  2 -1</clus>
</clustering>
</event>
<event>
 6    0  0.1438923E+002  0.9754842E+02  0.7546771E-02  0.1285537E+00
         21   -1    0    0  503  501  0.00000000000E+00  0.00000000000E+00  0.14256117514E+03  0.14256117514E+03  0.00000000000E+00 0.  1.
         21   -1    0    0  506  502 -0.00000000000E+00 -0.00000000000E+00 -0.35047821212E+03  0.35047821212E+03  0.00000000000E+00 0.  1.
         21    1    1    2  503  505 -0.52346127848E+01 -0.35971066438E+02  0.66958736954E+02  0.76189180637E+02  0.00000000000E+00 0.  1.
         21    1    1    2  504  502 -0.26066250726E+02 -0.19983265422E+02 -0.29236769737E+02  0.43972366647E+02  0.00000000000E+00 0.  1.
         21    1    1    2  505  504 -0.47075030623E+02 -0.52347716093E+02  0.21957288984E+02  0.73745945161E+02  0.00000000000E+00 0.  1.
         21    1    1    2  506  501  0.78375894134E+02  0.10830204795E+03 -0.26759629318E+03  0.29913189481E+03  0.00000000000E+00 0.  1.
<scales pt_clust_3="36.69746" pt_clust_4="32.84479" pt_clust_5="97.54842" pt_clust_6="14000.00000"></scales>
<clustering>
<clus scale="   32.845">  2  4  1 -1</clus>
<clus scale="   36.697">  1  3  2 -1</clus>
<clus scale="   97.548">  1  5  2 -1</clus>
<clus scale="   36.697">  1  3  2 -1</clus>
</clustering>
</event>
<event>
 6    0  0.1438923E+002  0.1863317E+03  0.7546771E-02  0.1161812E+00
         21   -1    0    0  504  501  0.00000000000E+00  0.00000000000E+00  0.11134260210E+03  0.11134260210E+03  0.00000000000E+00 0. -1.
         21   -1    0    0  506  502 -0.00000000000E+00 -0.00000000000E+00 -0.20556465428E+04  0.20556465428E+04  0.00000000000E+00 0. -1.
         21    1    1    2  503  501  0.47755996717E+02  0.16565876666E+03  0.11313352787E+02  0.17277573367E+03  0.00000000000E+00 0. -1.
         21    1    1    2  504  505  0.36022082267E+02 -0.15171775015E+01 -0.45539028868E+02  0.58083520802E+02  0.00000000000E+00 0. -1.
         21    1    1    2  505  502  0.29481000607E+02  0.43684201515E+02 -0.12832950979E+03  0.13872960009E+03  0.00000000000E+00 0. -1.
         21    1    1    2  506  503 -0.11325907959E+03 -0.20782579068E+03 -0.17817487548E+04  0.17974002903E+04  0.00000000000E+00 0. -1.
<scales pt_clust_3="186.33172" pt_clust_4="36.05402" pt_clust_5="53.65798" pt_clust_6="14000.00000"></scales>
<clustering>
<clus scale="   36.054">  1  4  2 -1</clus>
<clus scale="   53.658">  2  5  1 -1</clus>
<clus scale="  186.332">  1  3  2 -1</clus>
<clus scale="   36.054">  1  3  2 -1</clus>
</clustering>
</event>
<event>
 6    0  0.1438923E+002  0.1002713E+03  0.7546771E-02  0.1279726E+00
         21   -1    0    0  506  501  0.00000000000E+00  0.00000000000E+00  0.12968003289E+03  0.12968003289E+03  0.00000000000E+00 0. -1.
         21   -1    0    0  505  502 -0.00000000000E+00 -0.00000000000E+00 -0.25263593140E+03  0.25263593140E+03  0.00000000000E+00 0.  1.
         21    1    1    2  503  502 -0.10367479037E+03  0.49364129332E+02 -0.17152039849E+03  0.20640863965E+03  0.00000000000E+00 0.  1.
         21    1    1    2  504  501  0.40291035339E+02  0.16550379603E+02  0.36173064543E+02  0.56619547792E+02  0.00000000000E+00 0. -1.
         21    1    1    2  505  504  0.25471020636E+02 -0.71094353362E+02  0.24099915985E+02  0.79271595939E+02  0.00000000000E+00 0. -1.
         21    1    1    2  506  503  0.37912734396E+02  0.51798444272E+01 -0.11708480556E+02  0.40016180909E+02  0.00000000000E+00 0. -1.
<scales pt_clust_3="100.27131" pt_clust_4="58.55981" pt_clust_5="14000.00000" pt_clust_6="38.26495"></scales>
<clustering>
<clus scale="   38.265">  1  6  2 -1</clus>
<clus scale="   58.560">  1  4  2 -1</clus>
<clus scale="  100.271">  2  3  1 -1</clus>
<clus scale="   38.265">  1  3  2 -1</clus>
</clustering>
</event>
<event>
 6    0  0.1438923E+002  0.2224065E+03  0.7546771E-02  0.1132101E+00
         21   -1    0    0  502  501  0.00000000000E+00  0.00000000000E+00  0.79707848781E+02  0.79707848781E+02  0.00000000000E+00 0. -1.
         21   -1    0    0  505  502 -0.00000000000E+00 -0.00000000000E+00 -0.12341254403E+04  0.12341254403E+04  0.00000000000E+00 0. -1.
         21    1    1    2  503  504 -0.99858499161E+02  0.83881707712E+02 -0.26000450510E+03  0.29087833095E+03  0.00000000000E+00 0. -1.
         21    1    1    2  504  501  0.19641373874E+03 -0.14424436105E+03 -0.20310037184E+03  0.31722949658E+03  0.00000000000E+00 0. -1.
         21    1    1    2  505  506 -0.46155421658E+02  0.55887754695E+02 -0.56539195571E+03  0.57001914675E+03  0.00000000000E+00 0. -1.
         21    1    1    2  506  503 -0.50399817923E+02  0.44748986411E+01 -0.12592075890E+03  0.13570631484E+03  0.00000000000E+00 0. -1.
<scales pt_clust_3="32.07500" pt_clust_4="216.36305" pt_clust_5="72.48285" pt_clust_6="32.07500"></scales>
<clustering>
<clus scale="   32.075">  3  6 -1 -1</clus>
<clus scale="   72.483">  2  5  1 -1</clus>
<clus scale="  216.363">  1  4  2 -1</clus>
<clus scale="  216.363">  1  3  2 -1</clus>
</clustering>
</event>
<event>
 6    0  0.1438923E+002  0.1116040E+03  0.7546771E-02  0.1257628E+00
         21   -1    0    0  506  501  0.00000000000E+00  0.00000000000E+00  0.82970203924E+03  0.82970203924E+03  0.00000000000E+00 0.  1.
         21   -1    0    0  505  502 -0.00000000000E+00 -0.00000000000E+00 -0.19355142615E+03  0.19355142615E+03  0.00000000000E+00 0. -1.
         21    1    1    2  503  501  0.11388190196E+03  0.12621496663E+01  0.20688490429E+03  0.23616105572E+03  0.00000000000E+00 0.  1.
         21    1    1    2  504  502 -0.27137971282E+02 -0.10613048544E+03  0.32898446496E+03  0.34674331660E+03  0.00000000000E+00 0.  1.
         21    1    1    2  505  503 -0.29669136037E+02  0.10850149952E+03 -0.14781447775E+03  0.18574701307E+03  0.00000000000E+00 0. -1.
         21    1    1    2  506  504 -0.57074794646E+02 -0.36331637470E+01  0.24809572159E+03  0.25460207999E+03  0.00000000000E+00 0. -1.
<scales pt_clust_3="92.02099" pt_clust_4="111.60399" pt_clust_5="14000.00000" pt_clust_6="57.19031"></scales>
<clustering>
<clus scale="   57.190">  1  6  2 -1</clus>
<clus scale="   92.021">  1  3  2 -1</clus>
<clus scale="  111.604">  1  4  2 -1</clus>
<clus scale="   57.190">  1  3  2 -1</clus>
</clustering>
</event>
<event>
 6    0  0.1438923E+002  0.2325802E+03  0.7546771E-02  0.1124837E+00
         21   -1    0    0  504  501  0.00000000000E+00  0.00000000000E+00  0.20434433141E+04  0.20434433141E+04  0.00000000000E+00 0. -1.
         21   -1    0    0  505  502 -0.00000000000E+00 -0.00000000000E+00 -0.45681200584E+02  0.45681200584E+02  0.00000000000E+00 0.  1.
         21    1    1    2  503  506  0.13683941409E+03  0.58145982716E+02  0.75819301515E+03  0.77263356695E+03  0.00000000000E+00 0. -1.
         21    1    1    2  504  502 -0.17286103861E+03 -0.18955791455E+03  0.62983267125E+03  0.68007524246E+03  0.00000000000E+00 0.  1.
         21    1    1    2  505  503  0.52227579935E+02  0.30916321681E+01  0.15172744319E+03  0.16049453359E+03  0.00000000000E+00 0.  1.
         21    1    1    2  506  501 -0.16205955415E+02  0.12832029967E+03  0.45800898390E+03  0.47592117166E+03  0.00000000000E+00 0. -1.
<scales pt_clust_3="33.95496" pt_clust_4="225.42656" pt_clust_5="33.95496" pt_clust_6="129.33960"></scales>
<clustering>
<clus scale="   33.955">  3  5 -1 -1</clus>
<clus scale="  129.340">  1  6  2 -1</clus>
<clus scale="  225.427">  2  4  1 -1</clus>
<clus scale="  129.340">  1  3  2 -1</clus>
</clustering>
</event>
<event>
 6    0  0.1438923E+002  0.1241299E+03  0.7546771E-02  0.1236435E+00
         21   -1    0    0  503  501  0.00000000000E+00  0.00000000000E+00  0.62469533795E+03  0.62469533795E+03  0.00000000000E+00 0. -1.
         21   -1    0    0  504  502 -0.00000000000E+00 -0.00000000000E+00 -0.22615067777E+03  0.22615067777E+03  0.00000000000E+00 0.  1.
         21    1    1    2  503  506  0.34417782681E+01  0.48670210130E+02  0.19481616286E+03  0.20083319572E+03  0.00000000000E+00 0.  1.
         21    1    1    2  504  505  0.30770629288E+01 -0.70556837071E+02 -0.17531035518E+03  0.18900120689E+03  0.00000000000E+00 0.  1.
         21    1    1    2  505  501 -0.77655293920E+02 -0.20757691864E+02  0.79577615492E+01  0.80774701573E+02  0.00000000000E+00 0. -1.
         21    1    1    2  506  502  0.71136452723E+02  0.42644318806E+02  0.37108109095E+03  0.38023691153E+03  0.00000000000E+00 0. -1.
<scales pt_clust_3="45.39236" pt_clust_4="70.62390" pt_clust_5="109.11329" pt_clust_6="45.39236"></scales>
<clustering>
<clus scale="   45.392">  3  6 -1 -1</clus>
<clus scale="   70.624">  2  4  1 -1</clus>
<clus scale="  109.113">  2  5  1 -1</clus>
<clus scale="  124.130">  1  3  2 -1</clus>
</clustering>
</event>
<event>
 6    0  0.1438923E+002  0.1982454E+03  0.7546771E-02  0.1151228E+00
         21   -1    0    0  505  501  0.00000000000E+00  0.00000000000E+00  0.11363635728E+04  0.11363635728E+04  0.00000000000E+00 0. -1.
         21   -1    0    0  501  502 -0.00000000000E+00 -0.00000000000E+00 -0.23580896999E+03  0.23580896999E+03  0.00000000000E+00 0. -1.
         21    1    1    2  503  504  0.18489750319E+03 -0.77092489841E+01  0.28357258615E+03  0.33861472328E+03  0.00000000000E+00 0. -1.
         21    1    1    2  504  506  0.86985353953E+02  0.14406856171E+02  0.54723931257E+02  0.10377243352E+03  0.00000000000E+00 0. -1.
         21    1    1    2  505  503 -0.12592627635E+03 -0.99673308938E+02  0.69396912529E+03  0.71230986407E+03  0.00000000000E+00 0. -1.
         21    1    1    2  506  502 -0.14595658079E+03  0.92975701751E+02 -0.13171103990E+03  0.21747552190E+03  0.00000000000E+00 0. -1.
<scales pt_clust_3="58.96182" pt_clust_4="58.96182" pt_clust_5="160.59949" pt_clust_6="178.89804"></scales>
<clustering>
<clus scale="   58.962">  3  4 -1 -1</clus>
<clus scale="  160.599">  1  5  2 -1</clus>
<clus scale="  178.898">  2  6  1 -1</clus>
<clus scale="  160.599">  1  3  2 -1</clus>
</clustering>
</event>
<event>
 6    0  0.1438923E+002  0.1461947E+03  0.7546771E-02  0.1205228E+00
         21   -1    0    0  506  501  0.00000000000E+00  0.00000000000E+00  0.12354790779E+03  0.12354790779E+03  0.00000000000E+00 0. -1.
         21   -1    0    0  505  502 -0.00000000000E+00 -0.00000000000E+00 -0.49643318557E+03  0.49643318557E+03  0.00000000000E+00 0. -1.
         21    1    1    2  503  502  0.98481071084E+02  0.93959715664E+02 -0.33508783085E+03  0.36167776254E+03  0.00000000000E+00 0. -1.
         21    1    1    2  504  503 -0.52007415631E+02 -0.84401573799E+02 -0.16151123079E+02  0.10044528718E+03  0.00000000000E+00 0. -1.
         21    1    1    2  505  501 -0.40467604061E+02  0.65457698998E+02 -0.29009356433E+02  0.82242811827E+02  0.00000000000E+00 0. -1.
         21    1    1    2  506  504 -0.60060513921E+01 -0.75015840862E+02  0.73630325744E+01  0.75615231814E+02  0.00000000000E+00 0. -1.
<scales pt_clust_3="138.68052" pt_clust_4="40.31043" pt_clust_5="76.95672" pt_clust_6="40.31043"></scales>
<clustering>
<clus scale="   40.310">  4  6 -1 -1</clus>
<clus scale="   76.957">  1  5  2 -1</clus>
<clus scale="  138.681">  2  3  1 -1</clus>
<clus scale="   76.957">  1  3  2 -1</clus>
</clustering>
</event>
<event>
 6    0  0.1438923E+002  0.1332588E+03  0.7546771E-02  0.1222699E+00
         21   -1    0    0  505  501  0.00000000000E+00  0.00000000000E+00  0.66817226771E+03  0.66817226771E+03  0.00000000000E+00 0.  1.
         21   -1    0    0  504  502 -0.00000000000E+00 -0.00000000000E+00 -0.49153677905E+03  0.49153677905E+03  0.00000000000E+00 0. -1.
         21    1    1    2  503  501 -0.59943049307E+01 -0.31398811323E+02  0.18588062011E+02  0.36977467374E+02  0.00000000000E+00 0.  1.
         21    1    1    2  504  503 -0.12483743495E+03  0.36354092763E+01 -0.46620101780E+03  0.48263960713E+03  0.00000000000E+00 0. -1.
         21    1    1    2  505  506  0.55492244345E+02  0.35310501906E+02  0.29802773930E+03  0.30519953165E+03  0.00000000000E+00 0.  1.
         21    1    1    2  506  502  0.75339495537E+02 -0.75470998594E+01  0.32622070515E+03  0.33489244060E+03  0.00000000000E+00 0.  1.
<scales pt_clust_3="31.96587" pt_clust_4="124.95619" pt_clust_5="39.91825" pt_clust_6="39.91825"></scales>
<clustering>
<clus scale="   31.966">  1  3  2 -1</clus>
<clus scale="   39.918">  5  6 -1 -1</clus>
<clus scale="  124.956">  2  4  1 -1</clus>
<clus scale="   31.966">  1  3  2 -1</clus>
</clustering>
</event>
<event>
 6    0  0.1438923E+002  0.6240544E+02  0.7546771E-02  0.1388006E+00
         21   -1    0    0  504  501  0.00000000000E+00  0.00000000000E+00  0.52912678974E+03  0.52912678974E+03  0.00000000000E+00 0. -1.
         21   -1    0    0  506  502 -0.00000000000E+00 -0.00000000000E+00 -0.20976011300E+03  0.20976011300E+03  0.00000000000E+00 0. -1.
         21    1    1    2  503  502  0.26846383456E+01  0.54296591459E+02  0.12314626739E+03  0.13461177622E+03  0.00000000000E+00 0.  1.
         21    1    1    2  504  503 -0.55204082604E+02 -0.15192324801E+02  0.25798130804E+03  0.26425868532E+03  0.00000000000E+00 0. -1.
         21    1    1    2  505  501  0.90655983631E+02 -0.44421311517E+01  0.12035835009E+03  0.15074605246E+03  0.00000000000E+00 0. -1.
         21    1    1    2  506  505 -0.38136539372E+02 -0.34662135506E+02 -0.18211924877E+03  0.18927038872E+03  0.00000000000E+00 0. -1.
<scales pt_clust_3="46.48222" pt_clust_4="62.40544" pt_clust_5="14000.00000" pt_clust_6="51.53503"></scales>
<clustering>
<clus scale="   51.535">  2  6  1 -1</clus>
<clus scale="   46.482">  2  3  1 -1</clus>
<clus scale="   62.405">  1  4  2 -1</clus>
<clus scale="   62.405">  1  3  2 -1</clus>
</clustering>
</event>
<event>
 6    0  0.1438923E+002  0.1812975E+03  0.7546771E-02  0.1166553E+00
         21   -1    0    0  503  501  0.00000000000E+00  0.00000000000E+00  0.17326457771E+03  0.17326457771E+03  0.00000000000E+00 0. -1.
         21   -1    0    0  504  502 -0.00000000000E+00 -0.00000000000E+00 -0.29112391853E+03  0.29112391853E+03  0.00000000000E+00 0.  1.
         21    1    1    2  503  506  0.45845479290E+02 -0.71898563917E+02 -0.21478777036E+02  0.87934915293E+02  0.00000000000E+00 0. -1.
         21    1    1    2  504  501 -0.12678697733E+03  0.10765849580E+03  0.33441610020E+02  0.16965739188E+03  0.00000000000E+00 0. -1.
         21    1    1    2  505  502 -0.13127131671E+02  0.28879291583E+02 -0.72366024991E+02  0.79013775010E+02  0.00000000000E+00 0.  1.
         21    1    1    2  506  505  0.94068629709E+02 -0.64639223471E+02 -0.57456148805E+02  0.12778241406E+03  0.00000000000E+00 0.  1.
<scales pt_clust_3="39.61412" pt_clust_4="175.45384" pt_clust_5="31.72278" pt_clust_6="39.61412"></scales>
<clustering>
<clus scale="   31.723">  2  5  1 -1</clus>
<clus scale="   39.614">  3  6 -1 -1</clus>
<clus scale="  175.454">  1  4  2 -1</clus>
<clus scale="  175.454">  1  3  2 -1</clus>
</clustering>
</event>
<event>
 6    0  0.1438923E+002  0.3348012E+03  0.7546771E-02  0.1069032E+00
         21   -1    0    0  504  501  0.00000000000E+00  0.00000000000E+00  0.50964152382E+03  0.50964152382E+03  0.00000000000E+00 0. -1.
         21   -1    0    0  505  502 -0.00000000000E+00 -0.00000000000E+00 -0.41895758594E+04  0.41895758594E+04  0.00000000000E+00 0. -1.
         21    1    1    2  503  506 -0.28778568913E+03  0.33676338492E+02  0.22223654916E+03  0.36516267940E+03  0.00000000000E+00 0. -1.
         21    1    1    2  504  502  0.41296395471E+03  0.72625665423E+02 -0.28324142272E+02  0.42025703112E+03  0.00000000000E+00 0.  1.
         21    1    1    2  505  503 -0.95931558506E+02 -0.77300751341E+02 -0.38705149842E+04  0.38724752437E+04  0.00000000000E+00 0. -1.
         21    1    1    2  506  501 -0.29246707077E+02 -0.29001252573E+02 -0.33317582677E+01  0.41322429005E+02  0.00000000000E+00 0. -1.
<scales pt_clust_3="334.80122" pt_clust_4="14000.00000" pt_clust_5="123.28197" pt_clust_6="41.18789"></scales>
<clustering>
<clus scale="   41.188">  1  6  2 -1</clus>
<clus scale="  123.282">  2  5  1 -1</clus>
<clus scale="  334.801">  1  3  2 -1</clus>
<clus scale="   41.188">  1  3  2 -1</clus>
</clustering>
</event>
<event>
 6    0  0.1438923E+002  0.1058472E+03  0.7546771E-02  0.1268459E+00
         21   -1    0    0  505  501  0.00000000000E+00  0.00000000000E+00  0.26757154447E+02  0.26757154447E+02  0.00000000000E+00 0.  1.
         21   -1    0    0  503  502 -0.00000000000E+00 -0.00000000000E+00 -0.23635685414E+04  0.23635685414E+04  0.00000000000E+00 0.  1.
         21    1    1    2  503  501  0.35430083054E+02 -0.16511350671E+02 -0.13888290475E+03  0.14427881590E+03  0.00000000000E+00 0.  1.
         21    1    1    2  504  502 -0.31685923381E+02  0.39324785936E+02 -0.15727762561E+04  0.15735868544E+04  0.00000000000E+00 0.  1.
         21    1    1    2  505  506  0.35225783705E+02 -0.90626920385E+02 -0.92855764510E+02  0.13444808492E+03  0.00000000000E+00 0.  1.
         21    1    1    2  506  504 -0.38969943378E+02  0.67813485120E+02 -0.53229646158E+03  0.53801194064E+03  0.00000000000E+00 0.  1.
<scales pt_clust_3="39.08856" pt_clust_4="49.91162" pt_clust_5="14000.00000" pt_clust_6="105.84718"></scales>
<clustering>
<clus scale="   39.089">  1  3  2 -1</clus>
<clus scale="   49.912">  2  4  1 -1</clus>
<clus scale="  105.847">  2  6  1 -1</clus>
<clus scale="   39.089">  1  3  2 -1</clus>
</clustering>
</event>
<event>
 6    0  0.1438923E+002  0.8463109E+02  0.7546771E-02  0.1316400E+00
         21   -1    0    0  504  501  0.00000000000E+00  0.00000000000E+00  0.57049509931E+02  0.57049509931E+02  0.00000000000E+00 0.  1.
         21   -1    0    0  506  502 -0.00000000000E+00 -0.00000000000E+00 -0.12973681266E+04  0.12973681266E+04  0.00000000000E+00 0.  1.
         21    1    1    2  503  502 -0.84869259465E+02 -0.83250184228E+02 -0.88298697599E+02  0.14808796161E+03  0.00000000000E+00 0.  1.
         21    1    1    2  504  505  0.19843994713E+02  0.33924028179E+02 -0.28586484173E+02  0.48598465937E+02  0.00000000000E+00 0.  1.
         21    1    1    2  505  503 -0.18100296960E+02  0.37493453142E+02 -0.12276014440E+02  0.43405993931E+02  0.00000000000E+00 0.  1.
         21    1    1    2  506  501  0.83125561713E+02  0.11832702907E+02 -0.11111574205E+04  0.11143252151E+04  0.00000000000E+00 0.  1.
<scales pt_clust_3="14000.00000" pt_clust_4="39.30170" pt_clust_5="50.06456" pt_clust_6="84.63109"></scales>
<clustering>
<clus scale="   39.302">  1  4  2 -1</clus>
<clus scale="   50.065">  1  5  2 -1</clus>
<clus scale="   84.631">  2  6  1 -1</clus>
<clus scale="   39.302">  1  3  2 -1</clus>
</clustering>
</event>
<event>
 6    0  0.1438923E+002  0.9698367E+02  0.7546771E-02  0.1286770E+00
         21   -1    0    0  505  501  0.00000000000E+00  0.00000000000E+00  0.11932183234E+04  0.11932183234E+04  0.00000000000E+00 0.  1.
         21   -1    0    0  506  502 -0.00000000000E+00 -0.00000000000E+00 -0.49769329654E+02  0.49769329654E+02  0.00000000000E+00 0.  1.
         21    1    1    2  503  502  0.63145167798E+02  0.55100186925E+02  0.15266992563E+03  0.17415926334E+03  0.00000000000E+00 0.  1.
         21    1    1    2  504  501  0.28758581302E+02  0.41701872469E+02  0.21520661913E+03  0.22108819752E+03  0.00000000000E+00 0. -1.
         21    1    1    2  505  503 -0.84581445439E+02 -0.55381924956E+02  0.79500379296E+03  0.80140639462E+03  0.00000000000E+00 0.  1.
         21    1    1    2  506  504 -0.73223036617E+01 -0.41420134438E+02 -0.19431343979E+02  0.46333797563E+02  0.00000000000E+00 0.  1.
<scales pt_clust_3="14000.00000" pt_clust_4="44.09995" pt_clust_5="96.98367" pt_clust_6="42.06238"></scales>
<clustering>
<clus scale="   42.062">  2  6  1 -1</clus>
<clus scale="   44.100">  2  4  1 -1</clus>
<clus scale="   96.984">  1  5  2 -1</clus>
<clus scale="   96.984">  1  3  2 -1</clus>
</clustering>
</event>
<event>
 6    0  0.1438923E+002  0.7734331E+02  0.7546771E-02  0.1336764E+00
         21   -1    0    0  505  501  0.00000000000E+00  0.00000000000E+00  0.23108521408E+03  0.23108521408E+03  0.00000000000E+00 0.  1.
         21   -1    0    0  503  502 -0.00000000000E+00 -0.00000000000E+00 -0.58510062900E+03  0.58510062900E+03  0.00000000000E+00 0.  1.
         21    1    1    2  503  506 -0.39740310581E+02 -0.47979152623E+02  0.87392157243E+02  0.10732511598E+03  0.00000000000E+00 0.  1.
         21    1    1    2  504  502  0.18559234069E+02 -0.74971426062E+02 -0.53325905790E+03  0.53882314606E+03  0.00000000000E+00 0.  1.
         21    1    1    2  505  504  0.14557774529E+02  0.85085346624E+02  0.20089577521E+02  0.88628641727E+02  0.00000000000E+00 0.  1.
         21    1    1    2  506  501  0.66233019832E+01  0.37865232061E+02  0.71761908227E+02  0.81408939317E+02  0.00000000000E+00 0.  1.
<scales pt_clust_3="42.97293" pt_clust_4="14000.00000" pt_clust_5="77.34331" pt_clust_6="38.44013"></scales>
<clustering>
<clus scale="   38.440">  1  6  2 -1</clus>
<clus scale="   42.973">  1  3  2 -1</clus>
<clus scale="   77.343">  1  5  2 -1</clus>
<clus scale="   38.440">  1  3  2 -1</clus>
</clustering>
</event>
<event>
 6    0  0.1438923E+002  0.7982618E+02  0.7546771E-02  0.1329545E+00
         21   -1    0    0  503  501  0.00000000000E+00  0.00000000000E+00  0.67073180639E+03  0.67073180639E+03  0.00000000000E+00 0. -1.
         21   -1    0    0  505  502 -0.00000000000E+00 -0.00000000000E+00 -0.37568465558E+03  0.37568465558E+03  0.00000000000E+00 0. -1.
         21    1    1    2  503  506  0.63706172846E+02 -0.99339714408E+02  0.49010744123E+03  0.50411522420E+03  0.00000000000E+00 0. -1.
         21    1    1    2  504  501 -0.44600066224E+02  0.21612546923E+02  0.11167010867E+03  0.12217397948E+03  0.00000000000E+00 0.  1.
         21    1    1    2  505  504 -0.49770576664E+02  0.51737163968E+02  0.32300240664E+02  0.78721979039E+02  0.00000000000E+00 0. -1.
         21    1    1    2  506  502  0.30664470043E+02  0.25990003517E+02 -0.33903063975E+03  0.34140527925E+03  0.00000000000E+00 0. -1.
<scales pt_clust_3="79.82618" pt_clust_4="47.46593" pt_clust_5="14000.00000" pt_clust_6="40.19689"></scales>
<clustering>
<clus scale="   40.197">  2  6  1 -1</clus>
<clus scale="   47.466">  1  4  2 -1</clus>
<clus scale="   79.826">  1  3  2 -1</clus>
<clus scale="   47.466">  1  3  2 -1</clus>
</clustering>
</event>
<event>
 6    0  0.1438923E+002  0.1236917E+03  0.7546771E-02  0.1237128E+00
         21   -1    0    0  504  501  0.00000000000E+00  0.00000000000E+00  0.37897742228E+03  0.37897742228E+03  0.00000000000E+00 0.  1.
         21   -1    0    0  506  502 -0.00000000000E+00 -0.00000000000E+00 -0.22737816771E+03  0.22737816771E+03  0.00000000000E+00 0.  1.
         21    1    1    2  503  501  0.85213795908E+02 -0.58960030089E+02  0.26319331249E+03  0.28285755408E+03  0.00000000000E+00 0.  1.
         21    1    1    2  504  502  0.94107235189E+00 -0.50608824341E+02  0.67657533176E+02  0.84496630192E+02  0.00000000000E+00 0.  1.
         21    1    1    2  505  503 -0.58936502540E+02  0.69052609130E+02 -0.56570889517E+02  0.10696747029E+03  0.00000000000E+00 0.  1.
         21    1    1    2  506  505 -0.27218365720E+02  0.40516245300E+02 -0.12268070158E+03  0.13203393543E+03  0.00000000000E+00 0.  1.
<scales pt_clust_3="123.69168" pt_clust_4="47.21756" pt_clust_5="14000.00000" pt_clust_6="48.80989"></scales>
<clustering>
<clus scale="   48.810">  2  6  1 -1</clus>
<clus scale="   47.218">  1  4  2 -1</clus>
<clus scale="  123.692">  1  3  2 -1</clus>
<clus scale="   47.218">  1  3  2 -1</clus>
</clustering>
</event>
<event>
 6    0  0.1438923E+002  0.1361117E+03  0.7546771E-02  0.1218659E+00
         21   -1    0    0  506  501  0.00000000000E+00  0.00000000000E+00  0.15017811305E+04  0.15017811305E+04  0.00000000000E+00 0.  1.
         21   -1    0    0  503  502 -0.00000000000E+00 -0.00000000000E+00 -0.23944125211E+03  0.23944125211E+03  0.00000000000E+00 0.  1.
         21    1    1    2  503  505 -0.88243342589E+02  0.64879840915E+02  0.64295529527E+03  0.65221759634E+03  0.00000000000E+00 0.  1.
         21    1    1    2  504  502  0.69557069723E+01  0.39271283475E+02 -0.21852791153E+03  0.22213748824E+03  0.00000000000E+00 0.  1.
         21    1    1    2  505  501 -0.26797420171E+02  0.26114840539E+02  0.59684465046E+02  0.70443750553E+02  0.00000000000E+00 0.  1.
         21    1    1    2  506  504  0.10808505579E+03 -0.13026596493E+03  0.77822802963E+03  0.79642354749E+03  0.00000000000E+00 0.  1.
<scales pt_clust_3="136.11171" pt_clust_4="39.90897" pt_clust_5="37.41773" pt_clust_6="14000.00000"></scales>
<clustering>
<clus scale="   37.418">  1  5  2 -1</clus>
<clus scale="   39.909">  2  4  1 -1</clus>
<clus scale="  136.112">  1  3  2 -1</clus>
<clus scale="   37.418">  1  3  2 -1</clus>
</clustering>
</event>
<event>
 6    0  0.1438923E+002  0.1246992E+03  0.7546771E-02  0.1235540E+00
         21   -1    0    0  505  501  0.00000000000E+00  0.00000000000E+00  0.30399800850E+03  0.30399800850E+03  0.00000000000E+00 0.  1.
         21   -1    0    0  503  502 -0.00000000000E+00 -0.00000000000E+00 -0.22658724318E+03  0.22658724318E+03  0.00000000000E+00 0. -1.
         21    1    1    2  503  501 -0.76389087523E+00 -0.71164014365E+02 -0.97937823385E+02  0.12106493183E+03  0.00000000000E+00 0. -1.
         21    1    1    2  504  502  0.66483490584E+02 -0.34819037307E+02 -0.87525640757E+02  0.11529595686E+03  0.00000000000E+00 0. -1.
         21    1    1    2  505  506 -0.68572071999E+01  0.44976966286E+02  0.69287976689E+02  0.82890123057E+02  0.00000000000E+00 0.  1.
         21    1    1    2  506  504 -0.58862392509E+02  0.61006085386E+02  0.19358625277E+03  0.21133423993E+03  0.00000000000E+00 0.  1.
<scales pt_clust_3="71.16811" pt_clust_4="116.77435" pt_clust_5="32.04723" pt_clust_6="32.04723"></scales>
<clustering>
<clus scale="   32.047">  5  6 -1 -1</clus>
<clus scale="   71.168">  2  3  1 -1</clus>
<clus scale="  116.774">  2  4  1 -1</clus>
<clus scale="  124.699">  1  3  2 -1</clus>
</clustering>
</event>
<event>
 6    0  0.1438923E+002  0.1078551E+03  0.7546771E-02  0.1264594E+00
         21   -1    0    0  506  501  0.00000000000E+00  0.00000000000E+00  0.66740085681E+02  0.66740085681E+02  0.00000000000E+00 0.  1.
         21   -1    0    0  505  502 -0.00000000000E+00 -0.00000000000E+00 -0.15486736832E+04  0.15486736832E+04  0.00000000000E+00 0.  1.
         21    1    1    2  503  501 -0.16715860419E+03  0.57630309465E+02 -0.28892142249E+03  0.33873122073E+03  0.00000000000E+00 0.  1.
         21    1    1    2  504  502  0.77428857326E+02  0.17210174007E+01 -0.13371700072E+03  0.15452645770E+03  0.00000000000E+00 0.  1.
         21    1    1    2  505  503  0.29956507417E+02  0.16020723762E+02 -0.10161657651E+04  0.10167334548E+04  0.00000000000E+00 0.  1.
         21    1    1    2  506  504  0.59773239444E+02 -0.75372050628E+02 -0.43129409195E+02  0.10542263565E+03  0.00000000000E+00 0.  1.
<scales pt_clust_3="107.85510" pt_clust_4="85.75516" pt_clust_5="33.97140" pt_clust_6="14000.00000"></scales>
<clustering>
<clus scale="   33.971">  2  5  1 -1</clus>
<clus scale="   85.755">  2  4  1 -1</clus>
<clus scale="  107.855">  2  3  1 -1</clus>
<clus scale="  107.855">  1  3  2 -1</clus>
</clustering>
</event>
<event>
 6    0  0.1438923E+002  0.9399977E+02  0.7546771E-02  0.1293445E+00
         21   -1    0    0  506  501  0.00000000000E+00  0.00000000000E+00  0.19618131935E+03  0.19618131935E+03  0.00000000000E+00 0. -1.
         21   -1    0    0  503  502 -0.00000000000E+00 -0.00000000000E+00 -0.71574046786E+03  0.71574046786E+03  0.00000000000E+00 0. -1.
         21    1    1    2  503  504 -0.50672889478E+02 -0.76945165958E+02 -0.63236209566E+03  0.63903843415E+03  0.00000000000E+00 0. -1.
         21    1    1    2  504  505  0.78221141895E+02  0.11264128752E+03  0.15986976667E+02  0.13806589049E+03  0.00000000000E+00 0. -1.
         21    1    1    2  505  501 -0.19898345874E+02  0.24960507335E+02  0.25304867602E+02  0.40734597326E+02  0.00000000000E+00 0. -1.
         21    1    1    2  506  502 -0.76499065437E+01 -0.60656628892E+02  0.71511102882E+02  0.94082865252E+02  0.00000000000E+00 0. -1.
<scales pt_clust_3="93.99977" pt_clust_4="14000.00000" pt_clust_5="31.92133" pt_clust_6="51.16680"></scales>
<clustering>
<clus scale="   31.921">  1  5  2 -1</clus>
<clus scale="   51.167">  1  6  2 -1</clus>
<clus scale="   94.000">  2  3  1 -1</clus>
<clus scale="   31.921">  1  3  2 -1</clus>
</clustering>
</event>
<event>
 6    0  0.1438923E+002  0.1106421E+03  0.7546771E-02  0.1259385E+00
         21   -1    0    0  503  501  0.00000000000E+00  0.00000000000E+00  0.18788870006E+04  0.18788870006E+04  0.00000000000E+00 0. -1.
         21   -1    0    0  506  502 -0.00000000000E+00 -0.00000000000E+00 -0.29717440547E+02  0.29717440547E+02  0.00000000000E+00 0.  1.
         21    1    1    2  503  504  0.15094535005E+02 -0.57990604052E+02  0.91166495169E+03  0.91363216849E+03  0.00000000000E+00 0. -1.
         21    1    1    2  504  502  0.35609622358E+02 -0.18559521171E+02  0.35853542264E+03  0.36077714772E+03  0.00000000000E+00 0. -1.
         21    1    1    2  505  501  0.51520533075E+02  0.63394962493E+02  0.49374205050E+03  0.50045429264E+03  0.00000000000E+00 0. -1.
         21    1    1    2  506  505 -0.10222469044E+03  0.13155162730E+02  0.85227135191E+02  0.13374083226E+03  0.00000000000E+00 0.  1.
<scales pt_clust_3="39.08206" pt_clust_4="39.08206" pt_clust_5="81.69019" pt_clust_6="99.81184"></scales>
<clustering>
<clus scale="   39.082">  3  4 -1 -1</clus>
<clus scale="   81.690">  1  5  2 -1</clus>
<clus scale="   99.812">  2  6  1 -1</clus>
<clus scale="   81.690">  1  3  2 -1</clus>
</clustering>
</event>
<event>
 6    0  0.1438923E+002  0.1666032E+03  0.7546771E-02  0.1181437E+00
         21   -1    0    0  504  501  0.00000000000E+00  0.00000000000E+00  0.18371195231E+03  0.18371195231E+03  0.00000000000E+00 0. -1.
         21   -1    0    0  505  502 -0.00000000000E+00 -0.00000000000E+00 -0.56925453768E+03  0.56925453768E+03  0.00000000000E+00 0. -1.
         21    1    1    2  503  502  0.53403965193E+02  0.34838510553E+02 -0.22017707091E+02  0.67457280863E+02  0.00000000000E+00 0. -1.
         21    1    1    2  504  503  0.14337866793E+03  0.60974174646E+01 -0.14783177771E+02  0.14426767920E+03  0.00000000000E+00 0. -1.
         21    1    1    2  505  506 -0.71189475669E+02 -0.12909349707E+03 -0.35835690109E+03  0.38749547222E+03  0.00000000000E+00 0. -1.
         21    1    1    2  506  501 -0.12559315745E+03  0.88157569051E+02  0.96152005851E+01  0.15374605771E+03  0.00000000000E+00 0. -1.
<scales pt_clust_3="36.95706" pt_clust_4="36.95706" pt_clust_5="147.42141" pt_clust_6="157.10705"></scales>
<clustering>
<clus scale="   36.957">  3  4 -1 -1</clus>
<clus scale="  147.421">  2  5  1 -1</clus>
<clus scale="  157.107">  1  6  2 -1</clus>
<clus scale="  157.107">  1  3  2 -1</clus>
</clustering>
</event>
<event>
 6    0  0.1438923E+002  0.9115526E+02  0.7546771E-02  0.1300078E+00
         21   -1    0    0  504  501  0.00000000000E+00  0.00000000000E+00  0.54483042765E+03  0.54483042765E+03  0.00000000000E+00 0. -1.
         21   -1    0    0  505  502 -0.00000000000E+00 -0.00000000000E+00 -0.73265870738E+03  0.73265870738E+03  0.00000000000E+00 0.  1.
         21    1    1    2  503  501  0.12295589095E+02 -0.36641292233E+02  0.64690132764E+02  0.75356347342E+02  0.00000000000E+00 0. -1.
         21    1    1    2  504  506  0.72336836255E+02  0.17383093530E+02  0.36862485641E+03  0.37605727567E+03  0.00000000000E+00 0. -1.
         21    1    1    2  505  503  0.38534804637E+02 -0.29597015781E+02 -0.67954008062E+03  0.68127500738E+03  0.00000000000E+00 0.  1.
         21    1    1    2  506  502 -0.12316722999E+03  0.48855214484E+02  0.58396811719E+02  0.14480050464E+03  0.00000000000E+00 0. -1.
<scales pt_clust_3="38.64927" pt_clust_4="91.15526" pt_clust_5="48.64785" pt_clust_6="14000.00000"></scales>
<clustering>
<clus scale="   38.649">  1  3  2 -1</clus>
<clus scale="   48.648">  2  5  1 -1</clus>
<clus scale="   91.155">  1  4  2 -1</clus>
<clus scale="   38.649">  1  3  2 -1</clus>
</clustering>
</event>
<event>
 6    0  0.4162540E+002  0.1500572E+03  0.7546771E-02  0.1200403E+00
         21   -1    0    0  505  501  0.00000000000E+00  0.00000000000E+00  0.18565478358E+04  0.18565478358E+04  0.00000000000E+00 0. -1.
         21   -1    0    0  506  502 -0.00000000000E+00 -0.00000000000E+00 -0.19273510813E+04  0.19273510813E+04  0.00000000000E+00 0. -1.
         21    1    1    2  503  504 -0.13090051820E+02 -0.91306993771E+02 -0.48459733679E+02  0.10419530871E+03  0.00000000000E+00 0. -1.
         21    1    1    2  504  502 -0.13520189818E+02 -0.62693413625E+02 -0.18412518745E+04  0.18423685096E+04  0.00000000000E+00 0. -1.
         21    1    1    2  505  503  0.65990330924E+02  0.15761730787E+03  0.17464354878E+04  0.17547748723E+04  0.00000000000E+00 0. -1.
         21    1    1    2  506  501 -0.39380089286E+02 -0.36169004719E+01  0.72472874917E+02  0.82560226501E+02  0.00000000000E+00 0. -1.
<scales pt_clust_3="14000.00000" pt_clust_4="64.13842" pt_clust_5="150.05724" pt_clust_6="39.54584"></scales>
<clustering>
<clus scale="   39.546">  1  6  2 -1</clus>
<clus scale="   64.138">  2  4  1 -1</clus>
<clus scale="  150.057">  1  5  2 -1</clus>
<clus scale="   39.546">  1  3  2 -1</clus>
</clustering>
</event>
<event>
 6    0  0.1438923E+002  0.1570125E+03  0.7546771E-02  0.1192111E+00
         21   -1    0    0  502  501  0.00000000000E+00  0.00000000000E+00  0.28713244788E+04  0.28713244788E+04  0.00000000000E+00 0.  1.
         21   -1    0    0  503  502 -0.00000000000E+00 -0.00000000000E+00 -0.70593995385E+02  0.70593995385E+02  0.00000000000E+00 0. -1.
         21    1    1    2  503  504  0.37563628864E+02  0.18165913309E+02 -0.51234563974E+02  0.66075768368E+02  0.00000000000E+00 0. -1.
         21    1    1    2  504  505  0.45440882698E+02  0.85960641232E+01  0.27383058457E+03  0.27770839955E+03  0.00000000000E+00 0.  1.
         21    1    1    2  505  506  0.69595059728E+02 -0.64567782526E+01  0.15402451428E+03  0.16914110477E+03  0.00000000000E+00 0. -1.
         21    1    1    2  506  501 -0.15259957129E+03 -0.20305199180E+02  0.24241099486E+04  0.24289932015E+04  0.00000000000E+00 0.  1.
<scales pt_clust_3="41.72561" pt_clust_4="43.67202" pt_clust_5="43.67202" pt_clust_6="145.86390"></scales>
<clustering>
<clus scale="   41.726">  2  3  1 -1</clus>
<clus scale="   43.672">  4  5 -1 -1</clus>
<clus scale="  145.864">  1  6  2 -1</clus>
<clus scale="  145.864">  1  3  2 -1</clus>
</clustering>
</event>
<event>
 6    0  0.1438923E+002  0.1017676E+03  0.7546771E-02  0.1276622E+00
         21   -1    0    0  506  501  0.00000000000E+00  0.00000000000E+00  0.44668489105E+03  0.44668489105E+03  0.00000000000E+00 0.  1.
         21   -1    0    0  504  502 -0.00000000000E+00 -0.00000000000E+00 -0.43618920913E+03  0.43618920913E+03  0.00000000000E+00 0.  1.
         21    1    1    2  503  502  0.24958536149E+02  0.28825515469E+02 -0.33268317059E+03  0.33486106203E+03  0.00000000000E+00 0.  1.
         21    1    1    2  504  505 -0.12911591886E+03 -0.82816118724E+01  0.32132942134E+03  0.34639876244E+03  0.00000000000E+00 0.  1.
         21    1    1    2  505  501  0.39941821785E+02  0.60256033953E+02  0.57552451780E+02  0.92403590087E+02  0.00000000000E+00 0.  1.
         21    1    1    2  506  503  0.64215560926E+02 -0.80799937549E+02 -0.35703020612E+02  0.10921068562E+03  0.00000000000E+00 0.  1.
<scales pt_clust_3="38.12924" pt_clust_4="101.76757" pt_clust_5="78.73056" pt_clust_6="14000.00000"></scales>
<clustering>
<clus scale="   38.129">  2  3  1 -1</clus>
<clus scale="   78.731">  1  5  2 -1</clus>
<clus scale="  101.768">  1  4  2 -1</clus>
<clus scale="   78.731">  1  3  2 -1</clus>
</clustering>
</event>
<event>
 6    0  0.1438923E+002  0.1255499E+03  0.7546771E-02  0.1234212E+00
         21   -1    0    0  506  501  0.00000000000E+00  0.00000000000E+00  0.10295489839E+03  0.10295489839E+03  0.00000000000E+00 0.  1.
         21   -1    0    0  504  502 -0.00000000000E+00 -0.00000000000E+00 -0.51031864593E+03  0.51031864593E+03  0.00000000000E+00 0. -1.
         21    1    1    2  503  502  0.36078089484E+02  0.10927567291E+03 -0.43709048087E+03  0.45198549722E+03  0.00000000000E+00 0. -1.
         21    1    1    2  504  505 -0.25333853764E+02 -0.37307203270E+02  0.10991578132E+02  0.46416013962E+02  0.00000000000E+00 0.  1.
         21    1    1    2  505  501  0.20269150536E+02 -0.67585863588E+02 -0.11320998347E+02  0.71462244745E+02  0.00000000000E+00 0.  1.
         21    1    1    2  506  503 -0.31013386257E+02 -0.43826060473E+01  0.30056153544E+02  0.43409788398E+02  0.00000000000E+00 0.  1.
<scales pt_clust_3="113.55976" pt_clust_4="47.57445" pt_clust_5="47.57445" pt_clust_6="31.32152"></scales>
<clustering>
<clus scale="   31.322">  1  6  2 -1</clus>
<clus scale="   47.574">  4  5 -1 -1</clus>
<clus scale="  113.560">  2  3  1 -1</clus>
<clus scale="   31.322">  1  3  2 -1</clus>
</clustering>
</event>
<event>
 6    0  0.1438923E+002  0.1610053E+03  0.7546771E-02  0.1187566E+00
         21   -1    0    0  506  501  0.00000000000E+00  0.00000000000E+00  0.64336553815E+03  0.64336553815E+03  0.00000000000E+00 0. -1.
         21   -1    0    0  501  502 -0.00000000000E+00 -0.00000000000E+00 -0.43603712178E+03  0.43603712178E+03  0.00000000000E+00 0. -1.
         21    1    1    2  503  504 -0.28883626707E+02 -0.10799806906E+03 -0.63329603200E+02  0.12848535113E+03  0.00000000000E+00 0.  1.
         21    1    1    2  504  502  0.17684863174E+02 -0.63221653247E+02 -0.32211139314E+03  0.32873314621E+03  0.00000000000E+00 0. -1.
         21    1    1    2  505  503  0.34189380040E+02  0.14960065220E+03  0.53224699057E+03  0.55392790850E+03  0.00000000000E+00 0. -1.
         21    1    1    2  506  505 -0.22990616507E+02  0.21619070109E+02  0.60522422146E+02  0.68256254088E+02  0.00000000000E+00 0. -1.
<scales pt_clust_3="14000.00000" pt_clust_4="65.49414" pt_clust_5="161.00533" pt_clust_6="31.55872"></scales>
<clustering>
<clus scale="   31.559">  1  6  2 -1</clus>
<clus scale="   65.494">  2  4  1 -1</clus>
<clus scale="  161.005">  1  5  2 -1</clus>
<clus scale="   31.559">  1  3  2 -1</clus>
</clustering>
</event>
<event>
 6    0  0.1438923E+002  0.8693095E+02  0.7546771E-02  0.1310459E+00
         21   -1    0    0  503  501  0.00000000000E+00  0.00000000000E+00  0.95172046847E+02  0.95172046847E+02  0.00000000000E+00 0. -1.
         21   -1    0    0  505  502 -0.00000000000E+00 -0.00000000000E+00 -0.31021892419E+03  0.31021892419E+03  0.00000000000E+00 0. -1.
         21    1    1    2  503  506  0.13027704757E+02  0.35866960977E+02  0.46264908943E+01  0.38439099872E+02  0.00000000000E+00 0. -1.
         21    1    1    2  504  501 -0.33852744121E+02 -0.16239420017E+02  0.21677161945E+02  0.43354658308E+02  0.00000000000E+00 0. -1.
         21    1    1    2  505  504 -0.75472334734E+02  0.30293949265E+02 -0.18339261482E+03  0.20061567198E+03  0.00000000000E+00 0. -1.
         21    1    1    2  506  502  0.96297374097E+02 -0.49921490225E+02 -0.57957915366E+02  0.12298154088E+03  0.00000000000E+00 0. -1.
<scales pt_clust_3="30.31807" pt_clust_4="37.54633" pt_clust_5="86.93095" pt_clust_6="14000.00000"></scales>
<clustering>
<clus scale="   37.546">  1  4  2 -1</clus>
<clus scale="   30.318">  1  3  2 -1</clus>
<clus scale="   86.931">  2  5  1 -1</clus>
<clus scale="   37.546">  1  3  2 -1</clus>
</clustering>
</event>
<event>
 6    0  0.1438923E+002  0.1164280E+03  0.7546771E-02  0.1249109E+00
         21   -1    0    0  505  501  0.00000000000E+00  0.00000000000E+00  0.40004657966E+02  0.40004657966E+02  0.00000000000E+00 0.  1.
         21   -1    0    0  504  502 -0.00000000000E+00 -0.00000000000E+00 -0.21989035648E+04  0.21989035648E+04  0.00000000000E+00 0.  1.
         21    1    1    2  503  502  0.59770258320E+01 -0.40055978622E+02 -0.16041016401E+04  0.16046128125E+04  0.00000000000E+00 0.  1.
         21    1    1    2  504  501  0.22693636244E+02 -0.11619950429E+03 -0.19321806303E+03  0.22660658817E+03  0.00000000000E+00 0.  1.
         21    1    1    2  505  506  0.14359602132E+02  0.11655895869E+03 -0.16465197101E+03  0.20224356747E+03  0.00000000000E+00 0.  1.
         21    1    1    2  506  503 -0.43030264208E+02  0.39696524221E+02 -0.19692723276E+03  0.20544525469E+03  0.00000000000E+00 0. -1.
<scales pt_clust_3="40.49946" pt_clust_4="116.42796" pt_clust_5="14000.00000" pt_clust_6="48.63172"></scales>
<clustering>
<clus scale="   40.499">  2  3  1 -1</clus>
<clus scale="   48.632">  2  6  1 -1</clus>
<clus scale="  116.428">  2  4  1 -1</clus>
<clus scale="  116.428">  1  3  2 -1</clus>
</clustering>
</event>
<event>
 6    0  0.1438923E+002  0.1349880E+03  0.7546771E-02  0.1220237E+00
         21   -1    0    0  505  501  0.00000000000E+00  0.00000000000E+00  0.46996561607E+03  0.46996561607E+03  0.00000000000E+00 0.  1.
         21   -1    0    0  503  502 -0.00000000000E+00 -0.00000000000E+00 -0.36995607290E+03  0.36995607290E+03  0.00000000000E+00 0.  1.
         21    1    1    2  503  501  0.64218061707E+02  0.28793226105E+02 -0.30968306167E+03  0.31757929404E+03  0.00000000000E+00 0.  1.
         21    1    1    2  504  502 -0.36340500897E+02  0.46171145004E+02  0.10030175269E+02  0.59607139274E+02  0.00000000000E+00 0.  1.
         21    1    1    2  505  506  0.34698257999E+02 -0.12511025128E+03  0.33643445986E+03  0.36061709591E+03  0.00000000000E+00 0.  1.
         21    1    1    2  506  504 -0.62575818809E+02  0.50145880170E+02  0.63227969706E+02  0.10211815975E+03  0.00000000000E+00 0.  1.
<scales pt_clust_3="70.37762" pt_clust_4="35.57187" pt_clust_5="128.43228" pt_clust_6="35.57187"></scales>
<clustering>
<clus scale="   35.572">  4  6 -1 -1</clus>
<clus scale="   70.378">  2  3  1 -1</clus>
<clus scale="  128.432">  1  5  2 -1</clus>
<clus scale="  128.432">  1  3  2 -1</clus>
</clustering>
</event>
<event>
 6    0  0.1438923E+002  0.9295093E+02  0.7546771E-02  0.1295859E+00
         21   -1    0    0  503  501  0.00000000000E+00  0.00000000000E+00  0.23124598467E+02  0.23124598467E+02  0.00000000000E+00 0.  1.
         21   -1    0    0  505  502 -0.00000000000E+00 -0.00000000000E+00 -0.14749953288E+04  0.14749953288E+04  0.00000000000E+00 0.  1.
         21    1    1    2  503  506 -0.93924462772E+01  0.77286577959E+02 -0.13306082767E+03  0.15416425344E+03  0.00000000000E+00 0.  1.
         21    1    1    2  504  502  0.13602939491E+02  0.45277947898E+02 -0.57323871297E+03  0.57518497422E+03  0.00000000000E+00 0.  1.
         21    1    1    2  505  501 -0.14960215581E+02  0.28397134091E+02 -0.20157168396E+03  0.20411111937E+03  0.00000000000E+00 0.  1.
         21    1    1    2  506  504  0.10749722367E+02 -0.15096165995E+03 -0.54399950571E+03  0.56465958020E+03  0.00000000000E+00 0.  1.
<scales pt_clust_3="14000.00000" pt_clust_4="58.49804" pt_clust_5="32.09681" pt_clust_6="92.95093"></scales>
<clustering>
<clus scale="   32.097">  2  5  1 -1</clus>
<clus scale="   58.498">  2  4  1 -1</clus>
<clus scale="   92.951">  2  6  1 -1</clus>
<clus scale="   92.951">  1  3  2 -1</clus>
</clustering>
</event>
<event>
 6    0  0.1438923E+002  0.1406924E+03  0.7546771E-02  0.1212400E+00
         21   -1    0    0  502  501  0.00000000000E+00  0.00000000000E+00  0.14458550444E+04  0.14458550444E+04  0.00000000000E+00 0.  1.
         21   -1    0    0  506  502 -0.00000000000E+00 -0.00000000000E+00 -0.22231010132E+03  0.22231010132E+03  0.00000000000E+00 0.  1.
         21    1    1    2  503  505 -0.53957385593E+02  0.95374306507E+01  0.24646297440E+03  0.25248041467E+03  0.00000000000E+00 0.  1.
         21    1    1    2  504  501 -0.17913317170E+02 -0.28762042315E+02  0.61387678513E+03  0.61481123065E+03  0.00000000000E+00 0. -1.
         21    1    1    2  505  504 -0.61008967190E+02 -0.15263221315E+01  0.55955880186E+03  0.56287696389E+03  0.00000000000E+00 0.  1.
         21    1    1    2  506  503  0.13287966995E+03  0.20750933796E+02 -0.19635361834E+03  0.23799653648E+03  0.00000000000E+00 0.  1.
<scales pt_clust_3="38.04832" pt_clust_4="33.88424" pt_clust_5="38.04832" pt_clust_6="133.93741"></scales>
<clustering>
<clus scale="   33.884">  1  4  2 -1</clus>
<clus scale="   38.048">  3  5 -1 -1</clus>
<clus scale="  133.937">  2  6  1 -1</clus>
<clus scale="   33.884">  1  3  2 -1</clus>
</clustering>
</event>
<event>
 6    0  0.1681188E+002  0.1233149E+03  0.7546771E-02  0.1237726E+00
         21   -1    0    0  506  501  0.00000000000E+00  0.00000000000E+00  0.28906358014E+03  0.28906358014E+03  0.00000000000E+00 0.  1.
         21   -1    0    0  504  502 -0.00000000000E+00 -0.00000000000E+00 -0.17575407926E+04  0.17575407926E+04  0.00000000000E+00 0.  1.
         21    1    1    2  503  501 -0.40108079957E+02 -0.60323216920E+02  0.18412832103E+03  0.19786557857E+03  0.00000000000E+00 0.  1.
         21    1    1    2  504  505  0.10828914053E+03  0.34362975850E+02 -0.17008924522E+04  0.17046825177E+04  0.00000000000E+00 0.  1.
         21    1    1    2  505  503 -0.34026587967E+02  0.10842262151E+01  0.82782948769E+02  0.89509780706E+02  0.00000000000E+00 0. -1.
         21    1    1    2  506  502 -0.34154472605E+02  0.24876014855E+02 -0.34496030022E+02  0.54546495774E+02  0.00000000000E+00 0.  1.
<scales pt_clust_3="33.14596" pt_clust_4="113.44077" pt_clust_5="33.14596" pt_clust_6="42.25333"></scales>
<clustering>
<clus scale="   33.146">  3  5 -1 -1</clus>
<clus scale="   42.253">  1  6  2 -1</clus>
<clus scale="  113.441">  2  4  1 -1</clus>
<clus scale="   42.253">  1  3  2 -1</clus>
</clustering>
</event>
<event>
 6    0  0.1438923E+002  0.1330419E+03  0.7546771E-02  0.1223011E+00
         21   -1    0    0  504  501  0.00000000000E+00  0.00000000000E+00  0.13177351346E+04  0.13177351346E+04  0.00000000000E+00 0.  1.
         21   -1    0    0  503  502 -0.00000000000E+00 -0.00000000000E+00 -0.29709843242E+02  0.29709843242E+02  0.00000000000E+00 0.  1.
         21    1    1    2  503  505 -0.26593982155E+02  0.20335232776E+02  0.26981574832E+01  0.33586331040E+02  0.00000000000E+00 0.  1.
         21    1    1    2  504  502  0.40480865473E+02 -0.12296551781E+03  0.94592149687E+03  0.95473907288E+03  0.00000000000E+00 0.  1.
         21    1    1    2  505  506 -0.14296395088E+02  0.37328177089E+02  0.59381877735E+02  0.71582030711E+02  0.00000000000E+00 0.  1.
         21    1    1    2  506  501  0.40951177010E+00  0.65302107943E+02  0.28002375923E+03  0.28753754318E+03  0.00000000000E+00 0.  1.
<scales pt_clust_3="33.47778" pt_clust_4="121.05904" pt_clust_5="47.55083" pt_clust_6="47.55083"></scales>
<clustering>
<clus scale="   33.478">  2  3  1 -1</clus>
<clus scale="   47.551">  5  6 -1 -1</clus>
<clus scale="  121.059">  1  4  2 -1</clus>
<clus scale="  121.059">  1  3  2 -1</clus>
</clustering>
</event>
<event>
 6    0  0.1438923E+002  0.1219877E+03  0.7546771E-02  0.1239854E+00
         21   -1    0    0  506  501  0.00000000000E+00  0.00000000000E+00  0.50780030185E+03  0.50780030185E+03  0.00000000000E+00 0.  1.
         21   -1    0    0  505  502 -0.00000000000E+00 -0.00000000000E+00 -0.43844408345E+03  0.43844408345E+03  0.00000000000E+00 0.  1.
         21    1    1    2  503  502  0.95941736990E+02 -0.46720281192E+02 -0.35520285229E+03  0.37088632739E+03  0.00000000000E+00 0.  1.
         21    1    1    2  504  503 -0.97459949956E+02  0.15722279737E+03  0.87501664763E+02  0.20463135438E+03  0.00000000000E+00 0.  1.
         21    1    1    2  505  501  0.31442629843E+02  0.43167800801E+01  0.41528514117E+02  0.52267495123E+02  0.00000000000E+00 0.  1.
         21    1    1    2  506  504 -0.29924416876E+02 -0.11481929626E+03  0.29552889182E+03  0.31845920840E+03  0.00000000000E+00 0.  1.
<scales pt_clust_3="107.16194" pt_clust_4="14000.00000" pt_clust_5="31.73757" pt_clust_6="121.98769"></scales>
<clustering>
<clus scale="   31.738">  1  5  2 -1</clus>
<clus scale="  107.162">  2  3  1 -1</clus>
<clus scale="  121.988">  1  6  2 -1</clus>
<clus scale="   31.738">  1  3  2 -1</clus>
</clustering>
</event>
<event>
 6    0  0.1438923E+002  0.1833477E+03  0.7546771E-02  0.1164602E+00
         21   -1    0    0  503  501  0.00000000000E+00  0.00000000000E+00  0.13431191067E+03  0.13431191067E+03  0.00000000000E+00 0. -1.
         21   -1    0    0  505  502 -0.00000000000E+00 -0.00000000000E+00 -0.30151130531E+03  0.30151130531E+03  0.00000000000E+00 0. -1.
         21    1    1    2  503  502  0.14772517373E+03  0.91946646979E+02 -0.86860349661E+02  0.19447784755E+03  0.00000000000E+00 0. -1.
         21    1    1    2  504  506 -0.46167061571E+02 -0.22823997116E+02 -0.34513722988E+02  0.61996205473E+02  0.00000000000E+00 0. -1.
         21    1    1    2  505  504 -0.18334246947E+02  0.25577877448E+02 -0.42947392275E+02  0.53243318164E+02  0.00000000000E+00 0. -1.
         21    1    1    2  506  501 -0.83223865209E+02 -0.94700527311E+02 -0.28779297125E+01  0.12610584480E+03  0.00000000000E+00 0. -1.
<scales pt_clust_3="173.74161" pt_clust_4="38.14131" pt_clust_5="31.47018" pt_clust_6="38.14131"></scales>
<clustering>
<clus scale="   31.470">  2  5  1 -1</clus>
<clus scale="   38.141">  4  6 -1 -1</clus>
<clus scale="  173.742">  2  3  1 -1</clus>
<clus scale="  183.348">  1  3  2 -1</clus>
</clustering>
</event>
<event>
 6    0  0.1438923E+002  0.1508619E+03  0.7546771E-02  0.1199418E+00
         21   -1    0    0  505  501  0.00000000000E+00  0.00000000000E+00  0.18696077870E+03  0.18696077870E+03  0.00000000000E+00 0.  1.
         21   -1    0    0  506  502 -0.00000000000E+00 -0.00000000000E+00 -0.52524221379E+03  0.52524221379E+03  0.00000000000E+00 0.  1.
         21    1    1    2  503  501 -0.15476504349E+02  0.75727861313E+02  0.10476453656E+03  0.13019154845E+03  0.00000000000E+00 0.  1.
         21    1    1    2  504  502  0.93880960029E+01 -0.13732596516E+03 -0.46489482591E+03  0.48484405349E+03  0.00000000000E+00 0.  1.
         21    1    1    2  505  504  0.37071181141E+02  0.18057242123E+02  0.90293960454E+01  0.42212160063E+02  0.00000000000E+00 0.  1.
         21    1    1    2  506  503 -0.30982772794E+02  0.43540861722E+02  0.12819458210E+02  0.54955230491E+02  0.00000000000E+00 0. -1.
<scales pt_clust_3="48.92633" pt_clust_4="136.70946" pt_clust_5="41.23514" pt_clust_6="48.92633"></scales>
<clustering>
<clus scale="   41.235">  1  5  2 -1</clus>
<clus scale="   48.926">  3  6 -1 -1</clus>
<clus scale="  136.709">  2  4  1 -1</clus>
<clus scale="   41.235">  1  3  2 -1</clus>
</clustering>
</event>
<event>
 6    0  0.1438923E+002  0.1102003E+03  0.7546771E-02  0.1260199E+00
         21   -1    0    0  506  501  0.00000000000E+00  0.00000000000E+00  0.92899485372E+03  0.92899485372E+03  0.00000000000E+00 0.  1.
         21   -1    0    0  503  502 -0.00000000000E+00 -0.00000000000E+00 -0.77331169516E+02  0.77331169516E+02  0.00000000000E+00 0. -1.
         21    1    1    2  503  501  0.60297811200E+02  0.13066972511E+03  0.34742360810E+03  0.37604995222E+03  0.00000000000E+00 0.  1.
         21    1    1    2  504  505 -0.37237918123E+02 -0.83835554049E+02  0.26386967760E+03  0.27936046504E+03  0.00000000000E+00 0.  1.
         21    1    1    2  505  502  0.41174526611E+01 -0.62008724623E+02 -0.36652980676E+02  0.72148987091E+02  0.00000000000E+00 0. -1.
         21    1    1    2  506  504 -0.27177345739E+02  0.15174553564E+02  0.27702337917E+03  0.27876661888E+03  0.00000000000E+00 0.  1.
<scales pt_clust_3="110.20027" pt_clust_4="14000.00000" pt_clust_5="61.68757" pt_clust_6="31.12676"></scales>
<clustering>
<clus scale="   31.127">  1  6  2 -1</clus>
<clus scale="   61.688">  2  5  1 -1</clus>
<clus scale="  110.200">  2  3  1 -1</clus>
<clus scale="   31.127">  1  3  2 -1</clus>
</clustering>
</event>
<event>
 6    0  0.1438923E+002  0.1153227E+03  0.7546771E-02  0.1251019E+00
         21   -1    0    0  505  501  0.00000000000E+00  0.00000000000E+00  0.73224446815E+03  0.73224446815E+03  0.00000000000E+00 0.  1.
         21   -1    0    0  506  502 -0.00000000000E+00 -0.00000000000E+00 -0.53143194789E+03  0.53143194789E+03  0.00000000000E+00 0.  1.
         21    1    1    2  503  504 -0.10929458058E+03 -0.39776389279E+02  0.37560672874E+03  0.39320208693E+03  0.00000000000E+00 0.  1.
         21    1    1    2  504  502  0.19516995771E+02  0.66705225321E+02 -0.49717497234E+03  0.50200941558E+03  0.00000000000E+00 0.  1.
         21    1    1    2  505  503 -0.58403955941E+00 -0.63091050782E+02  0.21253854442E+03  0.22170578399E+03  0.00000000000E+00 0.  1.
         21    1    1    2  506  501  0.90361624370E+02  0.36162214740E+02  0.10984221943E+03  0.14675912954E+03  0.00000000000E+00 0.  1.
<scales pt_clust_3="115.32274" pt_clust_4="69.21693" pt_clust_5="63.09375" pt_clust_6="14000.00000"></scales>
<clustering>
<clus scale="   63.094">  1  5  2 -1</clus>
<clus scale="   69.217">  2  4  1 -1</clus>
<clus scale="  115.323">  1  3  2 -1</clus>
<clus scale="   63.094">  1  3  2 -1</clus>
</clustering>
</event>
<event>
 6    0  0.1438923E+002  0.6822426E+02  0.7546771E-02  0.1366238E+00
         21   -1    0    0  505  501  0.00000000000E+00  0.00000000000E+00  0.27126975458E+03  0.27126975458E+03  0.00000000000E+00 0. -1.
         21   -1    0    0  503  502 -0.00000000000E+00 -0.00000000000E+00 -0.12780362750E+03  0.12780362750E+03  0.00000000000E+00 0. -1.
         21    1    1    2  503  504 -0.22841884961E+02 -0.77894908015E+02  0.68991028280E+01  0.81467576514E+02  0.00000000000E+00 0. -1.
         21    1    1    2  504  501 -0.25878717876E+02 -0.23020125488E+02  0.88085652579E+02  0.94650496072E+02  0.00000000000E+00 0. -1.
         21    1    1    2  505  506 -0.17475663070E+02  0.74464013299E+02  0.10644683845E+03  0.13107714328E+03  0.00000000000E+00 0. -1.
         21    1    1    2  506  502  0.66196265906E+02  0.26451020203E+02 -0.57965466770E+02  0.91878166218E+02  0.00000000000E+00 0. -1.
<scales pt_clust_3="14000.00000" pt_clust_4="34.63574" pt_clust_5="67.81579" pt_clust_6="68.22426"></scales>
<clustering>
<clus scale="   34.636">  1  4  2 -1</clus>
<clus scale="   68.224">  2  6  1 -1</clus>
<clus scale="   67.816">  1  5  2 -1</clus>
<clus scale="   34.636">  1  3  2 -1</clus>
</clustering>
</event>
<event>
 6    0  0.1438923E+002  0.1316248E+03  0.7546771E-02  0.1225064E+00
         21   -1    0    0  505  501  0.00000000000E+00  0.00000000000E+00  0.14606216317E+03  0.14606216317E+03  0.00000000000E+00 0.  1.
         21   -1    0    0  506  502 -0.00000000000E+00 -0.00000000000E+00 -0.12025135677E+04  0.12025135677E+04  0.00000000000E+00 0.  1.
         21    1    1    2  503  504  0.41060371884E+02  0.22066996389E+02  0.23275737271E+02  0.52102460733E+02  0.00000000000E+00 0.  1.
         21    1    1    2  504  502 -0.12199824029E+03  0.41523413804E+02 -0.11550275591E+04  0.11621946596E+04  0.00000000000E+00 0.  1.
         21    1    1    2  505  503  0.46974375923E+02 -0.10756102267E+02  0.36482771991E+02  0.60442355856E+02  0.00000000000E+00 0.  1.
         21    1    1    2  506  501  0.33963492487E+02 -0.52834307927E+02  0.38817645322E+02  0.73836254674E+02  0.00000000000E+00 0.  1.
<scales pt_clust_3="34.31333" pt_clust_4="126.91688" pt_clust_5="34.31333" pt_clust_6="62.80910"></scales>
<clustering>
<clus scale="   34.313">  3  5 -1 -1</clus>
<clus scale="   62.809">  1  6  2 -1</clus>
<clus scale="  126.917">  2  4  1 -1</clus>
<clus scale="   62.809">  1  3  2 -1</clus>
</clustering>
</event>
<event>
 6    0  0.1438923E+002  0.1523787E+03  0.7546771E-02  0.1197580E+00
         21   -1    0    0  502  501  0.00000000000E+00  0.00000000000E+00  0.35514209026E+03  0.35514209026E+03  0.00000000000E+00 0. -1.
         21   -1    0    0  504  502 -0.00000000000E+00 -0.00000000000E+00 -0.49889278109E+03  0.49889278109E+03  0.00000000000E+00 0. -1.
         21    1    1    2  503  505  0.30252723868E+01  0.57115876133E+02  0.12733502531E+03  0.13959077423E+03  0.00000000000E+00 0. -1.
         21    1    1    2  504  503 -0.65299965481E+01 -0.15054298596E+03 -0.46342579769E+03  0.48730822016E+03  0.00000000000E+00 0. -1.
         21    1    1    2  505  506 -0.27791256540E+02  0.47921523174E+02  0.14193940554E+03  0.15236673249E+03  0.00000000000E+00 0. -1.
         21    1    1    2  506  501  0.31295980702E+02  0.45505586648E+02  0.50400676005E+02  0.74769144478E+02  0.00000000000E+00 0. -1.
<scales pt_clust_3="32.40609" pt_clust_4="148.77835" pt_clust_5="32.40609" pt_clust_6="55.22859"></scales>
<clustering>
<clus scale="   32.406">  3  5 -1 -1</clus>
<clus scale="   55.229">  1  6  2 -1</clus>
<clus scale="  148.778">  2  4  1 -1</clus>
<clus scale="   55.229">  1  3  2 -1</clus>
</clustering>
</event>
<event>
 6    0  0.1438923E+002  0.2198007E+03  0.7546771E-02  0.1134032E+00
         21   -1    0    0  505  501  0.00000000000E+00  0.00000000000E+00  0.19084675796E+03  0.19084675796E+03  0.00000000000E+00 0. -1.
         21   -1    0    0  504  502 -0.00000000000E+00 -0.00000000000E+00 -0.12172121978E+04  0.12172121978E+04  0.00000000000E+00 0.  1.
         21    1    1    2  503  501 -0.20977372019E+02  0.64519931519E+02  0.24927718525E+02  0.72279062328E+02  0.00000000000E+00 0. -1.
         21    1    1    2  504  506 -0.45558899985E+02 -0.20773420039E+03 -0.10684745537E+04  0.10894342492E+04  0.00000000000E+00 0.  1.
         21    1    1    2  505  502  0.44931526376E+02 -0.34545136913E+02 -0.25675660767E+02  0.62220961923E+02  0.00000000000E+00 0.  1.
         21    1    1    2  506  503  0.21604745628E+02  0.17775940578E+03  0.42857056113E+02  0.18412468231E+03  0.00000000000E+00 0. -1.
<scales pt_clust_3="30.45741" pt_clust_4="214.15862" pt_clust_5="56.67635" pt_clust_6="30.45741"></scales>
<clustering>
<clus scale="   30.457">  3  6 -1 -1</clus>
<clus scale="   56.676">  1  5  2 -1</clus>
<clus scale="  214.159">  2  4  1 -1</clus>
<clus scale="   56.676">  1  3  2 -1</clus>
</clustering>
</event>
<event>
 6    0  0.1438923E+002  0.1374731E+03  0.7546771E-02  0.1216770E+00
         21   -1    0    0  503  501  0.00000000000E+00  0.00000000000E+00  0.37426737255E+03  0.37426737255E+03  0.00000000000E+00 0. -1.
         21   -1    0    0  504  502 -0.00000000000E+00 -0.00000000000E+00 -0.21287112966E+03  0.21287112966E+03  0.00000000000E+00 0. -1.
         21    1    1    2  503  502  0.72117420720E+02  0.77037053467E+02  0.70043156365E+02  0.12665572917E+03  0.00000000000E+00 0. -1.
         21    1    1    2  504  506 -0.31210899391E+02  0.41039270975E+01 -0.58637604972E+02  0.66553220623E+02  0.00000000000E+00 0. -1.
         21    1    1    2  505  501  0.71466752127E+02  0.89499002495E+01  0.22165062617E+03  0.23305921448E+03  0.00000000000E+00 0. -1.
         21    1    1    2  506  505 -0.11237327346E+03 -0.90090880814E+02 -0.71659934672E+02  0.16087033794E+03  0.00000000000E+00 0. -1.
<scales pt_clust_3="137.47311" pt_clust_4="31.47956" pt_clust_5="70.86943" pt_clust_6="14000.00000"></scales>
<clustering>
<clus scale="   31.480">  2  4  1 -1</clus>
<clus scale="   70.869">  1  5  2 -1</clus>
<clus scale="  137.473">  1  3  2 -1</clus>
<clus scale="   70.869">  1  3  2 -1</clus>
</clustering>
</event>
<event>
 6    0  0.1438923E+002  0.2474742E+03  0.7546771E-02  0.1114912E+00
         21   -1    0    0  505  501  0.00000000000E+00  0.00000000000E+00  0.15292594902E+04  0.15292594902E+04  0.00000000000E+00 0.  1.
         21   -1    0    0  503  502 -0.00000000000E+00 -0.00000000000E+00 -0.73977712401E+03  0.73977712401E+03  0.00000000000E+00 0.  1.
         21    1    1    2  503  504  0.34822864791E+02 -0.38190484143E+02 -0.68164064918E+03  0.68359719105E+03  0.00000000000E+00 0.  1.
         21    1    1    2  504  501  0.23929052915E+03 -0.39141252943E+02  0.49275659945E+03  0.54918217499E+03  0.00000000000E+00 0.  1.
         21    1    1    2  505  506 -0.22275062378E+03  0.12888732939E+03  0.85637406302E+03  0.89420709004E+03  0.00000000000E+00 0.  1.
         21    1    1    2  506  502 -0.51362770160E+02 -0.51555592301E+02  0.12199235288E+03  0.14205015811E+03  0.00000000000E+00 0. -1.
<scales pt_clust_3="51.68312" pt_clust_4="247.47417" pt_clust_5="14000.00000" pt_clust_6="73.76740"></scales>
<clustering>
<clus scale="   51.683">  2  3  1 -1</clus>
<clus scale="   73.767">  2  6  1 -1</clus>
<clus scale="  247.474">  2  4  1 -1</clus>
<clus scale="  247.474">  1  3  2 -1</clus>
</clustering>
</event>
<event>
 6    0  0.1438923E+002  0.1095528E+03  0.7546771E-02  0.1261400E+00
         21   -1    0    0  503  501  0.00000000000E+00  0.00000000000E+00  0.98045846540E+03  0.98045846540E+03  0.00000000000E+00 0.  1.
         21   -1    0    0  505  502 -0.00000000000E+00 -0.00000000000E+00 -0.82611613035E+03  0.82611613035E+03  0.00000000000E+00 0. -1.
         21    1    1    2  503  506 -0.48323771460E+02  0.46792369636E+02  0.91264478390E+02  0.11337511967E+03  0.00000000000E+00 0.  1.
         21    1    1    2  504  501  0.11813188134E+03  0.74400436650E+02  0.69966658016E+03  0.71345910167E+03  0.00000000000E+00 0.  1.
         21    1    1    2  505  504 -0.40854202277E+02 -0.65272548790E+02  0.16163303506E+03  0.17903856985E+03  0.00000000000E+00 0. -1.
         21    1    1    2  506  502 -0.28953907602E+02 -0.55920257496E+02 -0.79822175857E+03  0.80070180456E+03  0.00000000000E+00 0. -1.
<scales pt_clust_3="64.78384" pt_clust_4="109.55284" pt_clust_5="14000.00000" pt_clust_6="62.97145"></scales>
<clustering>
<clus scale="   62.971">  2  6  1 -1</clus>
<clus scale="   64.784">  2  3  1 -1</clus>
<clus scale="  109.553">  1  4  2 -1</clus>
<clus scale="  109.553">  1  3  2 -1</clus>
</clustering>
</event>
<event>
 6    0  0.1438923E+002  0.1224595E+03  0.7546771E-02  0.1239094E+00
         21   -1    0    0  504  501  0.00000000000E+00  0.00000000000E+00  0.59721048614E+02  0.59721048614E+02  0.00000000000E+00 0. -1.
         21   -1    0    0  506  502 -0.00000000000E+00 -0.00000000000E+00 -0.11458683374E+04  0.11458683374E+04  0.00000000000E+00 0. -1.
         21    1    1    2  503  505 -0.40111543424E+02 -0.39992527489E+02 -0.53517927862E+02  0.77926290643E+02  0.00000000000E+00 0.  1.
         21    1    1    2  504  503 -0.36802372068E+02  0.16485072756E+02 -0.50889014292E+02  0.64929684962E+02  0.00000000000E+00 0. -1.
         21    1    1    2  505  502  0.12945308381E+03  0.18917694799E+02 -0.99877828219E+03  0.10073102983E+04  0.00000000000E+00 0. -1.
         21    1    1    2  506  501 -0.52539168315E+02  0.45897599341E+01  0.17037935589E+02  0.55423112079E+02  0.00000000000E+00 0. -1.
<scales pt_clust_3="60.61272" pt_clust_4="40.32583" pt_clust_5="122.45950" pt_clust_6="14000.00000"></scales>
<clustering>
<clus scale="   40.326">  1  4  2 -1</clus>
<clus scale="   60.613">  1  3  2 -1</clus>
<clus scale="  122.459">  2  5  1 -1</clus>
<clus scale="   40.326">  1  3  2 -1</clus>
</clustering>
</event>
<event>
 6    0  0.1438923E+002  0.1242041E+03  0.7546771E-02  0.1236318E+00
         21   -1    0    0  504  501  0.00000000000E+00  0.00000000000E+00  0.34711402109E+03  0.34711402109E+03  0.00000000000E+00 0. -1.
         21   -1    0    0  506  502 -0.00000000000E+00 -0.00000000000E+00 -0.49068192938E+03  0.49068192938E+03  0.00000000000E+00 0. -1.
         21    1    1    2  503  505  0.32841769159E+02  0.29053296456E+02  0.49926441777E+02  0.66447915129E+02  0.00000000000E+00 0.  1.
         21    1    1    2  504  502 -0.12104156319E+03 -0.84779349134E+02  0.22687952737E+03  0.27076358322E+03  0.00000000000E+00 0. -1.
         21    1    1    2  505  501  0.71815739043E+01 -0.37542188620E+02  0.20049094938E+02  0.43161987187E+02  0.00000000000E+00 0. -1.
         21    1    1    2  506  503  0.81018220123E+02  0.93268241297E+02 -0.44042297238E+03  0.45742246493E+03  0.00000000000E+00 0. -1.
<scales pt_clust_3="40.70690" pt_clust_4="124.20409" pt_clust_5="38.22291" pt_clust_6="14000.00000"></scales>
<clustering>
<clus scale="   38.223">  1  5  2 -1</clus>
<clus scale="   40.707">  1  3  2 -1</clus>
<clus scale="  124.204">  1  4  2 -1</clus>
<clus scale="   38.223">  1  3  2 -1</clus>
</clustering>
</event>
<event>
 6    0  0.1438923E+002  0.1568435E+03  0.7546771E-02  0.1192307E+00
         21   -1    0    0  506  501  0.00000000000E+00  0.00000000000E+00  0.15071331586E+03  0.15071331586E+03  0.00000000000E+00 0.  1.
         21   -1    0    0  503  502 -0.00000000000E+00 -0.00000000000E+00 -0.68194178185E+03  0.68194178185E+03  0.00000000000E+00 0.  1.
         21    1    1    2  503  504  0.11846611492E+02 -0.74700089530E+02 -0.81256900580E+02  0.11100959180E+03  0.00000000000E+00 0. -1.
         21    1    1    2  504  501  0.12444382883E+03  0.49526135573E+02 -0.52813088604E+03  0.54484983016E+03  0.00000000000E+00 0.  1.
         21    1    1    2  505  502 -0.77253553491E+02 -0.24892315711E+02  0.40886210281E+02  0.90881357271E+02  0.00000000000E+00 0.  1.
         21    1    1    2  506  505 -0.59036886833E+02  0.50066269668E+02  0.37273110340E+02  0.85914318480E+02  0.00000000000E+00 0.  1.
<scales pt_clust_3="75.63363" pt_clust_4="136.60479" pt_clust_5="75.26030" pt_clust_6="75.26030"></scales>
<clustering>
<clus scale="   75.260">  5  6 -1 -1</clus>
<clus scale="   75.634">  2  3  1 -1</clus>
<clus scale="  136.605">  2  4  1 -1</clus>
<clus scale="  156.844">  1  3  2 -1</clus>
</clustering>
</event>
<event>
 6    0  0.1438923E+002  0.9206348E+02  0.7546771E-02  0.1297930E+00
         21   -1    0    0  506  501  0.00000000000E+00  0.00000000000E+00  0.62503106251E+03  0.62503106251E+03  0.00000000000E+00 0.  1.
         21   -1    0    0  504  502 -0.00000000000E+00 -0.00000000000E+00 -0.35232868239E+03  0.35232868239E+03  0.00000000000E+00 0.  1.
         21    1    1    2  503  505 -0.38116031672E+02 -0.45232684632E+02  0.61662517345E+02  0.85446437461E+02  0.00000000000E+00 0.  1.
         21    1    1    2  504  501 -0.95297013447E+01  0.63159676339E+02 -0.10213440281E+02  0.64685966680E+02  0.00000000000E+00 0. -1.
         21    1    1    2  505  502 -0.42894218448E+02  0.22322335684E+02 -0.29632799582E+03  0.30024736760E+03  0.00000000000E+00 0.  1.
         21    1    1    2  506  503  0.90539951465E+02 -0.40249327391E+02  0.51758129887E+03  0.52697997315E+03  0.00000000000E+00 0.  1.
<scales pt_clust_3="62.34769" pt_clust_4="92.06348" pt_clust_5="48.35494" pt_clust_6="14000.00000"></scales>
<clustering>
<clus scale="   48.355">  2  5  1 -1</clus>
<clus scale="   62.348">  2  3  1 -1</clus>
<clus scale="   92.063">  2  4  1 -1</clus>
<clus scale="   92.063">  1  3  2 -1</clus>
</clustering>
</event>
<event>
 6    0  0.1438923E+002  0.1426768E+03  0.7546771E-02  0.1209772E+00
         21   -1    0    0  503  501  0.00000000000E+00  0.00000000000E+00  0.29305706306E+03  0.29305706306E+03  0.00000000000E+00 0.  1.
         21   -1    0    0  504  502 -0.00000000000E+00 -0.00000000000E+00 -0.41576879625E+03  0.41576879625E+03  0.00000000000E+00 0.  1.
         21    1    1    2  503  505  0.76777183667E+02  0.55257074998E+01  0.17629529902E+03  0.19236762158E+03  0.00000000000E+00 0.  1.
         21    1    1    2  504  501 -0.13158802910E+03 -0.63263235695E+02 -0.37307517600E+03  0.40062792381E+03  0.00000000000E+00 0.  1.
         21    1    1    2  505  506  0.15478739701E+02  0.33109767176E+02  0.54149098241E+02  0.65329724518E+02  0.00000000000E+00 0.  1.
         21    1    1    2  506  502  0.39332105731E+02  0.24627761019E+02  0.19919045545E+02  0.50500589398E+02  0.00000000000E+00 0. -1.
<scales pt_clust_3="76.97577" pt_clust_4="136.98154" pt_clust_5="35.41774" pt_clust_6="35.41774"></scales>
<clustering>
<clus scale="   35.418">  5  6 -1 -1</clus>
<clus scale="   76.976">  1  3  2 -1</clus>
<clus scale="  136.982">  2  4  1 -1</clus>
<clus scale="   76.976">  1  3  2 -1</clus>
</clustering>
</event>
<event>
 6    0  0.1438923E+002  0.3333446E+03  0.7546771E-02  0.1069667E+00
         21   -1    0    0  506  501  0.00000000000E+00  0.00000000000E+00  0.29366305619E+04  0.29366305619E+04  0.00000000000E+00 0.  1.
         21   -1    0    0  505  502 -0.00000000000E+00 -0.00000000000E+00 -0.60667191022E+02  0.60667191022E+02  0.00000000000E+00 0. -1.
         21    1    1    2  503  502 -0.30629163601E+02 -0.30036652623E+02  0.22758856968E+02  0.48562451896E+02  0.00000000000E+00 0. -1.
         21    1    1    2  504  501  0.22363112393E+03  0.10041650023E+02  0.15239393619E+04  0.15402931192E+04  0.00000000000E+00 0.  1.
         21    1    1    2  505  504  0.11361083225E+03  0.31035195652E+02  0.68258594008E+03  0.69267176221E+03  0.00000000000E+00 0.  1.
         21    1    1    2  506  503 -0.30661279258E+03 -0.11040193053E+02  0.64667921189E+03  0.71577041957E+03  0.00000000000E+00 0. -1.
<scales pt_clust_3="42.89926" pt_clust_4="32.10222" pt_clust_5="32.10222" pt_clust_6="330.39341"></scales>
<clustering>
<clus scale="   32.102">  4  5 -1 -1</clus>
<clus scale="   42.899">  2  3  1 -1</clus>
<clus scale="  330.393">  2  6  1 -1</clus>
<clus scale="  333.345">  1  3  2 -1</clus>
</clustering>
</event>
<event>
 6    0  0.1438923E+002  0.1065021E+03  0.7546771E-02  0.1267188E+00
         21   -1    0    0  504  501  0.00000000000E+00  0.00000000000E+00  0.75338215870E+02  0.75338215870E+02  0.00000000000E+00 0. -1.
         21   -1    0    0  506  502 -0.00000000000E+00 -0.00000000000E+00 -0.24767571561E+03  0.24767571561E+03  0.00000000000E+00 0. -1.
         21    1    1    2  503  501 -0.57760783451E+02  0.25913272625E+01 -0.29012221967E+02  0.64689505372E+02  0.00000000000E+00 0. -1.
         21    1    1    2  504  505  0.90790812971E+02  0.48600945854E+02 -0.23279539290E+02  0.10557916749E+03  0.00000000000E+00 0. -1.
         21    1    1    2  505  502  0.56493652889E+01 -0.52499293171E+02 -0.50001640358E+02  0.72720390195E+02  0.00000000000E+00 0. -1.
         21    1    1    2  506  503 -0.38679394808E+02  0.13070200547E+01 -0.70044098126E+02  0.80024868425E+02  0.00000000000E+00 0. -1.
<scales pt_clust_3="34.84740" pt_clust_4="97.61403" pt_clust_5="52.80238" pt_clust_6="34.84740"></scales>
<clustering>
<clus scale="   34.847">  3  6 -1 -1</clus>
<clus scale="   52.802">  2  5  1 -1</clus>
<clus scale="   97.614">  1  4  2 -1</clus>
<clus scale="   97.614">  1  3  2 -1</clus>
</clustering>
</event>
<event>
 6    0  0.1438923E+002  0.1577616E+03  0.7546771E-02  0.1191247E+00
         21   -1    0    0  506  501  0.00000000000E+00  0.00000000000E+00  0.22964913956E+03  0.22964913956E+03  0.00000000000E+00 0. -1.
         21   -1    0    0  503  502 -0.00000000000E+00 -0.00000000000E+00 -0.61416982277E+03  0.61416982277E+03  0.00000000000E+00 0.  1.
         21    1    1    2  503  504  0.50915673595E+02 -0.17324261207E+03 -0.17848212068E+03  0.25389225245E+03  0.00000000000E+00 0. -1.
         21    1    1    2  504  501  0.12125653401E+02  0.17293436902E+03  0.11484643483E+03  0.20794958776E+03  0.00000000000E+00 0. -1.
         21    1    1    2  505  502 -0.95164504834E+01  0.32607573351E+02 -0.31756208889E+03  0.31937360092E+03  0.00000000000E+00 0.  1.
         21    1    1    2  506  505 -0.53524876514E+02 -0.32299330300E+02 -0.33229084764E+01  0.62603521182E+02  0.00000000000E+00 0. -1.
<scales pt_clust_3="157.76163" pt_clust_4="14000.00000" pt_clust_5="33.96788" pt_clust_6="61.65427"></scales>
<clustering>
<clus scale="   33.968">  2  5  1 -1</clus>
<clus scale="   61.654">  1  6  2 -1</clus>
<clus scale="  157.762">  2  3  1 -1</clus>
<clus scale="   61.654">  1  3  2 -1</clus>
</clustering>
</event>
<event>
 6    0  0.1823908E+002  0.1550037E+03  0.7546771E-02  0.1194456E+00
         21   -1    0    0  504  501  0.00000000000E+00  0.00000000000E+00  0.40412083630E+03  0.40412083630E+03  0.00000000000E+00 0. -1.
         21   -1    0    0  505  502 -0.00000000000E+00 -0.00000000000E+00 -0.44394480878E+03  0.44394480878E+03  0.00000000000E+00 0. -1.
         21    1    1    2  503  506 -0.30900630099E+02  0.11078521071E+02 -0.45549688248E+02  0.56145851754E+02  0.00000000000E+00 0. -1.
         21    1    1    2  504  503  0.11565213466E+03  0.10812254212E+03  0.36445505009E+03  0.39735800470E+03  0.00000000000E+00 0. -1.
         21    1    1    2  505  501 -0.67490577410E+02 -0.94584525966E+02 -0.18655126294E+03  0.21977848915E+03  0.00000000000E+00 0. -1.
         21    1    1    2  506  502 -0.17260927153E+02 -0.24616537223E+02 -0.17217807139E+03  0.17478329948E+03  0.00000000000E+00 0. -1.
<scales pt_clust_3="34.74967" pt_clust_4="14000.00000" pt_clust_5="155.00370" pt_clust_6="30.06515"></scales>
<clustering>
<clus scale="   30.065">  2  6  1 -1</clus>
<clus scale="   34.750">  2  3  1 -1</clus>
<clus scale="  155.004">  2  5  1 -1</clus>
<clus scale="  155.004">  1  3  2 -1</clus>
</clustering>
</event>
<event>
 6    0  0.1438923E+002  0.1135752E+03  0.7546771E-02  0.1254089E+00
         21   -1    0    0  503  501  0.00000000000E+00  0.00000000000E+00  0.15566439287E+03  0.15566439287E+03  0.00000000000E+00 0.  1.
         21   -1    0    0  506  502 -0.00000000000E+00 -0.00000000000E+00 -0.11444779437E+04  0.11444779437E+04  0.00000000000E+00 0. -1.
         21    1    1    2  503  504  0.20613835497E+02 -0.12218731459E+03  0.10802723529E+03  0.16439146458E+03  0.00000000000E+00 0.  1.
         21    1    1    2  504  505 -0.88575284768E+01  0.77315497864E+02 -0.14176208590E+03  0.16171775109E+03  0.00000000000E+00 0. -1.
         21    1    1    2  505  502  0.24143321302E+02  0.51657321562E+02 -0.92487103411E+03  0.92662711409E+03  0.00000000000E+00 0. -1.
         21    1    1    2  506  501 -0.35899628322E+02 -0.67855048372E+01 -0.30207666102E+02  0.47406006802E+02  0.00000000000E+00 0. -1.
<scales pt_clust_3="113.57520" pt_clust_4="14000.00000" pt_clust_5="56.89368" pt_clust_6="36.53528"></scales>
<clustering>
<clus scale="   36.535">  1  6  2 -1</clus>
<clus scale="   56.894">  2  5  1 -1</clus>
<clus scale="  113.575">  1  3  2 -1</clus>
<clus scale="   36.535">  1  3  2 -1</clus>
</clustering>
</event>
<event>
 6    0  0.1438923E+002  0.1455229E+03  0.7546771E-02  0.1206085E+00
         21   -1    0    0  506  501  0.00000000000E+00  0.00000000000E+00  0.42932677290E+02  0.42932677290E+02  0.00000000000E+00 0. -1.
         21   -1    0    0  501  502 -0.00000000000E+00 -0.00000000000E+00 -0.24162396831E+04  0.24162396831E+04  0.00000000000E+00 0. -1.
         21    1    1    2  503  502 -0.13702145316E+03  0.11180738812E+02 -0.20924431056E+04  0.20969544672E+04  0.00000000000E+00 0. -1.
         21    1    1    2  504  505  0.42184068776E+02  0.47423861320E+02 -0.72168264976E+02  0.96108151322E+02  0.00000000000E+00 0. -1.
         21    1    1    2  505  503  0.86843109568E+02  0.14730673713E+02 -0.87027797839E+02  0.12382469876E+03  0.00000000000E+00 0. -1.
         21    1    1    2  506  504  0.79942748154E+01 -0.73335273845E+02 -0.12166783738E+03  0.14228504304E+03  0.00000000000E+00 0. -1.
<scales pt_clust_3="136.60544" pt_clust_4="42.57780" pt_clust_5="42.57780" pt_clust_6="73.76971"></scales>
<clustering>
<clus scale="   42.578">  4  5 -1 -1</clus>
<clus scale="   73.770">  1  6  2 -1</clus>
<clus scale="  136.605">  2  3  1 -1</clus>
<clus scale="   73.770">  1  3  2 -1</clus>
</clustering>
</event>
<event>
 6    0  0.1438923E+002  0.1805826E+03  0.7546771E-02  0.1167240E+00
         21   -1    0    0  504  501  0.00000000000E+00  0.00000000000E+00  0.30508987034E+03  0.30508987034E+03  0.00000000000E+00 0. -1.
         21   -1    0    0  501  502 -0.00000000000E+00 -0.00000000000E+00 -0.63282958089E+03  0.63282958089E+03  0.00000000000E+00 0.  1.
         21    1    1    2  503  502 -0.81229336247E+02  0.22871379010E+02 -0.47411219420E+03  0.48156378366E+03  0.00000000000E+00 0.  1.
         21    1    1    2  504  506  0.26005203466E+02 -0.17641992790E+03  0.20731850357E+03  0.27346155761E+03  0.00000000000E+00 0. -1.
         21    1    1    2  505  503  0.40999727867E+02  0.92300397147E+02 -0.91151251894E+01  0.10140723103E+03  0.00000000000E+00 0. -1.
         21    1    1    2  506  505  0.14224404915E+02  0.61248151745E+02 -0.51830894727E+02  0.81486878916E+02  0.00000000000E+00 0. -1.
<scales pt_clust_3="84.38783" pt_clust_4="171.75882" pt_clust_5="43.99518" pt_clust_6="43.99518"></scales>
<clustering>
<clus scale="   43.995">  5  6 -1 -1</clus>
<clus scale="   84.388">  2  3  1 -1</clus>
<clus scale="  171.759">  1  4  2 -1</clus>
<clus scale="  171.759">  1  3  2 -1</clus>
</clustering>
</event>
<event>
 6    0  0.1438923E+002  0.1479776E+03  0.7546771E-02  0.1202980E+00
         21   -1    0    0  504  501  0.00000000000E+00  0.00000000000E+00  0.73050209165E+02  0.73050209165E+02  0.00000000000E+00 0. -1.
         21   -1    0    0  503  502 -0.00000000000E+00 -0.00000000000E+00 -0.38569184355E+03  0.38569184355E+03  0.00000000000E+00 0. -1.
         21    1    1    2  503  506  0.12587299311E+03 -0.41317315597E+02 -0.16660872624E+03  0.21286051448E+03  0.00000000000E+00 0. -1.
         21    1    1    2  504  505 -0.56449409804E+02 -0.15485794809E+02 -0.30006941370E+02  0.65778128876E+02  0.00000000000E+00 0. -1.
         21    1    1    2  505  502 -0.89849731251E+02  0.27403272578E+02 -0.10851473121E+03  0.14352477293E+03  0.00000000000E+00 0. -1.
         21    1    1    2  506  501  0.20426147945E+02  0.29399837828E+02 -0.75112355651E+01  0.36578636442E+02  0.00000000000E+00 0. -1.
<scales pt_clust_3="137.19834" pt_clust_4="41.30185" pt_clust_5="41.30185" pt_clust_6="35.79913"></scales>
<clustering>
<clus scale="   35.799">  1  6  2 -1</clus>
<clus scale="   41.302">  4  5 -1 -1</clus>
<clus scale="  137.198">  2  3  1 -1</clus>
<clus scale="   35.799">  1  3  2 -1</clus>
</clustering>
</event>
<event>
 6    0  0.1438923E+002  0.1534713E+03  0.7546771E-02  0.1196271E+00
         21   -1    0    0  504  501  0.00000000000E+00  0.00000000000E+00  0.61814490748E+02  0.61814490748E+02  0.00000000000E+00 0. -1.
         21   -1    0    0  503  502 -0.00000000000E+00 -0.00000000000E+00 -0.12379044856E+04  0.12379044856E+04  0.00000000000E+00 0. -1.
         21    1    1    2  503  505  0.45768281163E+02 -0.11445519791E+02 -0.15058977512E+03  0.15780689419E+03  0.00000000000E+00 0. -1.
         21    1    1    2  504  506 -0.15077496206E+03 -0.34547338936E+02 -0.85759256852E+02  0.17686508403E+03  0.00000000000E+00 0. -1.
         21    1    1    2  505  501  0.68422985276E+02  0.27967659746E+02 -0.10019363601E+03  0.12450967674E+03  0.00000000000E+00 0. -1.
         21    1    1    2  506  502  0.36583695622E+02  0.18025198981E+02 -0.83954732689E+03  0.84053732140E+03  0.00000000000E+00 0. -1.
<scales pt_clust_3="49.61557" pt_clust_4="141.61832" pt_clust_5="49.61557" pt_clust_6="40.78326"></scales>
<clustering>
<clus scale="   40.783">  2  6  1 -1</clus>
<clus scale="   49.616">  3  5 -1 -1</clus>
<clus scale="  141.618">  1  4  2 -1</clus>
<clus scale="  141.618">  1  3  2 -1</clus>
</clustering>
</event>
<event>
 6    0  0.1438923E+002  0.1077759E+03  0.7546771E-02  0.1264745E+00
         21   -1    0    0  506  501  0.00000000000E+00  0.00000000000E+00  0.39030400392E+03  0.39030400392E+03  0.00000000000E+00 0.  1.
         21   -1    0    0  505  502 -0.00000000000E+00 -0.00000000000E+00 -0.13747770621E+03  0.13747770621E+03  0.00000000000E+00 0.  1.
         21    1    1    2  503  504 -0.39058631730E+00  0.67011686283E+02  0.79125155381E+02  0.10368948293E+03  0.00000000000E+00 0.  1.
         21    1    1    2  504  502 -0.70835048322E+02 -0.41506585921E+02 -0.86742511466E+02  0.11943476898E+03  0.00000000000E+00 0.  1.
         21    1    1    2  505  501  0.42926493280E+02 -0.83094339745E+02  0.14407183419E+03  0.17176741987E+03  0.00000000000E+00 0.  1.
         21    1    1    2  506  503  0.28299141360E+02  0.57589239383E+02  0.11637181961E+03  0.13289003835E+03  0.00000000000E+00 0.  1.
<scales pt_clust_3="37.21677" pt_clust_4="82.09994" pt_clust_5="100.84203" pt_clust_6="37.21677"></scales>
<clustering>
<clus scale="   37.217">  3  6 -1 -1</clus>
<clus scale="   82.100">  2  4  1 -1</clus>
<clus scale="  100.842">  1  5  2 -1</clus>
<clus scale="  100.842">  1  3  2 -1</clus>
</clustering>
</event>
<event>
 6    0  0.1438923E+002  0.1319321E+03  0.7546771E-02  0.1224617E+00
         21   -1    0    0  505  501  0.00000000000E+00  0.00000000000E+00  0.21315842028E+02  0.21315842028E+02  0.00000000000E+00 0.  1.
         21   -1    0    0  504  502 -0.00000000000E+00 -0.00000000000E+00 -0.18053041894E+04  0.18053041894E+04  0.00000000000E+00 0.  1.
         21    1    1    2  503  506  0.55343704950E+02 -0.60979705048E+02 -0.12836623776E+03  0.15251013443E+03  0.00000000000E+00 0.  1.
         21    1    1    2  504  503 -0.38243233846E+02 -0.52819517010E+01 -0.88801239734E+03  0.88885120340E+03  0.00000000000E+00 0. -1.
         21    1    1    2  505  502 -0.61585092930E+02  0.90641227274E+02 -0.60752482140E+03  0.61732889482E+03  0.00000000000E+00 0.  1.
         21    1    1    2  506  501  0.44484621825E+02 -0.24379570525E+02 -0.16008489084E+03  0.16792979877E+03  0.00000000000E+00 0.  1.
<scales pt_clust_3="37.02818" pt_clust_4="38.60627" pt_clust_5="123.20832" pt_clust_6="37.02818"></scales>
<clustering>
<clus scale="   37.028">  3  6 -1 -1</clus>
<clus scale="   38.606">  2  4  1 -1</clus>
<clus scale="  123.208">  2  5  1 -1</clus>
<clus scale="  131.932">  1  3  2 -1</clus>
</clustering>
</event>
<event>
 6    0  0.1438923E+002  0.1416868E+03  0.7546771E-02  0.1211077E+00
         21   -1    0    0  504  501  0.00000000000E+00  0.00000000000E+00  0.92411976450E+03  0.92411976450E+03  0.00000000000E+00 0.  1.
         21   -1    0    0  505  502 -0.00000000000E+00 -0.00000000000E+00 -0.30858688892E+02  0.30858688892E+02  0.00000000000E+00 0.  1.
         21    1    1    2  503  502  0.63704857985E+01  0.46251793704E+02  0.81773304860E+02  0.94163076085E+02  0.00000000000E+00 0.  1.
         21    1    1    2  504  506  0.64516664726E+02 -0.30474010847E+02  0.27261151411E+03  0.28179443392E+03  0.00000000000E+00 0.  1.
         21    1    1    2  505  501 -0.14060829573E+03 -0.13280847808E+02  0.33567884588E+03  0.36418039667E+03  0.00000000000E+00 0.  1.
         21    1    1    2  506  503  0.69721145208E+02 -0.24969350494E+01  0.20319741076E+03  0.21484054672E+03  0.00000000000E+00 0.  1.
<scales pt_clust_3="46.68845" pt_clust_4="33.46405" pt_clust_5="137.58578" pt_clust_6="33.46405"></scales>
<clustering>
<clus scale="   33.464">  4  6 -1 -1</clus>
<clus scale="   46.688">  2  3  1 -1</clus>
<clus scale="  137.586">  2  5  1 -1</clus>
<clus scale="  141.687">  1  3  2 -1</clus>
</clustering>
</event>
<event>
 6    0  0.1438923E+002  0.1308032E+03  0.7546771E-02  0.1226269E+00
         21   -1    0    0  502  501  0.00000000000E+00  0.00000000000E+00  0.28312634165E+03  0.28312634165E+03  0.00000000000E+00 0. -1.
         21   -1    0    0  504  502 -0.00000000000E+00 -0.00000000000E+00 -0.56345347229E+03  0.56345347229E+03  0.00000000000E+00 0. -1.
         21    1    1    2  503  505 -0.36500310319E+02 -0.18735582557E+02  0.34245139651E+02  0.53441784185E+02  0.00000000000E+00 0. -1.
         21    1    1    2  504  506  0.39028856617E+02 -0.20142650644E+02 -0.46340986322E+03  0.46548649750E+03  0.00000000000E+00 0. -1.
         21    1    1    2  505  501 -0.80967296453E+02 -0.26821873358E+02  0.19691961567E+03  0.21459834814E+03  0.00000000000E+00 0. -1.
         21    1    1    2  506  503  0.78438750156E+02  0.65700106559E+02 -0.48082022748E+02  0.11305318412E+03  0.00000000000E+00 0.  1.
<scales pt_clust_3="34.91440" pt_clust_4="43.92013" pt_clust_5="34.91440" pt_clust_6="120.72788"></scales>
<clustering>
<clus scale="   34.914">  3  5 -1 -1</clus>
<clus scale="   43.920">  2  4  1 -1</clus>
<clus scale="  120.728">  2  6  1 -1</clus>
<clus scale="  130.803">  1  3  2 -1</clus>
</clustering>
</event>
<event>
 6    0  0.1438923E+002  0.1401376E+03  0.7546771E-02  0.1213144E+00
         21   -1    0    0  505  501  0.00000000000E+00  0.00000000000E+00  0.56159945800E+03  0.56159945800E+03  0.00000000000E+00 0.  1.
         21   -1    0    0  503  502 -0.00000000000E+00 -0.00000000000E+00 -0.55565139016E+02  0.55565139016E+02  0.00000000000E+00 0. -1.
         21    1    1    2  503  504  0.44408094868E+02 -0.13290136855E+02  0.54941473264E+02  0.71883740247E+02  0.00000000000E+00 0.  1.
         21    1    1    2  504  506  0.37954261131E+02  0.79943809483E+02  0.42718110871E+02  0.98266859160E+02  0.00000000000E+00 0. -1.
         21    1    1    2  505  502 -0.83387097575E+02 -0.10742008832E+03  0.35265699531E+03  0.37796751151E+03  0.00000000000E+00 0.  1.
         21    1    1    2  506  501  0.10247415751E+01  0.40766415689E+02  0.55717739546E+02  0.69046486106E+02  0.00000000000E+00 0.  1.
<scales pt_clust_3="46.35414" pt_clust_4="31.93957" pt_clust_5="132.00273" pt_clust_6="31.93957"></scales>
<clustering>
<clus scale="   31.940">  4  6 -1 -1</clus>
<clus scale="   46.354">  2  3  1 -1</clus>
<clus scale="  132.003">  1  5  2 -1</clus>
<clus scale="  132.003">  1  3  2 -1</clus>
</clustering>
</event>
<event>
 6    0  0.1438923E+002  0.1357472E+03  0.7546771E-02  0.1219169E+00
         21   -1    0    0  504  501  0.00000000000E+00  0.00000000000E+00  0.21366454746E+03  0.21366454746E+03  0.00000000000E+00 0.  1.
         21   -1    0    0  503  502 -0.00000000000E+00 -0.00000000000E+00 -0.32045202087E+03  0.32045202087E+03  0.00000000000E+00 0. -1.
         21    1    1    2  503  506  0.10388295319E+03  0.91182959568E+00 -0.56828318993E+02  0.11841434557E+03  0.00000000000E+00 0. -1.
         21    1    1    2  504  505 -0.17956151703E+03  0.16570283514E+02  0.58841743877E+02  0.18968200630E+03  0.00000000000E+00 0.  1.
         21    1    1    2  505  502  0.35474334637E+02  0.47443800304E+01 -0.15606068180E+03  0.16011206689E+03  0.00000000000E+00 0. -1.
         21    1    1    2  506  501  0.40204229204E+02 -0.22226493140E+02  0.47259783505E+02  0.65908149573E+02  0.00000000000E+00 0. -1.
<scales pt_clust_3="135.74719" pt_clust_4="14000.00000" pt_clust_5="35.79019" pt_clust_6="47.60585"></scales>
<clustering>
<clus scale="   35.790">  2  5  1 -1</clus>
<clus scale="   47.606">  1  6  2 -1</clus>
<clus scale="  135.747">  2  3  1 -1</clus>
<clus scale="   47.606">  1  3  2 -1</clus>
</clustering>
</event>
<event>
 6    0  0.1438923E+002  0.1381768E+03  0.7546771E-02  0.1215803E+00
         21   -1    0    0  503  501  0.00000000000E+00  0.00000000000E+00  0.22708222224E+04  0.22708222224E+04  0.00000000000E+00 0. -1.
         21   -1    0    0  504  502 -0.00000000000E+00 -0.00000000000E+00 -0.23756554211E+02  0.23756554211E+02  0.00000000000E+00 0. -1.
         21    1    1    2  503  506 -0.31439485346E+00 -0.12355624578E+03  0.12298396159E+04  0.12360306329E+04  0.00000000000E+00 0. -1.
         21    1    1    2  504  505 -0.47429211169E+02 -0.15966858489E+02  0.36934227646E+03  0.37271730282E+03  0.00000000000E+00 0. -1.
         21    1    1    2  505  501 -0.30300834559E+02  0.16810567213E+02  0.37514775470E+03  0.37674470613E+03  0.00000000000E+00 0. -1.
         21    1    1    2  506  502  0.78044440582E+02  0.12271253706E+03  0.27273602116E+03  0.30908613475E+03  0.00000000000E+00 0. -1.
<scales pt_clust_3="14000.00000" pt_clust_4="86.18524" pt_clust_5="30.97013" pt_clust_6="138.17683"></scales>
<clustering>
<clus scale="   30.970">  4  5 -1 -1</clus>
<clus scale="   86.185">  1  4  2 -1</clus>
<clus scale="  138.177">  2  6  1 -1</clus>
<clus scale="   86.185">  1  3  2 -1</clus>
</clustering>
</event>
<event>
 6    0  0.1438923E+002  0.1622983E+03  0.7546771E-02  0.1186126E+00
         21   -1    0    0  506  501  0.00000000000E+00  0.00000000000E+00  0.84373290868E+03  0.84373290868E+03  0.00000000000E+00 0.  1.
         21   -1    0    0  503  502 -0.00000000000E+00 -0.00000000000E+00 -0.79351639922E+03  0.79351639922E+03  0.00000000000E+00 0. -1.
         21    1    1    2  503  501 -0.95671897039E+02  0.54595732980E+02  0.34310702921E+03  0.36035571236E+03  0.00000000000E+00 0.  1.
         21    1    1    2  504  502 -0.10983524840E+03  0.66380090900E+02 -0.74527599381E+03  0.75624493731E+03  0.00000000000E+00 0. -1.
         21    1    1    2  505  504  0.14264512066E+03 -0.13106703248E+03  0.32860824531E+03  0.38145717497E+03  0.00000000000E+00 0.  1.
         21    1    1    2  506  505  0.62862024776E+02  0.10091208603E+02  0.12377722876E+03  0.13919148325E+03  0.00000000000E+00 0.  1.
<scales pt_clust_3="110.15356" pt_clust_4="129.56341" pt_clust_5="56.03602" pt_clust_6="56.03602"></scales>
<clustering>
<clus scale="   56.036">  5  6 -1 -1</clus>
<clus scale="  110.154">  1  3  2 -1</clus>
<clus scale="  129.563">  2  4  1 -1</clus>
<clus scale="  110.154">  1  3  2 -1</clus>
</clustering>
</event>
<event>
 6    0  0.1438923E+002  0.1796171E+03  0.7546771E-02  0.1168174E+00
         21   -1    0    0  504  501  0.00000000000E+00  0.00000000000E+00  0.99059443060E+03  0.99059443060E+03  0.00000000000E+00 0.  1.
         21   -1    0    0  506  502 -0.00000000000E+00 -0.00000000000E+00 -0.51845872988E+02  0.51845872988E+02  0.00000000000E+00 0.  1.
         21    1    1    2  503  501  0.79332366558E+02  0.10889293018E+03  0.32261705368E+03  0.34961844624E+03  0.00000000000E+00 0.  1.
         21    1    1    2  504  505 -0.55776899895E+02 -0.14304456430E+03  0.34044249973E+03  0.37346205371E+03  0.00000000000E+00 0.  1.
         21    1    1    2  505  502 -0.52571049013E+02 -0.17507915976E+02  0.23300058551E+02  0.60109359043E+02  0.00000000000E+00 0.  1.
         21    1    1    2  506  503  0.29015582349E+02  0.51659550102E+02  0.25238894565E+03  0.25925044459E+03  0.00000000000E+00 0.  1.
<scales pt_clust_3="33.63899" pt_clust_4="172.30568" pt_clust_5="55.40977" pt_clust_6="33.63899"></scales>
<clustering>
<clus scale="   33.639">  3  6 -1 -1</clus>
<clus scale="   55.410">  2  5  1 -1</clus>
<clus scale="  172.306">  2  4  1 -1</clus>
<clus scale="  179.617">  1  3  2 -1</clus>
</clustering>
</event>
<event>
 6    0  0.1438923E+002  0.2753689E+03  0.7546771E-02  0.1098246E+00
         21   -1    0    0  506  501  0.00000000000E+00  0.00000000000E+00  0.11488506464E+04  0.11488506464E+04  0.00000000000E+00 0. -1.
         21   -1    0    0  501  502 -0.00000000000E+00 -0.00000000000E+00 -0.21360163684E+03  0.21360163684E+03  0.00000000000E+00 0. -1.
         21    1    1    2  503  504  0.76852427378E+02  0.24241170451E+03  0.10130523776E+03  0.27373797923E+03  0.00000000000E+00 0. -1.
         21    1    1    2  504  502 -0.24890967475E+02  0.25535850635E+02 -0.10409513721E+03  0.11003380172E+03  0.00000000000E+00 0. -1.
         21    1    1    2  505  503  0.10336568662E+02 -0.88411421595E+02  0.30808360547E+03  0.32068509800E+03  0.00000000000E+00 0. -1.
         21    1    1    2  506  505 -0.62298028566E+02 -0.17953613355E+03  0.62995530352E+03  0.65799540428E+03  0.00000000000E+00 0. -1.
<scales pt_clust_3="269.11961" pt_clust_4="35.66006" pt_clust_5="39.76357" pt_clust_6="39.76357"></scales>
<clustering>
<clus scale="   35.660">  2  4  1 -1</clus>
<clus scale="   39.764">  5  6 -1 -1</clus>
<clus scale="  269.120">  2  3  1 -1</clus>
<clus scale="  275.369">  1  3  2 -1</clus>
</clustering>
</event>
<event>
 6    0  0.1438923E+002  0.2071101E+03  0.7546771E-02  0.1143875E+00
         21   -1    0    0  506  501  0.00000000000E+00  0.00000000000E+00  0.23189903821E+03  0.23189903821E+03  0.00000000000E+00 0. -1.
         21   -1    0    0  504  502 -0.00000000000E+00 -0.00000000000E+00 -0.14485917635E+04  0.14485917635E+04  0.00000000000E+00 0. -1.
         21    1    1    2  503  501 -0.11678177051E+03  0.69599105773E+02  0.99096623637E+02  0.16823245307E+03  0.00000000000E+00 0. -1.
         21    1    1    2  504  505  0.68994089932E+02 -0.16318635347E+03 -0.12590351828E+03  0.21735148106E+03  0.00000000000E+00 0. -1.
         21    1    1    2  505  503 -0.19927617386E+02  0.72340496206E+02  0.24129134001E+02  0.78819238982E+02  0.00000000000E+00 0. -1.
         21    1    1    2  506  502  0.67715297968E+02  0.21246751496E+02 -0.12140149647E+04  0.12160876286E+04  0.00000000000E+00 0. -1.
<scales pt_clust_3="62.21808" pt_clust_4="189.42267" pt_clust_5="62.21808" pt_clust_6="70.97032"></scales>
<clustering>
<clus scale="   62.218">  3  5 -1 -1</clus>
<clus scale="   70.970">  2  6  1 -1</clus>
<clus scale="  189.423">  2  4  1 -1</clus>
<clus scale="  207.110">  1  3  2 -1</clus>
</clustering>
</event>
<event>
 6    0  0.1438923E+002  0.7784180E+02  0.7546771E-02  0.1335290E+00
         21   -1    0    0  503  501  0.00000000000E+00  0.00000000000E+00  0.30637772503E+03  0.30637772503E+03  0.00000000000E+00 0. -1.
         21   -1    0    0  506  502 -0.00000000000E+00 -0.00000000000E+00 -0.10088299888E+03  0.10088299888E+03  0.00000000000E+00 0. -1.
         21    1    1    2  503  502 -0.42034665360E+02  0.35231113501E+02  0.51116825025E+02  0.74973823773E+02  0.00000000000E+00 0. -1.
         21    1    1    2  504  505 -0.13009563195E+02 -0.10885582143E+03  0.11682560247E+03  0.16020942540E+03  0.00000000000E+00 0. -1.
         21    1    1    2  505  501  0.21353411489E+02  0.59897963093E+02  0.88805594122E+02  0.10922530711E+03  0.00000000000E+00 0. -1.
         21    1    1    2  506  504  0.33690817066E+02  0.13726744838E+02 -0.51253295474E+02  0.62852167627E+02  0.00000000000E+00 0. -1.
<scales pt_clust_3="50.97615" pt_clust_4="14000.00000" pt_clust_5="77.84180" pt_clust_6="36.37987"></scales>
<clustering>
<clus scale="   36.380">  2  6  1 -1</clus>
<clus scale="   50.976">  2  3  1 -1</clus>
<clus scale="   77.842">  1  5  2 -1</clus>
<clus scale="   77.842">  1  3  2 -1</clus>
</clustering>
</event>
<event>
 6    0  0.1438923E+002  0.2397894E+03  0.7546771E-02  0.1119933E+00
         21   -1    0    0  502  501  0.00000000000E+00  0.00000000000E+00  0.17251984558E+03  0.17251984558E+03  0.00000000000E+00 0.  1.
         21   -1    0    0  503  502 -0.00000000000E+00 -0.00000000000E+00 -0.17216115867E+04  0.17216115867E+04  0.00000000000E+00 0.  1.
         21    1    1    2  503  506  0.16508722714E+03  0.14354565236E+03 -0.16272777496E+04  0.16419171785E+04  0.00000000000E+00 0.  1.
         21    1    1    2  504  505 -0.80749268279E+02 -0.71280084917E+02  0.34628239886E+02  0.11313889619E+03  0.00000000000E+00 0.  1.
         21    1    1    2  505  501 -0.48171746865E+00 -0.42438820178E+02  0.20505947783E+02  0.47135755052E+02  0.00000000000E+00 0.  1.
         21    1    1    2  506  504 -0.83856241391E+02 -0.29826747263E+02  0.23051820765E+02  0.91939602528E+02  0.00000000000E+00 0.  1.
<scales pt_clust_3="218.76734" pt_clust_4="41.57837" pt_clust_5="41.57837" pt_clust_6="34.16571"></scales>
<clustering>
<clus scale="   34.166">  4  6 -1 -1</clus>
<clus scale="   41.578">  4  5 -1 -1</clus>
<clus scale="  218.767">  2  3  1 -1</clus>
<clus scale="  239.789">  1  3  2 -1</clus>
</clustering>
</event>
<event>
 6    0  0.1438923E+002  0.1470768E+03  0.7546771E-02  0.1204112E+00
         21   -1    0    0  504  501  0.00000000000E+00  0.00000000000E+00  0.19604064722E+02  0.19604064722E+02  0.00000000000E+00 0.  1.
         21   -1    0    0  505  502 -0.00000000000E+00 -0.00000000000E+00 -0.13324500550E+04  0.13324500550E+04  0.00000000000E+00 0. -1.
         21    1    1    2  503  501  0.50507898717E+02 -0.55381783546E+02 -0.32560422221E+03  0.33412018691E+03  0.00000000000E+00 0. -1.
         21    1    1    2  504  502 -0.13349672898E+03  0.23226342892E+02 -0.44994628931E+03  0.46990690878E+03  0.00000000000E+00 0.  1.
         21    1    1    2  505  506  0.11270403664E+02  0.29974069273E+02 -0.24350444622E+03  0.24560106302E+03  0.00000000000E+00 0. -1.
         21    1    1    2  506  503  0.71718426600E+02  0.21813713812E+01 -0.29379103258E+03  0.30242596105E+03  0.00000000000E+00 0. -1.
<scales pt_clust_3="59.56941" pt_clust_4="133.64362" pt_clust_5="32.02291" pt_clust_6="59.56941"></scales>
<clustering>
<clus scale="   32.023">  2  5  1 -1</clus>
<clus scale="   59.569">  3  6 -1 -1</clus>
<clus scale="  133.644">  1  4  2 -1</clus>
<clus scale="  133.644">  1  3  2 -1</clus>
</clustering>
</event>
<event>
 6    0  0.1438923E+002  0.1017769E+03  0.7546771E-02  0.1276603E+00
         21   -1    0    0  505  501  0.00000000000E+00  0.00000000000E+00  0.15318349742E+04  0.15318349742E+04  0.00000000000E+00 0. -1.
         21   -1    0    0  506  502 -0.00000000000E+00 -0.00000000000E+00 -0.28872405581E+03  0.28872405581E+03  0.00000000000E+00 0. -1.
         21    1    1    2  503  502  0.30501353678E+02  0.61925453586E+00 -0.15496075212E+03  0.15793527393E+03  0.00000000000E+00 0. -1.
         21    1    1    2  504  503  0.57297903054E+02 -0.56682230535E+02 -0.10966618534E+03  0.13609774855E+03  0.00000000000E+00 0. -1.
         21    1    1    2  505  504 -0.57178945165E+02 -0.19849493020E+02  0.10345715764E+03  0.11986166030E+03  0.00000000000E+00 0. -1.
         21    1    1    2  506  501 -0.30620311567E+02  0.75912469019E+02  0.14042806982E+04  0.14066643472E+04  0.00000000000E+00 0. -1.
<scales pt_clust_3="30.50764" pt_clust_4="14000.00000" pt_clust_5="58.72987" pt_clust_6="101.77694"></scales>
<clustering>
<clus scale="   30.508">  2  3  1 -1</clus>
<clus scale="   58.730">  1  5  2 -1</clus>
<clus scale="  101.777">  1  6  2 -1</clus>
<clus scale="   58.730">  1  3  2 -1</clus>
</clustering>
</event>
<event>
 6    0  0.1438923E+002  0.6920706E+02  0.7546771E-02  0.1362810E+00
         21   -1    0    0  503  501  0.00000000000E+00  0.00000000000E+00  0.52757878313E+03  0.52757878313E+03  0.00000000000E+00 0.  1.
         21   -1    0    0  505  502 -0.00000000000E+00 -0.00000000000E+00 -0.42032263177E+02  0.42032263177E+02  0.00000000000E+00 0.  1.
         21    1    1    2  503  502  0.29850996500E+01  0.86034694396E+02  0.11394112745E+03  0.14280567210E+03  0.00000000000E+00 0.  1.
         21    1    1    2  504  501 -0.32519210505E+02  0.43109077340E+01  0.62204291466E+02  0.70323942254E+02  0.00000000000E+00 0.  1.
         21    1    1    2  505  506 -0.44523943720E+02 -0.49869296690E+02  0.49397468887E+02  0.83123030799E+02  0.00000000000E+00 0.  1.
         21    1    1    2  506  504  0.74058054575E+02 -0.40476305439E+02  0.26000363216E+03  0.27335840116E+03  0.00000000000E+00 0.  1.
<scales pt_clust_3="14000.00000" pt_clust_4="32.80370" pt_clust_5="69.20706" pt_clust_6="67.05493"></scales>
<clustering>
<clus scale="   32.804">  1  4  2 -1</clus>
<clus scale="   67.055">  1  6  2 -1</clus>
<clus scale="   69.207">  2  5  1 -1</clus>
<clus scale="   32.804">  1  3  2 -1</clus>
</clustering>
</event>
<event>
 6    0  0.1438923E+002  0.1104039E+03  0.7546771E-02  0.1259824E+00
         21   -1    0    0  503  501  0.00000000000E+00  0.00000000000E+00  0.24584565358E+03  0.24584565358E+03  0.00000000000E+00 0. -1.
         21   -1    0    0  506  502 -0.00000000000E+00 -0.00000000000E+00 -0.14101937575E+03  0.14101937575E+03  0.00000000000E+00 0. -1.
         21    1    1    2  503  504 -0.33898131207E+02 -0.35532108998E+02  0.10770684590E+03  0.11837389375E+03  0.00000000000E+00 0. -1.
         21    1    1    2  504  502  0.87911266676E+02 -0.55618108785E+02  0.14811948358E+02  0.10507691777E+03  0.00000000000E+00 0. -1.
         21    1    1    2  505  501  0.31230729357E+02  0.13324531017E+02  0.23015153762E+02  0.41019493972E+02  0.00000000000E+00 0. -1.
         21    1    1    2  506  505 -0.85243864826E+02  0.77825686766E+02 -0.40707670193E+02  0.12239472384E+03  0.00000000000E+00 0. -1.
<scales pt_clust_3="33.37535" pt_clust_4="14000.00000" pt_clust_5="33.95440" pt_clust_6="110.40391"></scales>
<clustering>
<clus scale="   33.954">  1  5  2 -1</clus>
<clus scale="   33.375">  1  3  2 -1</clus>
<clus scale="  110.404">  2  6  1 -1</clus>
<clus scale="   33.954">  1  3  2 -1</clus>
</clustering>
</event>
<event>
 6    0  0.1438923E+002  0.7358248E+02  0.7546771E-02  0.1348318E+00
         21   -1    0    0  504  501  0.00000000000E+00  0.00000000000E+00  0.13692090838E+04  0.13692090838E+04  0.00000000000E+00 0.  1.
         21   -1    0    0  505  502 -0.00000000000E+00 -0.00000000000E+00 -0.18193826292E+02  0.18193826292E+02  0.00000000000E+00 0.  1.
         21    1    1    2  503  501  0.54760545710E+01 -0.34679327549E+02  0.45800310038E+03  0.45934680024E+03  0.00000000000E+00 0.  1.
         21    1    1    2  504  502 -0.10108680546E+03  0.56442066695E+02  0.55314032446E+03  0.56512694828E+03  0.00000000000E+00 0.  1.
         21    1    1    2  505  506  0.67535002886E+02  0.10508799396E+02  0.11301622093E+03  0.13207602989E+03  0.00000000000E+00 0.  1.
         21    1    1    2  506  503  0.28075748007E+02 -0.32271538541E+02  0.22685561172E+03  0.23085313166E+03  0.00000000000E+00 0. -1.
<scales pt_clust_3="35.10901" pt_clust_4="73.58248" pt_clust_5="14000.00000" pt_clust_6="50.47209"></scales>
<clustering>
<clus scale="   35.109">  1  3  2 -1</clus>
<clus scale="   50.472">  1  6  2 -1</clus>
<clus scale="   73.582">  1  4  2 -1</clus>
<clus scale="   35.109">  1  3  2 -1</clus>
</clustering>
</event>
<event>
 6    0  0.1438923E+002  0.8118780E+02  0.7546771E-02  0.1325714E+00
         21   -1    0    0  506  501  0.00000000000E+00  0.00000000000E+00  0.22815224531E+03  0.22815224531E+03  0.00000000000E+00 0.  1.
         21   -1    0    0  503  502 -0.00000000000E+00 -0.00000000000E+00 -0.58817225306E+03  0.58817225306E+03  0.00000000000E+00 0. -1.
         21    1    1    2  503  504 -0.33984934928E+02  0.55260695075E+02  0.21769018479E+02  0.68429601693E+02  0.00000000000E+00 0.  1.
         21    1    1    2  504  501 -0.34576258202E+02 -0.18266281883E+02  0.58889396548E+01  0.39545597674E+02  0.00000000000E+00 0.  1.
         21    1    1    2  505  502  0.59855314537E+02  0.55553956648E+02 -0.53115236674E+03  0.53739346616E+03  0.00000000000E+00 0. -1.
         21    1    1    2  506  505  0.87058785931E+01 -0.92548369841E+02  0.14347440085E+03  0.17095583284E+03  0.00000000000E+00 0.  1.
<scales pt_clust_3="65.99359" pt_clust_4="39.10466" pt_clust_5="14000.00000" pt_clust_6="81.18780"></scales>
<clustering>
<clus scale="   39.105">  1  4  2 -1</clus>
<clus scale="   65.994">  1  3  2 -1</clus>
<clus scale="   81.188">  1  6  2 -1</clus>
<clus scale="   39.105">  1  3  2 -1</clus>
</clustering>
</event>
<event>
 6    0  0.1438923E+002  0.1005696E+03  0.7546771E-02  0.1279103E+00
         21   -1    0    0  505  501  0.00000000000E+00  0.00000000000E+00  0.12984554759E+04  0.12984554759E+04  0.00000000000E+00 0. -1.
         21   -1    0    0  504  502 -0.00000000000E+00 -0.00000000000E+00 -0.56024080848E+02  0.56024080848E+02  0.00000000000E+00 0. -1.
         21    1    1    2  503  501 -0.59760752022E+02 -0.15294219367E+02  0.25022612603E+03  0.25771762605E+03  0.00000000000E+00 0. -1.
         21    1    1    2  504  506  0.83685581250E+01 -0.40627078896E+02 -0.14572687668E+02  0.43965390145E+02  0.00000000000E+00 0. -1.
         21    1    1    2  505  502  0.69996392647E+02  0.12413916883E+03  0.95393912379E+03  0.96452572807E+03  0.00000000000E+00 0. -1.
         21    1    1    2  506  503 -0.18604198751E+02 -0.68217870571E+02  0.52838832944E+02  0.88270812522E+02  0.00000000000E+00 0. -1.
<scales pt_clust_3="62.23291" pt_clust_4="41.48002" pt_clust_5="14000.00000" pt_clust_6="100.56961"></scales>
<clustering>
<clus scale="   41.480">  2  4  1 -1</clus>
<clus scale="   62.233">  1  3  2 -1</clus>
<clus scale="  100.570">  2  6  1 -1</clus>
<clus scale="   62.233">  1  3  2 -1</clus>
</clustering>
</event>
<event>
 6    0  0.1438923E+002  0.8359283E+02  0.7546771E-02  0.1319154E+00
         21   -1    0    0  506  501  0.00000000000E+00  0.00000000000E+00  0.16058440508E+03  0.16058440508E+03  0.00000000000E+00 0. -1.
         21   -1    0    0  504  502 -0.00000000000E+00 -0.00000000000E+00 -0.88735818513E+03  0.88735818513E+03  0.00000000000E+00 0. -1.
         21    1    1    2  503  505  0.31534223530E+02 -0.82369060122E+02 -0.70033949622E+01  0.88476645845E+02  0.00000000000E+00 0. -1.
         21    1    1    2  504  503 -0.58475349909E+02 -0.11478784181E+02 -0.80520263068E+03  0.80740473462E+03  0.00000000000E+00 0. -1.
         21    1    1    2  505  501  0.27769640197E+02  0.13678887432E+02  0.60737098162E+02  0.68170814659E+02  0.00000000000E+00 0. -1.
         21    1    1    2  506  502 -0.82851381872E+00  0.80168956871E+02  0.24695147430E+02  0.83890395085E+02  0.00000000000E+00 0. -1.
<scales pt_clust_3="83.59283" pt_clust_4="59.24913" pt_clust_5="30.95585" pt_clust_6="14000.00000"></scales>
<clustering>
<clus scale="   30.956">  1  5  2 -1</clus>
<clus scale="   59.249">  2  4  1 -1</clus>
<clus scale="   83.593">  2  3  1 -1</clus>
<clus scale="   30.956">  1  3  2 -1</clus>
</clustering>
</event>
<event>
 6    0  0.1438923E+002  0.9135493E+02  0.7546771E-02  0.1299603E+00
         21   -1    0    0  506  501  0.00000000000E+00  0.00000000000E+00  0.16748838279E+04  0.16748838279E+04  0.00000000000E+00 0.  1.
         21   -1    0    0  503  502 -0.00000000000E+00 -0.00000000000E+00 -0.56512246663E+02  0.56512246663E+02  0.00000000000E+00 0. -1.
         21    1    1    2  503  505  0.19741215633E+02  0.50154946838E+02 -0.29946554790E+02  0.61660606798E+02  0.00000000000E+00 0. -1.
         21    1    1    2  504  501  0.43402211196E+01 -0.42816026634E+02  0.67080540034E+03  0.67218444997E+03  0.00000000000E+00 0.  1.
         21    1    1    2  505  504 -0.55615817138E+01 -0.10216076543E+03  0.50864212815E+03  0.51882999885E+03  0.00000000000E+00 0.  1.
         21    1    1    2  506  502 -0.18519855039E+02  0.94821845224E+02  0.46887060752E+03  0.47872101893E+03  0.00000000000E+00 0. -1.
<scales pt_clust_3="53.29663" pt_clust_4="43.03545" pt_clust_5="91.35493" pt_clust_6="14000.00000"></scales>
<clustering>
<clus scale="   43.035">  1  4  2 -1</clus>
<clus scale="   53.297">  2  3  1 -1</clus>
<clus scale="   91.355">  2  5  1 -1</clus>
<clus scale="   43.035">  1  3  2 -1</clus>
</clustering>
</event>
<event>
 6    0  0.1438923E+002  0.1657326E+03  0.7546771E-02  0.1182373E+00
         21   -1    0    0  503  501  0.00000000000E+00  0.00000000000E+00  0.14874439026E+04  0.14874439026E+04  0.00000000000E+00 0.  1.
         21   -1    0    0  504  502 -0.00000000000E+00 -0.00000000000E+00 -0.15481806822E+03  0.15481806822E+03  0.00000000000E+00 0.  1.
         21    1    1    2  503  502  0.20536942644E+02 -0.24546021358E+02  0.78039431896E+02  0.84347057496E+02  0.00000000000E+00 0. -1.
         21    1    1    2  504  505 -0.30686590905E+02 -0.17974587105E+02 -0.58447972765E+02  0.68417235865E+02  0.00000000000E+00 0.  1.
         21    1    1    2  505  506 -0.76895670191E+02  0.14725569075E+03 -0.32808728160E+01  0.16615639223E+03  0.00000000000E+00 0.  1.
         21    1    1    2  506  501  0.87045318452E+02 -0.10473508228E+03  0.13163152481E+04  0.13233412853E+04  0.00000000000E+00 0.  1.
<scales pt_clust_3="32.00427" pt_clust_4="35.54470" pt_clust_5="14000.00000" pt_clust_6="165.73265"></scales>
<clustering>
<clus scale="   32.004">  1  3  2 -1</clus>
<clus scale="   35.545">  2  4  1 -1</clus>
<clus scale="  165.733">  1  6  2 -1</clus>
<clus scale="   32.004">  1  3  2 -1</clus>
</clustering>
</event>
<event>
 6    0  0.1438923E+002  0.1435268E+03  0.7546771E-02  0.1208661E+00
         21   -1    0    0  505  501  0.00000000000E+00  0.00000000000E+00  0.53255146068E+03  0.53255146068E+03  0.00000000000E+00 0.  1.
         21   -1    0    0  506  502 -0.00000000000E+00 -0.00000000000E+00 -0.55573743946E+03  0.55573743946E+03  0.00000000000E+00 0.  1.
         21    1    1    2  503  504 -0.16831603299E+03  0.90187771977E+01  0.26126624557E+03  0.31092069146E+03  0.00000000000E+00 0.  1.
         21    1    1    2  504  501 -0.35610900822E+02 -0.13894030616E+02  0.14494537569E+03  0.14990110832E+03  0.00000000000E+00 0.  1.
         21    1    1    2  505  502  0.85418529357E+02  0.27343241829E+02  0.69960783785E+02  0.11374748041E+03  0.00000000000E+00 0.  1.
         21    1    1    2  506  503  0.11850840446E+03 -0.22467988411E+02 -0.49935838382E+03  0.51371961995E+03  0.00000000000E+00 0.  1.
<scales pt_clust_3="36.07579" pt_clust_4="36.07579" pt_clust_5="89.68823" pt_clust_6="121.90589"></scales>
<clustering>
<clus scale="   36.076">  3  4 -1 -1</clus>
<clus scale="   89.688">  1  5  2 -1</clus>
<clus scale="  121.906">  2  6  1 -1</clus>
<clus scale="   89.688">  1  3  2 -1</clus>
</clustering>
</event>
<event>
 6    0  0.1438923E+002  0.8755930E+02  0.7546771E-02  0.1308872E+00
         21   -1    0    0  505  501  0.00000000000E+00  0.00000000000E+00  0.31379618740E+03  0.31379618740E+03  0.00000000000E+00 0.  1.
         21   -1    0    0  504  502 -0.00000000000E+00 -0.00000000000E+00 -0.11409727416E+04  0.11409727416E+04  0.00000000000E+00 0.  1.
         21    1    1    2  503  502 -0.43645605794E+02  0.43766864743E+02  0.59705496651E+02  0.85937324166E+02  0.00000000000E+00 0.  1.
         21    1    1    2  504  501  0.55496187896E+02 -0.56949802698E+02 -0.11103276151E+04  0.11131713793E+04  0.00000000000E+00 0.  1.
         21    1    1    2  505  506  0.22968774297E+02 -0.48324429153E+02  0.99881213966E+02  0.11330962867E+03  0.00000000000E+00 0. -1.
         21    1    1    2  506  503 -0.34819356399E+02  0.61507367108E+02  0.12356435023E+03  0.14235059690E+03  0.00000000000E+00 0.  1.
<scales pt_clust_3="33.56314" pt_clust_4="79.86556" pt_clust_5="53.50528" pt_clust_6="33.56314"></scales>
<clustering>
<clus scale="   33.563">  3  6 -1 -1</clus>
<clus scale="   53.505">  1  5  2 -1</clus>
<clus scale="   79.866">  2  4  1 -1</clus>
<clus scale="   53.505">  1  3  2 -1</clus>
</clustering>
</event>
<event>
 6    0  0.1438923E+002  0.2074886E+03  0.7546771E-02  0.1143570E+00
         21   -1    0    0  502  501  0.00000000000E+00  0.00000000000E+00  0.17487761028E+03  0.17487761028E+03  0.00000000000E+00 0.  1.
         21   -1    0    0  505  502 -0.00000000000E+00 -0.00000000000E+00 -0.58749165867E+03  0.58749165867E+03  0.00000000000E+00 0.  1.
         21    1    1    2  503  501 -0.58732589842E+02 -0.16081156489E+02  0.43627177876E+02  0.74909621231E+02  0.00000000000E+00 0.  1.
         21    1    1    2  504  503 -0.32632159011E+02 -0.83211602687E+02 -0.21570936491E+01  0.89407391621E+02  0.00000000000E+00 0.  1.
         21    1    1    2  505  506  0.94758822577E+02  0.19095370552E+03 -0.45911481311E+03  0.50619063970E+03  0.00000000000E+00 0.  1.
         21    1    1    2  506  504 -0.33940737239E+01 -0.91660946347E+02  0.50306804885E+01  0.91861616401E+02  0.00000000000E+00 0.  1.
<scales pt_clust_3="60.89434" pt_clust_4="30.77463" pt_clust_5="205.13319" pt_clust_6="30.77463"></scales>
<clustering>
<clus scale="   30.775">  4  6 -1 -1</clus>
<clus scale="   60.894">  1  3  2 -1</clus>
<clus scale="  205.133">  2  5  1 -1</clus>
<clus scale="   60.894">  1  3  2 -1</clus>
</clustering>
</event>
<event>
 6    0  0.1438923E+002  0.7252665E+02  0.7546771E-02  0.1351706E+00
         21   -1    0    0  504  501  0.00000000000E+00  0.00000000000E+00  0.11677978761E+04  0.11677978761E+04  0.00000000000E+00 0. -1.
         21   -1    0    0  506  502 -0.00000000000E+00 -0.00000000000E+00 -0.38047461310E+02  0.38047461310E+02  0.00000000000E+00 0. -1.
         21    1    1    2  503  505 -0.45594044595E+02  0.51022306996E+02  0.19412811057E+03  0.20583443839E+03  0.00000000000E+00 0. -1.
         21    1    1    2  504  502 -0.15175642692E+02 -0.10394469110E+03  0.28225423133E+03  0.30116814248E+03  0.00000000000E+00 0. -1.
         21    1    1    2  505  501  0.52112035288E+02 -0.89452147415E+00  0.64078402787E+03  0.64290017480E+03  0.00000000000E+00 0. -1.
         21    1    1    2  506  503  0.86576519989E+01  0.53816905577E+02  0.12584045034E+02  0.55942581755E+02  0.00000000000E+00 0. -1.
<scales pt_clust_3="14000.00000" pt_clust_4="72.52665" pt_clust_5="52.11971" pt_clust_6="55.09313"></scales>
<clustering>
<clus scale="   52.120">  1  5  2 -1</clus>
<clus scale="   55.093">  2  6  1 -1</clus>
<clus scale="   72.527">  2  4  1 -1</clus>
<clus scale="   52.120">  1  3  2 -1</clus>
</clustering>
</event>
<event>
 6    0  0.1438923E+002  0.1298817E+03  0.7546771E-02  0.1227631E+00
         21   -1    0    0  505  501  0.00000000000E+00  0.00000000000E+00  0.20540963213E+03  0.20540963213E+03  0.00000000000E+00 0. -1.
         21   -1    0    0  503  502 -0.00000000000E+00 -0.00000000000E+00 -0.68953778076E+03  0.68953778076E+03  0.00000000000E+00 0. -1.
         21    1    1    2  503  504  0.10015218817E+03 -0.27016073889E+02 -0.25893609356E+03  0.27894126548E+03  0.00000000000E+00 0. -1.
         21    1    1    2  504  501 -0.59927884223E+02  0.71575006959E+02  0.10789456686E+03  0.14267294938E+03  0.00000000000E+00 0. -1.
         21    1    1    2  505  506 -0.77655565175E+02 -0.29209049632E+02  0.44116232057E+02  0.93967001197E+02  0.00000000000E+00 0. -1.
         21    1    1    2  506  502  0.37431261228E+02 -0.15349883437E+02 -0.37720285399E+03  0.37936619683E+03  0.00000000000E+00 0. -1.
<scales pt_clust_3="14000.00000" pt_clust_4="129.88167" pt_clust_5="80.62451" pt_clust_6="40.45637"></scales>
<clustering>
<clus scale="   40.456">  2  6  1 -1</clus>
<clus scale="   80.625">  1  5  2 -1</clus>
<clus scale="  129.882">  1  4  2 -1</clus>
<clus scale="   80.625">  1  3  2 -1</clus>
</clustering>
</event>
<event>
 6    0  0.1438923E+002  0.2473064E+03  0.7546771E-02  0.1115019E+00
         21   -1    0    0  502  501  0.00000000000E+00  0.00000000000E+00  0.91392205295E+03  0.91392205295E+03  0.00000000000E+00 0. -1.
         21   -1    0    0  506  502 -0.00000000000E+00 -0.00000000000E+00 -0.54363692138E+03  0.54363692138E+03  0.00000000000E+00 0.  1.
         21    1    1    2  503  504  0.12449443761E+03 -0.25898498481E+03  0.60181462822E+03  0.66689799377E+03  0.00000000000E+00 0. -1.
         21    1    1    2  504  505  0.27038509982E+02  0.23546041894E+02  0.85120745609E+02  0.92363620782E+02  0.00000000000E+00 0. -1.
         21    1    1    2  505  501  0.23273708308E+00  0.42187388423E+02  0.15815055765E+03  0.16368087486E+03  0.00000000000E+00 0. -1.
         21    1    1    2  506  503 -0.15176568468E+03  0.19325155449E+03 -0.47480079990E+03  0.53461648492E+03  0.00000000000E+00 0.  1.
<scales pt_clust_3="247.30638" pt_clust_4="33.40775" pt_clust_5="79.86148" pt_clust_6="14000.00000"></scales>
<clustering>
<clus scale="   33.408">  4  5 -1 -1</clus>
<clus scale="   79.861">  1  4  2 -1</clus>
<clus scale="  247.306">  1  3  2 -1</clus>
<clus scale="   79.861">  1  3  2 -1</clus>
</clustering>
</event>
<event>
 6    0  0.1438923E+002  0.3688119E+03  0.7546771E-02  0.1055148E+00
         21   -1    0    0  502  501  0.00000000000E+00  0.00000000000E+00  0.17342843983E+04  0.17342843983E+04  0.00000000000E+00 0.  1.
         21   -1    0    0  506  502 -0.00000000000E+00 -0.00000000000E+00 -0.14427409981E+03  0.14427409981E+03  0.00000000000E+00 0.  1.
         21    1    1    2  503  505 -0.36307946236E+02 -0.10411573974E+02  0.18558597818E+03  0.18939066273E+03  0.00000000000E+00 0. -1.
         21    1    1    2  504  503  0.34602133710E+03 -0.96544330626E+02  0.41151262622E+03  0.54625471626E+03  0.00000000000E+00 0.  1.
         21    1    1    2  505  501 -0.29062108786E+03  0.15114316395E+03  0.10308364962E+04  0.10816324490E+04  0.00000000000E+00 0.  1.
         21    1    1    2  506  504 -0.19092303004E+02 -0.44187259348E+02 -0.37924802102E+02  0.61280670175E+02  0.00000000000E+00 0.  1.
<scales pt_clust_3="32.44270" pt_clust_4="356.22195" pt_clust_5="32.44270" pt_clust_6="48.13554"></scales>
<clustering>
<clus scale="   32.443">  3  5 -1 -1</clus>
<clus scale="   48.136">  2  6  1 -1</clus>
<clus scale="  356.222">  2  4  1 -1</clus>
<clus scale="  368.812">  1  3  2 -1</clus>
</clustering>
</event>
<event>
 6    0  0.1438923E+002  0.5075805E+02  0.7546771E-02  0.1441295E+00
         21   -1    0    0  506  501  0.00000000000E+00  0.00000000000E+00  0.34313158329E+03  0.34313158329E+03  0.00000000000E+00 0.  1.
         21   -1    0    0  505  502 -0.00000000000E+00 -0.00000000000E+00 -0.38506895122E+03  0.38506895122E+03  0.00000000000E+00 0.  1.
         21    1    1    2  503  502  0.31782068265E+02  0.38890565420E+02 -0.34821723032E+03  0.35182071490E+03  0.00000000000E+00 0.  1.
         21    1    1    2  504  501 -0.33685567637E+02  0.29425428179E+02  0.12243410030E+03  0.13034831110E+03  0.00000000000E+00 0.  1.
         21    1    1    2  505  504 -0.33051179700E+02 -0.10343222443E+03  0.15317766079E+03  0.18776048918E+03  0.00000000000E+00 0. -1.
         21    1    1    2  506  503  0.34954679073E+02  0.35116230832E+02  0.30668101305E+02  0.58271019337E+02  0.00000000000E+00 0.  1.
<scales pt_clust_3="14000.00000" pt_clust_4="44.72777" pt_clust_5="50.75805" pt_clust_6="49.80001"></scales>
<clustering>
<clus scale="   44.728">  1  4  2 -1</clus>
<clus scale="   49.800">  1  6  2 -1</clus>
<clus scale="   50.758">  1  5  2 -1</clus>
<clus scale="   44.728">  1  3  2 -1</clus>
</clustering>
</event>
<event>
 6    0  0.1438923E+002  0.8116103E+02  0.7546771E-02  0.1325789E+00
         21   -1    0    0  506  501  0.00000000000E+00  0.00000000000E+00  0.11996955669E+03  0.11996955669E+03  0.00000000000E+00 0.  1.
         21   -1    0    0  503  502 -0.00000000000E+00 -0.00000000000E+00 -0.21437365799E+03  0.21437365799E+03  0.00000000000E+00 0.  1.
         21    1    1    2  503  501 -0.29453603888E+02 -0.50030226764E+02  0.51156423564E+02  0.77379054297E+02  0.00000000000E+00 0.  1.
         21    1    1    2  504  502  0.34442325754E+02 -0.38916070163E+02 -0.92680743363E+02  0.10625655044E+03  0.00000000000E+00 0.  1.
         21    1    1    2  505  504  0.22273138290E+02  0.10578230649E+03 -0.48067567543E+02  0.11830672046E+03  0.00000000000E+00 0.  1.
         21    1    1    2  506  505 -0.27261860156E+02 -0.16836009561E+02 -0.48122139581E+01  0.32400889498E+02  0.00000000000E+00 0.  1.
<scales pt_clust_3="81.16103" pt_clust_4="51.65895" pt_clust_5="14000.00000" pt_clust_6="32.04154"></scales>
<clustering>
<clus scale="   32.042">  1  6  2 -1</clus>
<clus scale="   51.659">  2  4  1 -1</clus>
<clus scale="   81.161">  1  3  2 -1</clus>
<clus scale="   32.042">  1  3  2 -1</clus>
</clustering>
</event>
<event>
 6    0  0.1438923E+002  0.1918331E+03  0.7546771E-02  0.1156818E+00
         21   -1    0    0  503  501  0.00000000000E+00  0.00000000000E+00  0.32628964776E+02  0.32628964776E+02  0.00000000000E+00 0. -1.
         21   -1    0    0  506  502 -0.00000000000E+00 -0.00000000000E+00 -0.30514501748E+04  0.30514501748E+04  0.00000000000E+00 0. -1.
         21    1    1    2  503  502  0.10961394181E+03 -0.15826079362E+03 -0.30984978146E+03  0.36478566598E+03  0.00000000000E+00 0. -1.
         21    1    1    2  504  505 -0.63980716347E+02  0.46407201005E+02 -0.80206761985E+03  0.80595262093E+03  0.00000000000E+00 0. -1.
         21    1    1    2  505  501 -0.48617999457E+02  0.76971712213E+02 -0.69574662232E+03  0.70167778704E+03  0.00000000000E+00 0. -1.
         21    1    1    2  506  504  0.29847739964E+01  0.34881880400E+02 -0.12111571864E+04  0.12116630656E+04  0.00000000000E+00 0. -1.
<scales pt_clust_3="187.61348" pt_clust_4="37.15747" pt_clust_5="37.15747" pt_clust_6="35.00935"></scales>
<clustering>
<clus scale="   35.009">  2  6  1 -1</clus>
<clus scale="   37.157">  4  5 -1 -1</clus>
<clus scale="  187.613">  1  3  2 -1</clus>
<clus scale="  187.613">  1  3  2 -1</clus>
</clustering>
</event>
<event>
 6    0  0.1438923E+002  0.9015997E+02  0.7546771E-02  0.1302465E+00
         21   -1    0    0  506  501  0.00000000000E+00  0.00000000000E+00  0.82503296694E+02  0.82503296694E+02  0.00000000000E+00 0. -1.
         21   -1    0    0  505  502 -0.00000000000E+00 -0.00000000000E+00 -0.66970464424E+03  0.66970464424E+03  0.00000000000E+00 0. -1.
         21    1    1    2  503  501  0.17201994089E+02  0.36596225316E+02  0.62538985821E+01  0.40918254551E+02  0.00000000000E+00 0. -1.
         21    1    1    2  504  502 -0.60260251356E+02 -0.75601080906E+02 -0.57067280213E+03  0.57880417105E+03  0.00000000000E+00 0. -1.
         21    1    1    2  505  503 -0.19884372077E+02  0.54393439911E+02 -0.33354411287E+02  0.66832262497E+02  0.00000000000E+00 0. -1.
         21    1    1    2  506  504  0.62942629344E+02 -0.15388584321E+02  0.10571967291E+02  0.65653252840E+02  0.00000000000E+00 0. -1.
<scales pt_clust_3="40.43751" pt_clust_4="90.15997" pt_clust_5="66.50381" pt_clust_6="14000.00000"></scales>
<clustering>
<clus scale="   40.438">  1  3  2 -1</clus>
<clus scale="   66.504">  1  5  2 -1</clus>
<clus scale="   90.160">  2  4  1 -1</clus>
<clus scale="   40.438">  1  3  2 -1</clus>
</clustering>
</event>
<event>
 6    0  0.1438923E+002  0.1013452E+03  0.7546771E-02  0.1277492E+00
         21   -1    0    0  504  501  0.00000000000E+00  0.00000000000E+00  0.11122165833E+03  0.11122165833E+03  0.00000000000E+00 0. -1.
         21   -1    0    0  506  502 -0.00000000000E+00 -0.00000000000E+00 -0.39013849484E+03  0.39013849484E+03  0.00000000000E+00 0. -1.
         21    1    1    2  503  505 -0.11374014207E+03  0.24059090694E+02 -0.55190980773E+02  0.12869228462E+03  0.00000000000E+00 0. -1.
         21    1    1    2  504  502  0.85341564554E+02 -0.15391988988E+02 -0.12677191849E+02  0.87640214278E+02  0.00000000000E+00 0. -1.
         21    1    1    2  505  501  0.13846055895E+02 -0.44261639339E+02  0.20213310556E+02  0.50590353867E+02  0.00000000000E+00 0. -1.
         21    1    1    2  506  503  0.14552521618E+02  0.35594537633E+02 -0.23126197445E+03  0.23443730040E+03  0.00000000000E+00 0. -1.
<scales pt_clust_3="101.34520" pt_clust_4="14000.00000" pt_clust_5="43.58027" pt_clust_6="38.45448"></scales>
<clustering>
<clus scale="   38.454">  2  6  1 -1</clus>
<clus scale="   43.580">  1  5  2 -1</clus>
<clus scale="  101.345">  2  3  1 -1</clus>
<clus scale="   43.580">  1  3  2 -1</clus>
</clustering>
</event>
<event>
 6    0  0.1438923E+002  0.1890870E+03  0.7546771E-02  0.1159287E+00
         21   -1    0    0  505  501  0.00000000000E+00  0.00000000000E+00  0.55260823908E+03  0.55260823908E+03  0.00000000000E+00 0.  1.
         21   -1    0    0  506  502 -0.00000000000E+00 -0.00000000000E+00 -0.44124480022E+03  0.44124480022E+03  0.00000000000E+00 0.  1.
         21    1    1    2  503  502 -0.23202824319E+02 -0.30113977220E+02  0.43894519209E+02  0.58068506929E+02  0.00000000000E+00 0. -1.
         21    1    1    2  504  503 -0.11432700057E+03 -0.33678548317E+02  0.26633716816E+03  0.29178827053E+03  0.00000000000E+00 0.  1.
         21    1    1    2  505  504 -0.25466549856E+02 -0.17711024133E+02  0.20162120954E+03  0.20399347459E+03  0.00000000000E+00 0.  1.
         21    1    1    2  506  501  0.16299637474E+03  0.81503549669E+02 -0.40048945804E+03  0.44000278725E+03  0.00000000000E+00 0.  1.
<scales pt_clust_3="30.66252" pt_clust_4="30.66252" pt_clust_5="31.01976" pt_clust_6="180.50421"></scales>
<clustering>
<clus scale="   31.020">  1  5  2 -1</clus>
<clus scale="   30.663">  3  4 -1 -1</clus>
<clus scale="  180.504">  2  6  1 -1</clus>
<clus scale="   31.020">  1  3  2 -1</clus>
</clustering>
</event>
<event>
 6    0  0.1438923E+002  0.1677584E+03  0.7546771E-02  0.1180206E+00
         21   -1    0    0  504  501  0.00000000000E+00  0.00000000000E+00  0.98333861016E+03  0.98333861016E+03  0.00000000000E+00 0.  1.
         21   -1    0    0  503  502 -0.00000000000E+00 -0.00000000000E+00 -0.62630686249E+02  0.62630686249E+02  0.00000000000E+00 0. -1.
         21    1    1    2  503  505 -0.38973192762E+02 -0.17309727869E+03  0.12759450311E+03  0.21854504082E+03  0.00000000000E+00 0. -1.
         21    1    1    2  504  502  0.75010756197E+02  0.52277195195E+02  0.20277520846E+03  0.22243494296E+03  0.00000000000E+00 0.  1.
         21    1    1    2  505  506 -0.13512262826E+02  0.71907708632E+02  0.42051858988E+03  0.42683624992E+03  0.00000000000E+00 0.  1.
         21    1    1    2  506  501 -0.22525300609E+02  0.48912374861E+02  0.16981962246E+03  0.17815306272E+03  0.00000000000E+00 0.  1.
<scales pt_clust_3="162.86872" pt_clust_4="91.43040" pt_clust_5="34.49427" pt_clust_6="34.49427"></scales>
<clustering>
<clus scale="   34.494">  5  6 -1 -1</clus>
<clus scale="   91.430">  1  4  2 -1</clus>
<clus scale="  162.869">  2  3  1 -1</clus>
<clus scale="   91.430">  1  3  2 -1</clus>
</clustering>
</event>
<event>
 6    0  0.1438923E+002  0.2487952E+03  0.7546771E-02  0.1114069E+00
         21   -1    0    0  506  501  0.00000000000E+00  0.00000000000E+00  0.63540616999E+03  0.63540616999E+03  0.00000000000E+00 0.  1.
         21   -1    0    0  503  502 -0.00000000000E+00 -0.00000000000E+00 -0.61218795641E+03  0.61218795641E+03  0.00000000000E+00 0. -1.
         21    1    1    2  503  504 -0.28141160361E+02 -0.50610998860E+02 -0.13123804672E+03  0.14344623738E+03  0.00000000000E+00 0. -1.
         21    1    1    2  504  501 -0.54179000074E+02 -0.22479992378E+03  0.55654969836E+03  0.60267564786E+03  0.00000000000E+00 0.  1.
         21    1    1    2  505  502  0.32049954960E+02  0.43458721381E+02 -0.12787601463E+03  0.13880970857E+03  0.00000000000E+00 0.  1.
         21    1    1    2  506  505  0.50270205474E+02  0.23195220126E+03 -0.27421742344E+03  0.36266253259E+03  0.00000000000E+00 0. -1.
<scales pt_clust_3="57.90853" pt_clust_4="233.94778" pt_clust_5="40.38242" pt_clust_6="40.38242"></scales>
<clustering>
<clus scale="   40.382">  5  6 -1 -1</clus>
<clus scale="   57.909">  2  3  1 -1</clus>
<clus scale="  233.948">  1  4  2 -1</clus>
<clus scale="  233.948">  1  3  2 -1</clus>
</clustering>
</event>
<event>
 6    0  0.1438923E+002  0.9515840E+02  0.7546771E-02  0.1290820E+00
         21   -1    0    0  505  501  0.00000000000E+00  0.00000000000E+00  0.20738036158E+04  0.20738036158E+04  0.00000000000E+00 0.  1.
         21   -1    0    0  503  502 -0.00000000000E+00 -0.00000000000E+00 -0.10620571310E+04  0.10620571310E+04  0.00000000000E+00 0.  1.
         21    1    1    2  503  504 -0.33885425426E+02 -0.83986303890E+02  0.60036149849E+03  0.60715389332E+03  0.00000000000E+00 0. -1.
         21    1    1    2  504  501  0.72620357354E+02  0.70228860293E+02  0.12430030172E+04  0.12471015636E+04  0.00000000000E+00 0.  1.
         21    1    1    2  505  506 -0.66245264898E+02 -0.12612251417E+01  0.21987710169E+03  0.22964312674E+03  0.00000000000E+00 0. -1.
         21    1    1    2  506  502  0.27510332970E+02  0.15018668739E+02 -0.10514951326E+04  0.10519621631E+04  0.00000000000E+00 0.  1.
<scales pt_clust_3="95.15840" pt_clust_4="14000.00000" pt_clust_5="53.55842" pt_clust_6="31.34292"></scales>
<clustering>
<clus scale="   31.343">  2  6  1 -1</clus>
<clus scale="   53.558">  2  5  1 -1</clus>
<clus scale="   95.158">  2  3  1 -1</clus>
<clus scale="   95.158">  1  3  2 -1</clus>
</clustering>
</event>
<event>
 6    0  0.1438923E+002  0.1136041E+03  0.7546771E-02  0.1254038E+00
         21   -1    0    0  506  501  0.00000000000E+00  0.00000000000E+00  0.42584162419E+03  0.42584162419E+03  0.00000000000E+00 0.  1.
         21   -1    0    0  503  502 -0.00000000000E+00 -0.00000000000E+00 -0.89994746647E+02  0.89994746647E+02  0.00000000000E+00 0.  1.
         21    1    1    2  503  504 -0.88667657389E+02 -0.77027617612E+02 -0.16219088311E+02  0.11856755951E+03  0.00000000000E+00 0.  1.
         21    1    1    2  504  505  0.40769697156E+02 -0.20327227087E+02  0.44985334787E+02  0.64023782402E+02  0.00000000000E+00 0.  1.
         21    1    1    2  505  501  0.43888744005E+02  0.20198920471E+02  0.80850774878E+02  0.94186336785E+02  0.00000000000E+00 0.  1.
         21    1    1    2  506  502  0.40092162284E+01  0.77155924228E+02  0.22622985619E+03  0.23905869215E+03  0.00000000000E+00 0.  1.
<scales pt_clust_3="104.29402" pt_clust_4="43.73624" pt_clust_5="43.73624" pt_clust_6="77.26002"></scales>
<clustering>
<clus scale="   43.736">  4  5 -1 -1</clus>
<clus scale="   77.260">  1  6  2 -1</clus>
<clus scale="  104.294">  2  3  1 -1</clus>
<clus scale="   77.260">  1  3  2 -1</clus>
</clustering>
</event>
<event>
 6    0  0.1438923E+002  0.1061112E+03  0.7546771E-02  0.1267946E+00
         21   -1    0    0  506  501  0.00000000000E+00  0.00000000000E+00  0.17109269032E+04  0.17109269032E+04  0.00000000000E+00 0.  1.
         21   -1    0    0  504  502 -0.00000000000E+00 -0.00000000000E+00 -0.26554255583E+02  0.26554255583E+02  0.00000000000E+00 0.  1.
         21    1    1    2  503  502 -0.78284123717E+02 -0.50888819580E+02  0.11064646132E+03  0.14477815922E+03  0.00000000000E+00 0.  1.
         21    1    1    2  504  505  0.15227722551E+02  0.83883311498E+02  0.38294441193E+03  0.39231966062E+03  0.00000000000E+00 0.  1.
         21    1    1    2  505  501  0.41118994863E+02  0.42897522043E+02  0.28303097154E+03  0.28920148684E+03  0.00000000000E+00 0. -1.
         21    1    1    2  506  503  0.21937406304E+02 -0.75892013962E+02  0.90775080279E+03  0.91118185208E+03  0.00000000000E+00 0.  1.
<scales pt_clust_3="97.77556" pt_clust_4="34.41754" pt_clust_5="34.41754" pt_clust_6="78.99904"></scales>
<clustering>
<clus scale="   34.418">  4  5 -1 -1</clus>
<clus scale="   78.999">  1  6  2 -1</clus>
<clus scale="   97.776">  2  3  1 -1</clus>
<clus scale="   78.999">  1  3  2 -1</clus>
</clustering>
</event>
<event>
 6    0  0.1438923E+002  0.6849289E+02  0.7546771E-02  0.1365294E+00
         21   -1    0    0  503  501  0.00000000000E+00  0.00000000000E+00  0.25556491308E+04  0.25556491308E+04  0.00000000000E+00 0.  1.
         21   -1    0    0  506  502 -0.00000000000E+00 -0.00000000000E+00 -0.72460488810E+02  0.72460488810E+02  0.00000000000E+00 0.  1.
         21    1    1    2  503  504 -0.89439866900E+02 -0.13536430611E+02  0.65230848819E+03  0.65855074863E+03  0.00000000000E+00 0.  1.
         21    1    1    2  504  505  0.27283797253E+02 -0.67709084933E+02  0.38286225830E+03  0.38975945737E+03  0.00000000000E+00 0.  1.
         21    1    1    2  505  502  0.18461308824E+01  0.59933344575E+02 -0.51424684274E+02  0.78993114535E+02  0.00000000000E+00 0.  1.
         21    1    1    2  506  501  0.60309938764E+02  0.21312170968E+02  0.14994425797E+04  0.15008062991E+04  0.00000000000E+00 0.  1.
<scales pt_clust_3="14000.00000" pt_clust_4="48.27283" pt_clust_5="59.96177" pt_clust_6="68.49289"></scales>
<clustering>
<clus scale="   59.962">  2  5  1 -1</clus>
<clus scale="   48.273">  2  4  1 -1</clus>
<clus scale="   68.493">  1  6  2 -1</clus>
<clus scale="   68.493">  1  3  2 -1</clus>
</clustering>
</event>
<event>
 6    0  0.1438923E+002  0.1313976E+03  0.7546771E-02  0.1225396E+00
         21   -1    0    0  503  501  0.00000000000E+00  0.00000000000E+00  0.30256338718E+03  0.30256338718E+03  0.00000000000E+00 0. -1.
         21   -1    0    0  506  502 -0.00000000000E+00 -0.00000000000E+00 -0.10022127695E+03  0.10022127695E+03  0.00000000000E+00 0. -1.
         21    1    1    2  503  505 -0.38207817132E+01 -0.31011092670E+02  0.36244935222E+02  0.47853751898E+02  0.00000000000E+00 0. -1.
         21    1    1    2  504  501  0.40640285991E+02 -0.20527641461E+02  0.10775284988E+03  0.11697732074E+03  0.00000000000E+00 0. -1.
         21    1    1    2  505  502 -0.10516635809E+03  0.74128723121E+02 -0.21501238431E+02  0.13045050295E+03  0.00000000000E+00 0. -1.
         21    1    1    2  506  504  0.68346853808E+02 -0.22589988990E+02  0.79845563564E+02  0.10750308856E+03  0.00000000000E+00 0. -1.
<scales pt_clust_3="31.24558" pt_clust_4="30.39865" pt_clust_5="125.71547" pt_clust_6="30.39865"></scales>
<clustering>
<clus scale="   30.399">  4  6 -1 -1</clus>
<clus scale="   31.246">  1  3  2 -1</clus>
<clus scale="  125.715">  2  5  1 -1</clus>
<clus scale="   31.246">  1  3  2 -1</clus>
</clustering>
</event>
<event>
 6    0  0.1438923E+002  0.1097801E+03  0.7546771E-02  0.1260978E+00
         21   -1    0    0  505  501  0.00000000000E+00  0.00000000000E+00  0.55891961669E+03  0.55891961669E+03  0.00000000000E+00 0.  1.
         21   -1    0    0  506  502 -0.00000000000E+00 -0.00000000000E+00 -0.17853791602E+03  0.17853791602E+03  0.00000000000E+00 0. -1.
         21    1    1    2  503  502 -0.70668240045E+02  0.95175034903E+02 -0.14557384719E+03  0.18773394047E+03  0.00000000000E+00 0. -1.
         21    1    1    2  504  503 -0.87487475893E+01 -0.47998845073E+02  0.15336564756E+03  0.16093927912E+03  0.00000000000E+00 0.  1.
         21    1    1    2  505  504  0.20712219704E+02 -0.27237219936E+02  0.23986024227E+03  0.24228866671E+03  0.00000000000E+00 0.  1.
         21    1    1    2  506  501  0.58704767931E+02 -0.19938969895E+02  0.13272965802E+03  0.14649564641E+03  0.00000000000E+00 0. -1.
<scales pt_clust_3="109.78005" pt_clust_4="61.48387" pt_clust_5="34.21786" pt_clust_6="14000.00000"></scales>
<clustering>
<clus scale="   34.218">  1  5  2 -1</clus>
<clus scale="   61.484">  1  4  2 -1</clus>
<clus scale="  109.780">  2  3  1 -1</clus>
<clus scale="   34.218">  1  3  2 -1</clus>
</clustering>
</event>
<event>
 6    0  0.1438923E+002  0.1047591E+03  0.7546771E-02  0.1270595E+00
         21   -1    0    0  503  501  0.00000000000E+00  0.00000000000E+00  0.32642605776E+03  0.32642605776E+03  0.00000000000E+00 0.  1.
         21   -1    0    0  504  502 -0.00000000000E+00 -0.00000000000E+00 -0.18903541096E+04  0.18903541096E+04  0.00000000000E+00 0.  1.
         21    1    1    2  503  505  0.10338265544E+03  0.10684904791E+03  0.12791477096E+03  0.19612975581E+03  0.00000000000E+00 0.  1.
         21    1    1    2  504  506 -0.34891124823E+02 -0.65237228644E+02  0.26480466242E+02  0.78577997461E+02  0.00000000000E+00 0.  1.
         21    1    1    2  505  502  0.20889434252E+02 -0.28634989871E+02 -0.18117674257E+04  0.18121141068E+04  0.00000000000E+00 0.  1.
         21    1    1    2  506  501 -0.89380964864E+02 -0.12976829396E+02  0.93444136630E+02  0.12995830736E+03  0.00000000000E+00 0.  1.
<scales pt_clust_3="104.75909" pt_clust_4="79.80487" pt_clust_5="35.44476" pt_clust_6="14000.00000"></scales>
<clustering>
<clus scale="   35.445">  2  5  1 -1</clus>
<clus scale="   79.805">  2  4  1 -1</clus>
<clus scale="  104.759">  2  3  1 -1</clus>
<clus scale="  104.759">  1  3  2 -1</clus>
</clustering>
</event>
<event>
 6    0  0.1438923E+002  0.6352911E+02  0.7546771E-02  0.1383591E+00
         21   -1    0    0  503  501  0.00000000000E+00  0.00000000000E+00  0.26112314639E+03  0.26112314639E+03  0.00000000000E+00 0.  1.
         21   -1    0    0  504  502 -0.00000000000E+00 -0.00000000000E+00 -0.53767870778E+03  0.53767870778E+03  0.00000000000E+00 0. -1.
         21    1    1    2  503  505  0.41972539021E+02  0.10844234791E+02 -0.12849889772E+02  0.45215164792E+02  0.00000000000E+00 0. -1.
         21    1    1    2  504  506 -0.13866958482E+03  0.23690972032E+02  0.16184697146E+03  0.21444103637E+03  0.00000000000E+00 0.  1.
         21    1    1    2  505  502  0.58923096728E+02 -0.21447219083E+02 -0.47297933770E+03  0.47711777207E+03  0.00000000000E+00 0. -1.
         21    1    1    2  506  501  0.37773949070E+02 -0.13087987740E+02  0.47426694619E+02  0.62027880940E+02  0.00000000000E+00 0.  1.
<scales pt_clust_3="45.99435" pt_clust_4="63.52911" pt_clust_5="14000.00000" pt_clust_6="39.97708"></scales>
<clustering>
<clus scale="   39.977">  1  6  2 -1</clus>
<clus scale="   45.994">  1  3  2 -1</clus>
<clus scale="   63.529">  1  4  2 -1</clus>
<clus scale="   39.977">  1  3  2 -1</clus>
</clustering>
</event>
<event>
 6    0  0.1438923E+002  0.1267252E+03  0.7546771E-02  0.1232397E+00
         21   -1    0    0  503  501  0.00000000000E+00  0.00000000000E+00  0.34491105545E+03  0.34491105545E+03  0.00000000000E+00 0.  1.
         21   -1    0    0  504  502 -0.00000000000E+00 -0.00000000000E+00 -0.46559447294E+03  0.46559447294E+03  0.00000000000E+00 0.  1.
         21    1    1    2  503  505 -0.61245432127E+02  0.16934700265E+02  0.67859220160E+02  0.92965911980E+02  0.00000000000E+00 0.  1.
         21    1    1    2  504  506  0.49212836577E+02  0.50031735107E+02 -0.41732148761E+03  0.42318116903E+03  0.00000000000E+00 0.  1.
         21    1    1    2  505  502 -0.78173653771E+02 -0.50615315462E+02  0.12514942357E+03  0.15599810423E+03  0.00000000000E+00 0.  1.
         21    1    1    2  506  501  0.90206249321E+02 -0.16351119911E+02  0.10362942640E+03  0.13836034314E+03  0.00000000000E+00 0.  1.
<scales pt_clust_3="53.26855" pt_clust_4="70.17890" pt_clust_5="53.26855" pt_clust_6="109.08991"></scales>
<clustering>
<clus scale="   53.269">  3  5 -1 -1</clus>
<clus scale="   70.179">  2  4  1 -1</clus>
<clus scale="  109.090">  1  6  2 -1</clus>
<clus scale="  109.090">  1  3  2 -1</clus>
</clustering>
</event>
<event>
 6    0  0.1438923E+002  0.8768409E+02  0.7546771E-02  0.1308559E+00
         21   -1    0    0  503  501  0.00000000000E+00  0.00000000000E+00  0.52487305541E+03  0.52487305541E+03  0.00000000000E+00 0.  1.
         21   -1    0    0  501  502 -0.00000000000E+00 -0.00000000000E+00 -0.53544377434E+02  0.53544377434E+02  0.00000000000E+00 0.  1.
         21    1    1    2  503  505 -0.41372667364E+02  0.45810841711E+02  0.26101513569E+03  0.26821489870E+03  0.00000000000E+00 0.  1.
         21    1    1    2  504  506  0.98448801687E+02  0.96645548825E+01  0.40922081289E+02  0.10705226253E+03  0.00000000000E+00 0.  1.
         21    1    1    2  505  504 -0.61874472259E+02 -0.25792209221E+02  0.15684386616E+03  0.17056871556E+03  0.00000000000E+00 0.  1.
         21    1    1    2  506  502  0.47983379353E+01 -0.29683187373E+02  0.12547594834E+02  0.32581556065E+02  0.00000000000E+00 0.  1.
<scales pt_clust_3="59.65530" pt_clust_4="14000.00000" pt_clust_5="87.68409" pt_clust_6="30.06852"></scales>
<clustering>
<clus scale="   30.069">  2  6  1 -1</clus>
<clus scale="   59.655">  1  3  2 -1</clus>
<clus scale="   87.684">  1  5  2 -1</clus>
<clus scale="   59.655">  1  3  2 -1</clus>
</clustering>
</event>
<event>
 6    0  0.1438923E+002  0.1440728E+03  0.7546771E-02  0.1207951E+00
         21   -1    0    0  506  501  0.00000000000E+00  0.00000000000E+00  0.15806027949E+03  0.15806027949E+03  0.00000000000E+00 0.  1.
         21   -1    0    0  501  502 -0.00000000000E+00 -0.00000000000E+00 -0.93511795120E+03  0.93511795120E+03  0.00000000000E+00 0.  1.
         21    1    1    2  503  505 -0.93523287499E+02 -0.88367612092E+02 -0.31034704627E+02  0.13235782207E+03  0.00000000000E+00 0.  1.
         21    1    1    2  504  502  0.24765191093E+02 -0.24948486642E+02 -0.73775664065E+03  0.73859366535E+03  0.00000000000E+00 0.  1.
         21    1    1    2  505  504 -0.36408015885E+02 -0.12405070294E+01 -0.49390417785E+02  0.61371783804E+02  0.00000000000E+00 0. -1.
         21    1    1    2  506  503  0.10516611229E+03  0.11455660576E+03  0.41124091345E+02  0.16085495947E+03  0.00000000000E+00 0.  1.
<scales pt_clust_3="14000.00000" pt_clust_4="35.15312" pt_clust_5="30.57956" pt_clust_6="144.07277"></scales>
<clustering>
<clus scale="   35.153">  2  4  1 -1</clus>
<clus scale="   30.580">  2  5  1 -1</clus>
<clus scale="  144.073">  1  6  2 -1</clus>
<clus scale="  144.073">  1  3  2 -1</clus>
</clustering>
</event>
<event>
 6    0  0.1438923E+002  0.1150534E+03  0.7546771E-02  0.1251488E+00
         21   -1    0    0  504  501  0.00000000000E+00  0.00000000000E+00  0.11778861628E+04  0.11778861628E+04  0.00000000000E+00 0.  1.
         21   -1    0    0  506  502 -0.00000000000E+00 -0.00000000000E+00 -0.50887343524E+02  0.50887343524E+02  0.00000000000E+00 0. -1.
         21    1    1    2  503  505  0.12750323287E+02 -0.14743564595E+03  0.37072586874E+03  0.39917102875E+03  0.00000000000E+00 0. -1.
         21    1    1    2  504  502 -0.72330037565E+01  0.30212634794E+02 -0.19190660485E+02  0.36515765011E+02  0.00000000000E+00 0. -1.
         21    1    1    2  505  501  0.32213168974E+02  0.10281497537E+03  0.69230918232E+03  0.70064299849E+03  0.00000000000E+00 0.  1.
         21    1    1    2  506  503 -0.37730488504E+02  0.14408035789E+02  0.83154428714E+02  0.92443714079E+02  0.00000000000E+00 0. -1.
<scales pt_clust_3="14000.00000" pt_clust_4="31.06637" pt_clust_5="115.05345" pt_clust_6="44.22705"></scales>
<clustering>
<clus scale="   31.066">  2  4  1 -1</clus>
<clus scale="   44.227">  2  6  1 -1</clus>
<clus scale="  115.053">  1  5  2 -1</clus>
<clus scale="  115.053">  1  3  2 -1</clus>
</clustering>
</event>
<event>
 6    0  0.1438923E+002  0.1364273E+03  0.7546771E-02  0.1218219E+00
         21   -1    0    0  503  501  0.00000000000E+00  0.00000000000E+00  0.44160530221E+03  0.44160530221E+03  0.00000000000E+00 0.  1.
         21   -1    0    0  504  502 -0.00000000000E+00 -0.00000000000E+00 -0.78888546083E+02  0.78888546083E+02  0.00000000000E+00 0.  1.
         21    1    1    2  503  505 -0.42593116051E+02 -0.58984372458E+02  0.18417704754E+03  0.19802655016E+03  0.00000000000E+00 0.  1.
         21    1    1    2  504  506 -0.25498549311E+02 -0.16487382730E+02 -0.27423066984E+02  0.40914965588E+02  0.00000000000E+00 0.  1.
         21    1    1    2  505  502 -0.45798956650E+02 -0.13022056533E+02  0.55524832374E+02  0.73144551381E+02  0.00000000000E+00 0.  1.
         21    1    1    2  506  501  0.11389062201E+03  0.88493811721E+02  0.15043794320E+03  0.20840778116E+03  0.00000000000E+00 0.  1.
<scales pt_clust_3="46.14451" pt_clust_4="30.36461" pt_clust_5="46.14451" pt_clust_6="124.63432"></scales>
<clustering>
<clus scale="   30.365">  2  4  1 -1</clus>
<clus scale="   46.145">  3  5 -1 -1</clus>
<clus scale="  124.634">  2  6  1 -1</clus>
<clus scale="  136.427">  1  3  2 -1</clus>
</clustering>
</event>
<event>
 6    0  0.1438923E+002  0.1536544E+03  0.7546771E-02  0.1196053E+00
         21   -1    0    0  503  501  0.00000000000E+00  0.00000000000E+00  0.13644497155E+03  0.13644497155E+03  0.00000000000E+00 0. -1.
         21   -1    0    0  506  502 -0.00000000000E+00 -0.00000000000E+00 -0.18025936255E+04  0.18025936255E+04  0.00000000000E+00 0.  1.
         21    1    1    2  503  502  0.49001523269E+02 -0.14469157943E+02 -0.27650868132E+02  0.58095407071E+02  0.00000000000E+00 0. -1.
         21    1    1    2  504  505  0.36181335278E+02  0.28798862770E+02  0.34142092502E+01  0.46369390163E+02  0.00000000000E+00 0.  1.
         21    1    1    2  505  501  0.35648792615E+02  0.63435259731E+02  0.79154706498E+02  0.10751900368E+03  0.00000000000E+00 0. -1.
         21    1    1    2  506  504 -0.12083165116E+03 -0.77764964558E+02 -0.17210667016E+04  0.17270547962E+04  0.00000000000E+00 0.  1.
<scales pt_clust_3="51.09311" pt_clust_4="45.07691" pt_clust_5="45.07691" pt_clust_6="142.87187"></scales>
<clustering>
<clus scale="   45.077">  4  5 -1 -1</clus>
<clus scale="   51.093">  1  3  2 -1</clus>
<clus scale="  142.872">  2  6  1 -1</clus>
<clus scale="   51.093">  1  3  2 -1</clus>
</clustering>
</event>
<event>
 6    0  0.1438923E+002  0.1125159E+03  0.7546771E-02  0.1255981E+00
         21   -1    0    0  503  501  0.00000000000E+00  0.00000000000E+00  0.16557996248E+04  0.16557996248E+04  0.00000000000E+00 0.  1.
         21   -1    0    0  505  502 -0.00000000000E+00 -0.00000000000E+00 -0.91202913097E+02  0.91202913097E+02  0.00000000000E+00 0.  1.
         21    1    1    2  503  504 -0.10902701934E+02 -0.46316092160E+02  0.50161897573E+03  0.50387066407E+03  0.00000000000E+00 0.  1.
         21    1    1    2  504  506  0.41135375081E+02 -0.58573851329E+02  0.60626763323E+03  0.61047805714E+03  0.00000000000E+00 0.  1.
         21    1    1    2  505  501  0.30359997414E+02  0.95178618777E+02  0.52870120424E+03  0.53805730390E+03  0.00000000000E+00 0.  1.
         21    1    1    2  506  502 -0.60592670561E+02  0.97113247115E+01 -0.71991101447E+02  0.94596512836E+02  0.00000000000E+00 0.  1.
<scales pt_clust_3="40.31140" pt_clust_4="40.31140" pt_clust_5="101.07126" pt_clust_6="61.36596"></scales>
<clustering>
<clus scale="   40.311">  3  4 -1 -1</clus>
<clus scale="   61.366">  2  6  1 -1</clus>
<clus scale="  101.071">  2  5  1 -1</clus>
<clus scale="  112.516">  1  3  2 -1</clus>
</clustering>
</event>
<event>
 6    0  0.1438923E+002  0.1318327E+03  0.7546771E-02  0.1224761E+00
         21   -1    0    0  503  501  0.00000000000E+00  0.00000000000E+00  0.53844476081E+03  0.53844476081E+03  0.00000000000E+00 0.  1.
         21   -1    0    0  505  502 -0.00000000000E+00 -0.00000000000E+00 -0.29143404743E+03  0.29143404743E+03  0.00000000000E+00 0. -1.
         21    1    1    2  503  502  0.77914717861E+02 -0.96198994100E+02 -0.26347363292E+03  0.29110703353E+03  0.00000000000E+00 0. -1.
         21    1    1    2  504  506 -0.38682353310E+02  0.40031796290E+02  0.18336236802E+03  0.19162626954E+03  0.00000000000E+00 0.  1.
         21    1    1    2  505  504 -0.53425656796E+02 -0.17464949507E+01  0.11525204547E+03  0.12704481506E+03  0.00000000000E+00 0.  1.
         21    1    1    2  506  501  0.14193292245E+02  0.57913692761E+02  0.21186993282E+03  0.22010069011E+03  0.00000000000E+00 0.  1.
<scales pt_clust_3="122.26534" pt_clust_4="48.31549" pt_clust_5="48.31549" pt_clust_6="59.62756"></scales>
<clustering>
<clus scale="   48.315">  4  5 -1 -1</clus>
<clus scale="   59.628">  1  6  2 -1</clus>
<clus scale="  122.265">  2  3  1 -1</clus>
<clus scale="   59.628">  1  3  2 -1</clus>
</clustering>
</event>
<event>
 6    0  0.1438923E+002  0.1507828E+03  0.7546771E-02  0.1199514E+00
         21   -1    0    0  505  501  0.00000000000E+00  0.00000000000E+00  0.10414670886E+03  0.10414670886E+03  0.00000000000E+00 0. -1.
         21   -1    0    0  503  502 -0.00000000000E+00 -0.00000000000E+00 -0.13011884381E+04  0.13011884381E+04  0.00000000000E+00 0.  1.
         21    1    1    2  503  501 -0.10403690824E+03  0.60915523776E+02 -0.12227987424E+03  0.17171705494E+03  0.00000000000E+00 0.  1.
         21    1    1    2  504  506  0.69396088415E+02 -0.32279331044E+02 -0.13759983419E+02  0.77763162511E+02  0.00000000000E+00 0. -1.
         21    1    1    2  505  504  0.57198848672E+02 -0.66231606907E+02  0.62201510895E+01  0.87732686739E+02  0.00000000000E+00 0. -1.
         21    1    1    2  506  502 -0.22558028848E+02  0.37595414175E+02 -0.10672220227E+04  0.10681222428E+04  0.00000000000E+00 0.  1.
<scales pt_clust_3="145.37578" pt_clust_4="37.42328" pt_clust_5="37.42328" pt_clust_6="43.84381"></scales>
<clustering>
<clus scale="   37.423">  4  5 -1 -1</clus>
<clus scale="   43.844">  2  6  1 -1</clus>
<clus scale="  145.376">  2  3  1 -1</clus>
<clus scale="  150.783">  1  3  2 -1</clus>
</clustering>
</event>
<event>
 6    0  0.3525860E+002  0.1503666E+03  0.7546771E-02  0.1200023E+00
         21   -1    0    0  505  501  0.00000000000E+00  0.00000000000E+00  0.49333878920E+03  0.49333878920E+03  0.00000000000E+00 0. -1.
         21   -1    0    0  504  502 -0.00000000000E+00 -0.00000000000E+00 -0.58989608477E+03  0.58989608477E+03  0.00000000000E+00 0.  1.
         21    1    1    2  503  506  0.30923679877E+02  0.17549070401E+01 -0.73509926379E+02  0.79768809394E+02  0.00000000000E+00 0.  1.
         21    1    1    2  504  501 -0.10893868352E+03  0.85514638505E+02  0.46551099094E+03  0.48567568691E+03  0.00000000000E+00 0. -1.
         21    1    1    2  505  503  0.48037177051E+02 -0.84196418122E+02 -0.15461079855E+03  0.18248590694E+03  0.00000000000E+00 0.  1.
         21    1    1    2  506  502  0.29977826594E+02 -0.30731274228E+01 -0.33394756158E+03  0.33530447072E+03  0.00000000000E+00 0.  1.
<scales pt_clust_3="36.73319" pt_clust_4="137.48845" pt_clust_5="36.73319" pt_clust_6="30.13493"></scales>
<clustering>
<clus scale="   30.135">  2  6  1 -1</clus>
<clus scale="   36.733">  3  5 -1 -1</clus>
<clus scale="  137.488">  1  4  2 -1</clus>
<clus scale="  137.488">  1  3  2 -1</clus>
</clustering>
</event>
<event>
 6    0  0.1438923E+002  0.1769174E+03  0.7546771E-02  0.1170820E+00
         21   -1    0    0  503  501  0.00000000000E+00  0.00000000000E+00  0.67272367819E+03  0.67272367819E+03  0.00000000000E+00 0.  1.
         21   -1    0    0  506  502 -0.00000000000E+00 -0.00000000000E+00 -0.13007025540E+03  0.13007025540E+03  0.00000000000E+00 0.  1.
         21    1    1    2  503  505 -0.95595902888E+02  0.12648202666E+03  0.29323570224E+03  0.33335185133E+03  0.00000000000E+00 0.  1.
         21    1    1    2  504  502  0.17787334514E+02 -0.42198865844E+02  0.55636492215E+02  0.72059370061E+02  0.00000000000E+00 0.  1.
         21    1    1    2  505  504  0.11789672956E+03 -0.78030402631E+02  0.27352932499E+03  0.30790692458E+03  0.00000000000E+00 0.  1.
         21    1    1    2  506  501 -0.40088161190E+02 -0.62527581812E+01 -0.79748096650E+02  0.89475787628E+02  0.00000000000E+00 0.  1.
<scales pt_clust_3="167.75208" pt_clust_4="31.98803" pt_clust_5="31.98803" pt_clust_6="40.57287"></scales>
<clustering>
<clus scale="   31.988">  4  5 -1 -1</clus>
<clus scale="   40.573">  2  6  1 -1</clus>
<clus scale="  167.752">  1  3  2 -1</clus>
<clus scale="  167.752">  1  3  2 -1</clus>
</clustering>
</event>
<event>
 6    0  0.1438923E+002  0.2126606E+03  0.7546771E-02  0.1139476E+00
         21   -1    0    0  506  501  0.00000000000E+00  0.00000000000E+00  0.12586328435E+04  0.12586328435E+04  0.00000000000E+00 0. -1.
         21   -1    0    0  501  502 -0.00000000000E+00 -0.00000000000E+00 -0.88791688388E+02  0.88791688388E+02  0.00000000000E+00 0. -1.
         21    1    1    2  503  502 -0.72181065350E+02  0.26200474339E+02 -0.25164587590E+02  0.80807348176E+02  0.00000000000E+00 0. -1.
         21    1    1    2  504  505  0.27147877060E+02  0.30310794323E+02  0.59162848565E+02  0.71805251421E+02  0.00000000000E+00 0.  1.
         21    1    1    2  505  503  0.45614951779E+01 -0.21054781880E+03  0.60604309767E+03  0.64159132435E+03  0.00000000000E+00 0. -1.
         21    1    1    2  506  504  0.40471693112E+02  0.15403655014E+03  0.52979979650E+03  0.55322060798E+03  0.00000000000E+00 0. -1.
<scales pt_clust_3="76.78913" pt_clust_4="36.53338" pt_clust_5="200.00135" pt_clust_6="36.53338"></scales>
<clustering>
<clus scale="   36.533">  4  6 -1 -1</clus>
<clus scale="   76.789">  2  3  1 -1</clus>
<clus scale="  200.001">  2  5  1 -1</clus>
<clus scale="  212.661">  1  3  2 -1</clus>
</clustering>
</event>
<event>
 6    0  0.1438923E+002  0.1257361E+03  0.7546771E-02  0.1233923E+00
         21   -1    0    0  506  501  0.00000000000E+00  0.00000000000E+00  0.57981182837E+03  0.57981182837E+03  0.00000000000E+00 0.  1.
         21   -1    0    0  505  502 -0.00000000000E+00 -0.00000000000E+00 -0.79741495977E+02  0.79741495977E+02  0.00000000000E+00 0.  1.
         21    1    1    2  503  502 -0.74225637405E+02 -0.51191406326E+02  0.13501261500E+03  0.16235273801E+03  0.00000000000E+00 0.  1.
         21    1    1    2  504  503  0.65141176418E+02  0.31708889982E+02  0.14728501854E+03  0.16413928005E+03  0.00000000000E+00 0.  1.
         21    1    1    2  505  501 -0.27675434768E+02 -0.31751515905E+02 -0.45698972121E+02  0.62148889811E+02  0.00000000000E+00 0.  1.
         21    1    1    2  506  504  0.36759895756E+02  0.51234032249E+02  0.26347167097E+03  0.27091241647E+03  0.00000000000E+00 0. -1.
<scales pt_clust_3="111.91075" pt_clust_4="55.86289" pt_clust_5="42.11993" pt_clust_6="55.86289"></scales>
<clustering>
<clus scale="   42.120">  2  5  1 -1</clus>
<clus scale="   55.863">  4  6 -1 -1</clus>
<clus scale="  111.911">  2  3  1 -1</clus>
<clus scale="  125.736">  1  3  2 -1</clus>
</clustering>
</event>
<event>
 6    0  0.1438923E+002  0.2159047E+03  0.7546771E-02  0.1136974E+00
         21   -1    0    0  505  501  0.00000000000E+00  0.00000000000E+00  0.60948672161E+02  0.60948672161E+02  0.00000000000E+00 0. -1.
         21   -1    0    0  501  502 -0.00000000000E+00 -0.00000000000E+00 -0.19073260625E+04  0.19073260625E+04  0.00000000000E+00 0. -1.
         21    1    1    2  503  502  0.48456297341E+02 -0.56254351789E+02 -0.98107885311E+03  0.98388428226E+03  0.00000000000E+00 0. -1.
         21    1    1    2  504  503  0.49518851483E+02 -0.15248584733E+03 -0.63102629387E+03  0.65107467609E+03  0.00000000000E+00 0. -1.
         21    1    1    2  505  506 -0.25235334398E+02  0.67295445723E+02 -0.40046542888E+02  0.82275298326E+02  0.00000000000E+00 0. -1.
         21    1    1    2  506  504 -0.72739814426E+02  0.14144475339E+03 -0.19422570044E+03  0.25104047797E+03  0.00000000000E+00 0. -1.
<scales pt_clust_3="74.24665" pt_clust_4="208.73553" pt_clust_5="37.08968" pt_clust_6="37.08968"></scales>
<clustering>
<clus scale="   37.090">  5  6 -1 -1</clus>
<clus scale="   74.247">  2  3  1 -1</clus>
<clus scale="  208.736">  2  4  1 -1</clus>
<clus scale="  215.905">  1  3  2 -1</clus>
</clustering>
</event>
<event>
 6    0  0.1438923E+002  0.1489892E+03  0.7546771E-02  0.1201721E+00
         21   -1    0    0  502  501  0.00000000000E+00  0.00000000000E+00  0.12969751968E+04  0.12969751968E+04  0.00000000000E+00 0.  1.
         21   -1    0    0  505  502 -0.00000000000E+00 -0.00000000000E+00 -0.32890742740E+02  0.32890742740E+02  0.00000000000E+00 0.  1.
         21    1    1    2  503  506  0.62621126541E+02 -0.74724006180E+02  0.44479654846E+03  0.45535596198E+03  0.00000000000E+00 0.  1.
         21    1    1    2  504  503 -0.43498454845E+02  0.11537510925E+03  0.19584607153E+03  0.23142863941E+03  0.00000000000E+00 0.  1.
         21    1    1    2  505  504 -0.79590499607E+02 -0.27785094235E+02  0.23312659836E+03  0.24790052431E+03  0.00000000000E+00 0.  1.
         21    1    1    2  506  501  0.60467827911E+02 -0.12866008836E+02  0.39031523573E+03  0.39518081385E+03  0.00000000000E+00 0.  1.
<scales pt_clust_3="44.89233" pt_clust_4="137.91143" pt_clust_5="84.30100" pt_clust_6="44.89233"></scales>
<clustering>
<clus scale="   44.892">  3  6 -1 -1</clus>
<clus scale="   84.301">  2  5  1 -1</clus>
<clus scale="  137.911">  2  4  1 -1</clus>
<clus scale="  148.989">  1  3  2 -1</clus>
</clustering>
</event>
<event>
 6    0  0.1438923E+002  0.1748910E+03  0.7546771E-02  0.1172841E+00
         21   -1    0    0  504  501  0.00000000000E+00  0.00000000000E+00  0.11512983658E+04  0.11512983658E+04  0.00000000000E+00 0. -1.
         21   -1    0    0  503  502 -0.00000000000E+00 -0.00000000000E+00 -0.26273837237E+03  0.26273837237E+03  0.00000000000E+00 0. -1.
         21    1    1    2  503  506  0.12340789854E+03  0.12695384152E+03  0.14312816085E+03  0.22766742790E+03  0.00000000000E+00 0. -1.
         21    1    1    2  504  505 -0.22430136493E+02 -0.22189097108E+02  0.34364226683E+02  0.46651550126E+02  0.00000000000E+00 0.  1.
         21    1    1    2  505  502 -0.16567628491E+03 -0.62959182187E+02 -0.17572659703E+03  0.24958430821E+03  0.00000000000E+00 0. -1.
         21    1    1    2  506  501  0.64698522860E+02 -0.41805562225E+02  0.88679420294E+03  0.89013345194E+03  0.00000000000E+00 0. -1.
<scales pt_clust_3="174.89099" pt_clust_4="31.55102" pt_clust_5="14000.00000" pt_clust_6="75.71598"></scales>
<clustering>
<clus scale="   31.551">  1  4  2 -1</clus>
<clus scale="   75.716">  1  6  2 -1</clus>
<clus scale="  174.891">  1  3  2 -1</clus>
<clus scale="   31.551">  1  3  2 -1</clus>
</clustering>
</event>
<event>
 6    0  0.1438923E+002  0.1829405E+03  0.7546771E-02  0.1164987E+00
         21   -1    0    0  504  501  0.00000000000E+00  0.00000000000E+00  0.62031655600E+02  0.62031655600E+02  0.00000000000E+00 0. -1.
         21   -1    0    0  506  502 -0.00000000000E+00 -0.00000000000E+00 -0.55957616741E+03  0.55957616741E+03  0.00000000000E+00 0.  1.
         21    1    1    2  503  501 -0.35145337035E+02 -0.77355841222E+02 -0.11510895367E+03  0.14307058433E+03  0.00000000000E+00 0.  1.
         21    1    1    2  504  505  0.60653520220E+02  0.58656273645E+02 -0.95555411415E+02  0.12747644725E+03  0.00000000000E+00 0. -1.
         21    1    1    2  505  502  0.23276044386E+02  0.94882156214E+02 -0.83683153560E+02  0.12863618464E+03  0.00000000000E+00 0. -1.
         21    1    1    2  506  503 -0.48784227571E+02 -0.76182588637E+02 -0.20319699316E+03  0.22242460678E+03  0.00000000000E+00 0.  1.
<scales pt_clust_3="39.36447" pt_clust_4="49.60435" pt_clust_5="49.60435" pt_clust_6="179.63312"></scales>
<clustering>
<clus scale="   39.364">  3  6 -1 -1</clus>
<clus scale="   49.604">  4  5 -1 -1</clus>
<clus scale="  179.633">  2  3  1 -1</clus>
<clus scale="  182.940">  1  3  2 -1</clus>
</clustering>
</event>
<event>
 6    0  0.1438923E+002  0.1199461E+03  0.7546771E-02  0.1243186E+00
         21   -1    0    0  503  501  0.00000000000E+00  0.00000000000E+00  0.13987531915E+04  0.13987531915E+04  0.00000000000E+00 0.  1.
         21   -1    0    0  504  502 -0.00000000000E+00 -0.00000000000E+00 -0.16100607591E+03  0.16100607591E+03  0.00000000000E+00 0. -1.
         21    1    1    2  503  506  0.30961795003E+02 -0.11722901104E+03  0.11074718377E+04  0.11140893793E+04  0.00000000000E+00 0.  1.
         21    1    1    2  504  505  0.18284146198E+02  0.24122871171E+02  0.24200906963E+02  0.38754442501E+02  0.00000000000E+00 0. -1.
         21    1    1    2  505  501 -0.85449140908E+02  0.92506440026E+02  0.23845841189E+03  0.26966907744E+03  0.00000000000E+00 0. -1.
         21    1    1    2  506  502  0.36203199708E+02  0.59969983996E+00 -0.13238404089E+03  0.13724636823E+03  0.00000000000E+00 0. -1.
<scales pt_clust_3="119.94614" pt_clust_4="30.26917" pt_clust_5="14000.00000" pt_clust_6="56.58662"></scales>
<clustering>
<clus scale="   30.269">  2  4  1 -1</clus>
<clus scale="   56.587">  2  6  1 -1</clus>
<clus scale="  119.946">  1  3  2 -1</clus>
<clus scale="  119.946">  1  3  2 -1</clus>
</clustering>
</event>
<event>
 6    0  0.1438923E+002  0.7750825E+02  0.7546771E-02  0.1336275E+00
         21   -1    0    0  506  501  0.00000000000E+00  0.00000000000E+00  0.81742773583E+03  0.81742773583E+03  0.00000000000E+00 0.  1.
         21   -1    0    0  505  502 -0.00000000000E+00 -0.00000000000E+00 -0.34392714613E+03  0.34392714613E+03  0.00000000000E+00 0. -1.
         21    1    1    2  503  501  0.42432495838E+02 -0.12877592689E+02  0.10705359456E+03  0.11587416107E+03  0.00000000000E+00 0.  1.
         21    1    1    2  504  503 -0.77245400148E+02  0.41677004216E+02  0.65231342029E+03  0.65819193463E+03  0.00000000000E+00 0.  1.
         21    1    1    2  505  504  0.34679182142E+02 -0.69360896535E+02 -0.32307156581E+03  0.33224812456E+03  0.00000000000E+00 0. -1.
         21    1    1    2  506  502  0.13372216826E+00  0.40561485009E+02  0.37205140664E+02  0.55040661692E+02  0.00000000000E+00 0.  1.
<scales pt_clust_3="43.02767" pt_clust_4="14000.00000" pt_clust_5="77.50825" pt_clust_6="40.56171"></scales>
<clustering>
<clus scale="   40.562">  1  6  2 -1</clus>
<clus scale="   43.028">  1  3  2 -1</clus>
<clus scale="   77.508">  2  5  1 -1</clus>
<clus scale="   40.562">  1  3  2 -1</clus>
</clustering>
</event>
<event>
 6    0  0.1438923E+002  0.1895378E+03  0.7546771E-02  0.1158879E+00
         21   -1    0    0  504  501  0.00000000000E+00  0.00000000000E+00  0.24736129087E+03  0.24736129087E+03  0.00000000000E+00 0. -1.
         21   -1    0    0  506  502 -0.00000000000E+00 -0.00000000000E+00 -0.19382216756E+03  0.19382216756E+03  0.00000000000E+00 0. -1.
         21    1    1    2  503  501  0.97092105747E+02  0.17819387996E+02  0.90616870413E+02  0.13399934623E+03  0.00000000000E+00 0. -1.
         21    1    1    2  504  502 -0.36169276401E+02 -0.31202048705E+02 -0.33511751592E+02  0.58350851695E+02  0.00000000000E+00 0. -1.
         21    1    1    2  505  503  0.91742445554E+02 -0.13204260313E+02  0.10263519110E+02  0.93254322319E+02  0.00000000000E+00 0. -1.
         21    1    1    2  506  505 -0.15266527490E+03  0.26586921022E+02 -0.13829514619E+02  0.15557893818E+03  0.00000000000E+00 0. -1.
<scales pt_clust_3="72.61766" pt_clust_4="47.76803" pt_clust_5="72.61766" pt_clust_6="173.60010"></scales>
<clustering>
<clus scale="   47.768">  2  4  1 -1</clus>
<clus scale="   72.618">  3  5 -1 -1</clus>
<clus scale="  173.600">  2  6  1 -1</clus>
<clus scale="  189.538">  1  3  2 -1</clus>
</clustering>
</event>
<event>
 6    0  0.1438923E+002  0.7403010E+02  0.7546771E-02  0.1346901E+00
         21   -1    0    0  506  501  0.00000000000E+00  0.00000000000E+00  0.10514200798E+04  0.10514200798E+04  0.00000000000E+00 0.  1.
         21   -1    0    0  503  502 -0.00000000000E+00 -0.00000000000E+00 -0.50155288742E+02  0.50155288742E+02  0.00000000000E+00 0.  1.
         21    1    1    2  503  505  0.17413020345E+02 -0.43212662470E+02 -0.19257420571E+02  0.50412257659E+02  0.00000000000E+00 0.  1.
         21    1    1    2  504  501 -0.12619274123E+02 -0.43366861368E+02  0.39378995097E+03  0.39637161381E+03  0.00000000000E+00 0. -1.
         21    1    1    2  505  504 -0.68367680979E+02  0.27837431123E+02  0.46986183072E+03  0.47562506488E+03  0.00000000000E+00 0.  1.
         21    1    1    2  506  502  0.63573934758E+02  0.58742092715E+02  0.15687042991E+03  0.17916643217E+03  0.00000000000E+00 0.  1.
<scales pt_clust_3="47.43649" pt_clust_4="45.16559" pt_clust_5="74.03010" pt_clust_6="14000.00000"></scales>
<clustering>
<clus scale="   45.166">  1  4  2 -1</clus>
<clus scale="   47.436">  2  3  1 -1</clus>
<clus scale="   74.030">  1  5  2 -1</clus>
<clus scale="   45.166">  1  3  2 -1</clus>
</clustering>
</event>
<event>
 6    0  0.1438923E+002  0.1052126E+03  0.7546771E-02  0.1269701E+00
         21   -1    0    0  504  501  0.00000000000E+00  0.00000000000E+00  0.10246258486E+04  0.10246258486E+04  0.00000000000E+00 0. -1.
         21   -1    0    0  503  502 -0.00000000000E+00 -0.00000000000E+00 -0.20057080628E+03  0.20057080628E+03  0.00000000000E+00 0.  1.
         21    1    1    2  503  506 -0.11555549288E+02 -0.35107690152E+02  0.16702275921E+03  0.17106338802E+03  0.00000000000E+00 0. -1.
         21    1    1    2  504  505 -0.10158599333E+03  0.13164050063E+02  0.59247391872E+03  0.60126396085E+03  0.00000000000E+00 0. -1.
         21    1    1    2  505  502  0.93797835493E+02  0.48763408498E+02 -0.17856235943E+03  0.20751004832E+03  0.00000000000E+00 0.  1.
         21    1    1    2  506  501  0.19343707125E+02 -0.26819768409E+02  0.24312072384E+03  0.24535925771E+03  0.00000000000E+00 0. -1.
<scales pt_clust_3="41.57488" pt_clust_4="105.21258" pt_clust_5="14000.00000" pt_clust_6="33.06779"></scales>
<clustering>
<clus scale="   33.068">  1  6  2 -1</clus>
<clus scale="   41.575">  1  3  2 -1</clus>
<clus scale="  105.213">  1  4  2 -1</clus>
<clus scale="   33.068">  1  3  2 -1</clus>
</clustering>
</event>
<event>
 6    0  0.1438923E+002  0.9440418E+02  0.7546771E-02  0.1292524E+00
         21   -1    0    0  504  501  0.00000000000E+00  0.00000000000E+00  0.10401162932E+03  0.10401162932E+03  0.00000000000E+00 0. -1.
         21   -1    0    0  503  502 -0.00000000000E+00 -0.00000000000E+00 -0.78477966172E+03  0.78477966172E+03  0.00000000000E+00 0. -1.
         21    1    1    2  503  506 -0.12635966527E+03 -0.42067693040E+02 -0.60535637815E+02  0.14629087207E+03  0.00000000000E+00 0. -1.
         21    1    1    2  504  505  0.30732282046E+02  0.12300420320E+02 -0.20101241000E+02  0.38727682470E+02  0.00000000000E+00 0.  1.
         21    1    1    2  505  502  0.48267755169E+02 -0.16603036232E+02 -0.62929344092E+03  0.63136017596E+03  0.00000000000E+00 0. -1.
         21    1    1    2  506  501  0.47359628054E+02  0.46370308952E+02  0.29162287334E+02  0.72412560543E+02  0.00000000000E+00 0. -1.
<scales pt_clust_3="94.40418" pt_clust_4="33.10247" pt_clust_5="51.31748" pt_clust_6="14000.00000"></scales>
<clustering>
<clus scale="   33.102">  1  4  2 -1</clus>
<clus scale="   51.317">  2  5  1 -1</clus>
<clus scale="   94.404">  2  3  1 -1</clus>
<clus scale="   33.102">  1  3  2 -1</clus>
</clustering>
</event>
<event>
 6    0  0.1438923E+002  0.9684348E+02  0.7546771E-02  0.1287077E+00
         21   -1    0    0  505  501  0.00000000000E+00  0.00000000000E+00  0.17076141261E+03  0.17076141261E+03  0.00000000000E+00 0.  1.
         21   -1    0    0  506  502 -0.00000000000E+00 -0.00000000000E+00 -0.60659012849E+03  0.60659012849E+03  0.00000000000E+00 0. -1.
         21    1    1    2  503  501 -0.91083981145E+01 -0.37695740929E+02  0.66843982205E+02  0.77279038280E+02  0.00000000000E+00 0.  1.
         21    1    1    2  504  503  0.16176001225E+02 -0.82015349673E+02 -0.27511862409E+01  0.83640597938E+02  0.00000000000E+00 0.  1.
         21    1    1    2  505  502 -0.30040261485E+02  0.23346285575E+02  0.47080677939E+02  0.60531451291E+02  0.00000000000E+00 0.  1.
         21    1    1    2  506  504  0.22972658375E+02  0.96364805027E+02 -0.54700218978E+03  0.55590045359E+03  0.00000000000E+00 0. -1.
<scales pt_clust_3="36.14048" pt_clust_4="14000.00000" pt_clust_5="38.04558" pt_clust_6="96.84348"></scales>
<clustering>
<clus scale="   38.046">  1  5  2 -1</clus>
<clus scale="   36.140">  1  3  2 -1</clus>
<clus scale="   96.843">  2  6  1 -1</clus>
<clus scale="   38.046">  1  3  2 -1</clus>
</clustering>
</event>
<event>
 6    0  0.1438923E+002  0.2662064E+03  0.7546771E-02  0.1103471E+00
         21   -1    0    0  503  501  0.00000000000E+00  0.00000000000E+00  0.18301185273E+03  0.18301185273E+03  0.00000000000E+00 0.  1.
         21   -1    0    0  506  502 -0.00000000000E+00 -0.00000000000E+00 -0.17438452200E+04  0.17438452200E+04  0.00000000000E+00 0.  1.
         21    1    1    2  503  502 -0.17583168270E+02 -0.57263262619E+02 -0.11020689394E+03  0.12543447901E+03  0.00000000000E+00 0.  1.
         21    1    1    2  504  505 -0.37037713990E+02  0.86940194610E+02  0.19664017253E+02  0.96524936006E+02  0.00000000000E+00 0.  1.
         21    1    1    2  505  501  0.17082415231E+02  0.17445315352E+03  0.40509486162E+02  0.17990756002E+03  0.00000000000E+00 0.  1.
         21    1    1    2  506  504  0.37538467028E+02 -0.20413008552E+03 -0.15107999767E+04  0.15249900977E+04  0.00000000000E+00 0.  1.
<scales pt_clust_3="59.90200" pt_clust_4="46.83884" pt_clust_5="46.83884" pt_clust_6="258.45014"></scales>
<clustering>
<clus scale="   46.839">  4  5 -1 -1</clus>
<clus scale="   59.902">  2  3  1 -1</clus>
<clus scale="  258.450">  2  6  1 -1</clus>
<clus scale="  266.206">  1  3  2 -1</clus>
</clustering>
</event>
<event>
 6    0  0.1438923E+002  0.9178659E+02  0.7546771E-02  0.1298582E+00
         21   -1    0    0  504  501  0.00000000000E+00  0.00000000000E+00  0.32711273228E+03  0.32711273228E+03  0.00000000000E+00 0.  1.
         21   -1    0    0  503  502 -0.00000000000E+00 -0.00000000000E+00 -0.29108557650E+03  0.29108557650E+03  0.00000000000E+00 0.  1.
         21    1    1    2  503  506  0.40116182974E+02 -0.23585399556E+02 -0.21973372784E+02  0.51462688622E+02  0.00000000000E+00 0.  1.
         21    1    1    2  504  505  0.62392570015E+02  0.28725824856E+02  0.19469168599E+02  0.71393657510E+02  0.00000000000E+00 0. -1.
         21    1    1    2  505  502 -0.54803111972E+00 -0.42652356278E+02 -0.21516998607E+03  0.21935734940E+03  0.00000000000E+00 0.  1.
         21    1    1    2  506  501 -0.10196072187E+03  0.37511930978E+02  0.25370134604E+03  0.27598461325E+03  0.00000000000E+00 0.  1.
<scales pt_clust_3="59.95467" pt_clust_4="91.78659" pt_clust_5="42.65588" pt_clust_6="14000.00000"></scales>
<clustering>
<clus scale="   42.656">  2  5  1 -1</clus>
<clus scale="   59.955">  2  3  1 -1</clus>
<clus scale="   91.787">  2  4  1 -1</clus>
<clus scale="   91.787">  1  3  2 -1</clus>
</clustering>
</event>
<event>
 6    0  0.1438923E+002  0.1242587E+03  0.7546771E-02  0.1236232E+00
         21   -1    0    0  504  501  0.00000000000E+00  0.00000000000E+00  0.74860357286E+03  0.74860357286E+03  0.00000000000E+00 0. -1.
         21   -1    0    0  505  502 -0.00000000000E+00 -0.00000000000E+00 -0.29860830959E+03  0.29860830959E+03  0.00000000000E+00 0. -1.
         21    1    1    2  503  506 -0.78259365744E+02  0.61767016250E+02  0.62345216055E+03  0.63137333577E+03  0.00000000000E+00 0. -1.
         21    1    1    2  504  502  0.11791746080E+03 -0.81190481778E+02 -0.35205480703E+02  0.14743082366E+03  0.00000000000E+00 0. -1.
         21    1    1    2  505  503 -0.39584401161E+02 -0.16391298657E+02 -0.19590516229E+03  0.20053536371E+03  0.00000000000E+00 0. -1.
         21    1    1    2  506  501 -0.73693892122E-01  0.35814764184E+02  0.57653745708E+02  0.67872359312E+02  0.00000000000E+00 0. -1.
<scales pt_clust_3="124.25872" pt_clust_4="14000.00000" pt_clust_5="42.79802" pt_clust_6="35.81484"></scales>
<clustering>
<clus scale="   35.815">  1  6  2 -1</clus>
<clus scale="   42.798">  2  5  1 -1</clus>
<clus scale="  124.259">  1  3  2 -1</clus>
<clus scale="   35.815">  1  3  2 -1</clus>
</clustering>
</event>
<event>
 6    0  0.1438923E+002  0.1631034E+03  0.7546771E-02  0.1185237E+00
         21   -1    0    0  505  501  0.00000000000E+00  0.00000000000E+00  0.77482960534E+03  0.77482960534E+03  0.00000000000E+00 0.  1.
         21   -1    0    0  503  502 -0.00000000000E+00 -0.00000000000E+00 -0.31406035477E+03  0.31406035477E+03  0.00000000000E+00 0. -1.
         21    1    1    2  503  501 -0.12385598785E+03  0.82801205793E+02  0.53063705323E+03  0.55115517567E+03  0.00000000000E+00 0.  1.
         21    1    1    2  504  502  0.17690477442E+02  0.47549603999E+02 -0.26715810176E+03  0.27193265558E+03  0.00000000000E+00 0. -1.
         21    1    1    2  505  506  0.26880004813E+02 -0.77253065810E+02  0.10446000180E+03  0.13267427336E+03  0.00000000000E+00 0. -1.
         21    1    1    2  506  504  0.79285505598E+02 -0.53097743982E+02  0.92830297295E+02  0.13312785550E+03  0.00000000000E+00 0. -1.
<scales pt_clust_3="152.11139" pt_clust_4="50.73379" pt_clust_5="51.17338" pt_clust_6="51.17338"></scales>
<clustering>
<clus scale="   50.734">  2  4  1 -1</clus>
<clus scale="   51.173">  5  6 -1 -1</clus>
<clus scale="  152.111">  1  3  2 -1</clus>
<clus scale="  152.111">  1  3  2 -1</clus>
</clustering>
</event>
<event>
 6    0  0.1438923E+002  0.1577754E+03  0.7546771E-02  0.1191231E+00
         21   -1    0    0  503  501  0.00000000000E+00  0.00000000000E+00  0.27436347816E+04  0.27436347816E+04  0.00000000000E+00 0.  1.
         21   -1    0    0  506  502 -0.00000000000E+00 -0.00000000000E+00 -0.76769606169E+02  0.76769606169E+02  0.00000000000E+00 0. -1.
         21    1    1    2  503  505 -0.98236647151E+02 -0.95378599959E+02  0.23549472562E+04  0.23589243514E+04  0.00000000000E+00 0.  1.
         21    1    1    2  504  501  0.10552946630E+01 -0.36127686570E+02  0.21291085735E+03  0.21595683958E+03  0.00000000000E+00 0.  1.
         21    1    1    2  505  502  0.50743230413E+01  0.31585891349E+02 -0.39936785979E+02  0.51169953693E+02  0.00000000000E+00 0. -1.
         21    1    1    2  506  504  0.92107029447E+02  0.99920395180E+02  0.13894384790E+03  0.19435324313E+03  0.00000000000E+00 0. -1.
<scales pt_clust_3="14000.00000" pt_clust_4="34.61119" pt_clust_5="31.99089" pt_clust_6="157.77537"></scales>
<clustering>
<clus scale="   31.991">  2  5  1 -1</clus>
<clus scale="   34.611">  1  4  2 -1</clus>
<clus scale="  157.775">  2  6  1 -1</clus>
<clus scale="   34.611">  1  3  2 -1</clus>
</clustering>
</event>
<event>
 6    0  0.1438923E+002  0.9097902E+02  0.7546771E-02  0.1300498E+00
         21   -1    0    0  505  501  0.00000000000E+00  0.00000000000E+00  0.10327171048E+04  0.10327171048E+04  0.00000000000E+00 0. -1.
         21   -1    0    0  506  502 -0.00000000000E+00 -0.00000000000E+00 -0.60012897867E+02  0.60012897867E+02  0.00000000000E+00 0. -1.
         21    1    1    2  503  501 -0.36481363938E+02  0.82982418499E+02  0.27075866650E+03  0.28552973082E+03  0.00000000000E+00 0. -1.
         21    1    1    2  504  502  0.18461119701E+01 -0.10574756256E+03  0.25069459514E+03  0.27209140955E+03  0.00000000000E+00 0. -1.
         21    1    1    2  505  504  0.55971269218E+02 -0.97671805154E+01  0.48211310863E+03  0.48544951366E+03  0.00000000000E+00 0. -1.
         21    1    1    2  506  503 -0.21336017250E+02  0.32532324581E+02 -0.30862163385E+02  0.49659348602E+02  0.00000000000E+00 0. -1.
<scales pt_clust_3="90.97902" pt_clust_4="14000.00000" pt_clust_5="54.62223" pt_clust_6="38.90473"></scales>
<clustering>
<clus scale="   38.905">  2  6  1 -1</clus>
<clus scale="   54.622">  1  5  2 -1</clus>
<clus scale="   90.979">  1  3  2 -1</clus>
<clus scale="   54.622">  1  3  2 -1</clus>
</clustering>
</event>
<event>
 6    0  0.1438923E+002  0.8168787E+02  0.7546771E-02  0.1324329E+00
         21   -1    0    0  504  501  0.00000000000E+00  0.00000000000E+00  0.20022297139E+04  0.20022297139E+04  0.00000000000E+00 0. -1.
         21   -1    0    0  506  502 -0.00000000000E+00 -0.00000000000E+00 -0.54477319374E+02  0.54477319374E+02  0.00000000000E+00 0. -1.
         21    1    1    2  503  501 -0.10498869722E+02 -0.35440579127E+02  0.32057803757E+03  0.32270193536E+03  0.00000000000E+00 0. -1.
         21    1    1    2  504  502  0.10017219592E+03 -0.59113067668E+02  0.11928788733E+04  0.11985361196E+04  0.00000000000E+00 0. -1.
         21    1    1    2  505  503 -0.59249825979E+02  0.19095128727E+02  0.44856708214E+03  0.45286597687E+03  0.00000000000E+00 0. -1.
         21    1    1    2  506  505 -0.30423500219E+02  0.75458518068E+02 -0.14271598545E+02  0.82603001396E+02  0.00000000000E+00 0. -1.
<scales pt_clust_3="36.96297" pt_clust_4="81.68787" pt_clust_5="62.80209" pt_clust_6="14000.00000"></scales>
<clustering>
<clus scale="   36.963">  1  3  2 -1</clus>
<clus scale="   62.802">  1  5  2 -1</clus>
<clus scale="   81.688">  1  4  2 -1</clus>
<clus scale="   36.963">  1  3  2 -1</clus>
</clustering>
</event>
<event>
 6    0  0.1438923E+002  0.1336346E+03  0.7546771E-02  0.1222160E+00
         21   -1    0    0  505  501  0.00000000000E+00  0.00000000000E+00  0.19708069389E+03  0.19708069389E+03  0.00000000000E+00 0. -1.
         21   -1    0    0  504  502 -0.00000000000E+00 -0.00000000000E+00 -0.97937610650E+03  0.97937610650E+03  0.00000000000E+00 0.  1.
         21    1    1    2  503  506  0.58368756889E+02  0.20339945269E+02  0.42105861227E+02  0.74789897072E+02  0.00000000000E+00 0. -1.
         21    1    1    2  504  501 -0.39794704230E+02 -0.65829400729E+02 -0.95098952645E+02  0.12231491847E+03  0.00000000000E+00 0.  1.
         21    1    1    2  505  503  0.65656049628E+02  0.54490330817E+01  0.11359150802E+03  0.13131427763E+03  0.00000000000E+00 0. -1.
         21    1    1    2  506  502 -0.84230102287E+02  0.40040422379E+02 -0.84289382921E+03  0.84803770723E+03  0.00000000000E+00 0.  1.
<scales pt_clust_3="45.32905" pt_clust_4="76.92287" pt_clust_5="45.32905" pt_clust_6="125.17251"></scales>
<clustering>
<clus scale="   45.329">  3  5 -1 -1</clus>
<clus scale="   76.923">  2  4  1 -1</clus>
<clus scale="  125.173">  2  6  1 -1</clus>
<clus scale="  133.635">  1  3  2 -1</clus>
</clustering>
</event>
<event>
 6    0  0.1438923E+002  0.1182887E+03  0.7546771E-02  0.1245947E+00
         21   -1    0    0  506  501  0.00000000000E+00  0.00000000000E+00  0.95547549898E+03  0.95547549898E+03  0.00000000000E+00 0.  1.
         21   -1    0    0  504  502 -0.00000000000E+00 -0.00000000000E+00 -0.77184047150E+03  0.77184047150E+03  0.00000000000E+00 0.  1.
         21    1    1    2  503  505 -0.13071700790E+03 -0.54420217239E+01  0.97118010882E+02  0.16293698105E+03  0.00000000000E+00 0.  1.
         21    1    1    2  504  503 -0.36138848758E+02 -0.58355528999E+01 -0.39306503626E+01  0.36817388276E+02  0.00000000000E+00 0.  1.
         21    1    1    2  505  501  0.96001607675E+02  0.28542310390E+02  0.80403929956E+03  0.81025315020E+03  0.00000000000E+00 0.  1.
         21    1    1    2  506  502  0.70854248984E+02 -0.17264735766E+02 -0.71359163261E+03  0.71730845096E+03  0.00000000000E+00 0.  1.
<scales pt_clust_3="30.15507" pt_clust_4="30.15507" pt_clust_5="103.64538" pt_clust_6="72.92733"></scales>
<clustering>
<clus scale="   30.155">  3  4 -1 -1</clus>
<clus scale="   72.927">  2  6  1 -1</clus>
<clus scale="  103.645">  1  5  2 -1</clus>
<clus scale="  103.645">  1  3  2 -1</clus>
</clustering>
</event>
<event>
 6    0  0.1438923E+002  0.1723061E+03  0.7546771E-02  0.1175464E+00
         21   -1    0    0  504  501  0.00000000000E+00  0.00000000000E+00  0.41488966794E+03  0.41488966794E+03  0.00000000000E+00 0. -1.
         21   -1    0    0  505  502 -0.00000000000E+00 -0.00000000000E+00 -0.51861675142E+03  0.51861675142E+03  0.00000000000E+00 0.  1.
         21    1    1    2  503  506 -0.71131743283E+02  0.27158575061E+02  0.66054117886E+02  0.10079910511E+03  0.00000000000E+00 0. -1.
         21    1    1    2  504  502 -0.72357969777E+01 -0.10003694966E+03  0.58881532048E+02  0.11630469841E+03  0.00000000000E+00 0. -1.
         21    1    1    2  505  503  0.14954762119E+03 -0.32926659689E+02 -0.44204686373E+03  0.46781843236E+03  0.00000000000E+00 0.  1.
         21    1    1    2  506  501 -0.71180080931E+02  0.10580503429E+03  0.21338413032E+03  0.24858418348E+03  0.00000000000E+00 0. -1.
<scales pt_clust_3="60.10773" pt_clust_4="100.29830" pt_clust_5="153.74787" pt_clust_6="60.10773"></scales>
<clustering>
<clus scale="   60.108">  3  6 -1 -1</clus>
<clus scale="  100.298">  1  4  2 -1</clus>
<clus scale="  153.748">  2  5  1 -1</clus>
<clus scale="  100.298">  1  3  2 -1</clus>
</clustering>
</event>
<event>
 6    0  0.1438923E+002  0.1672820E+03  0.7546771E-02  0.1180712E+00
         21   -1    0    0  506  501  0.00000000000E+00  0.00000000000E+00  0.15747886396E+03  0.15747886396E+03  0.00000000000E+00 0.  1.
         21   -1    0    0  504  502 -0.00000000000E+00 -0.00000000000E+00 -0.37055219907E+03  0.37055219907E+03  0.00000000000E+00 0. -1.
         21    1    1    2  503  505  0.55955981112E+02 -0.34425075145E+02  0.26353136407E+02  0.70785912578E+02  0.00000000000E+00 0.  1.
         21    1    1    2  504  503  0.20930814609E+01  0.37793828710E+02 -0.16916815208E+03  0.17335114121E+03  0.00000000000E+00 0. -1.
         21    1    1    2  505  501  0.59360639571E+02 -0.91640878301E+02  0.20685534369E+02  0.11112887761E+03  0.00000000000E+00 0.  1.
         21    1    1    2  506  502 -0.11740970214E+03  0.88272124737E+02 -0.90943853802E+02  0.17276513163E+03  0.00000000000E+00 0.  1.
<scales pt_clust_3="31.88658" pt_clust_4="37.85174" pt_clust_5="31.88658" pt_clust_6="162.15257"></scales>
<clustering>
<clus scale="   31.887">  3  5 -1 -1</clus>
<clus scale="   37.852">  2  4  1 -1</clus>
<clus scale="  162.153">  2  6  1 -1</clus>
<clus scale="  167.282">  1  3  2 -1</clus>
</clustering>
</event>
<event>
 6    0  0.1438923E+002  0.1137796E+03  0.7546771E-02  0.1253727E+00
         21   -1    0    0  504  501  0.00000000000E+00  0.00000000000E+00  0.48619162609E+03  0.48619162609E+03  0.00000000000E+00 0. -1.
         21   -1    0    0  505  502 -0.00000000000E+00 -0.00000000000E+00 -0.10906675878E+03  0.10906675878E+03  0.00000000000E+00 0. -1.
         21    1    1    2  503  506 -0.50879891636E+02  0.75084047182E+02  0.38629559191E+02  0.98583063238E+02  0.00000000000E+00 0. -1.
         21    1    1    2  504  503  0.34838266701E+02  0.25039318801E+01  0.10450576157E+03  0.11018815137E+03  0.00000000000E+00 0. -1.
         21    1    1    2  505  501  0.58627613188E+02 -0.97709353507E+02  0.29101321590E+03  0.31252680944E+03  0.00000000000E+00 0. -1.
         21    1    1    2  506  502 -0.42585988253E+02  0.20121374445E+02 -0.57023669355E+02  0.73960360814E+02  0.00000000000E+00 0. -1.
<scales pt_clust_3="113.77960" pt_clust_4="34.92813" pt_clust_5="14000.00000" pt_clust_6="46.42167"></scales>
<clustering>
<clus scale="   34.928">  1  4  2 -1</clus>
<clus scale="   46.422">  2  6  1 -1</clus>
<clus scale="  113.780">  2  3  1 -1</clus>
<clus scale="   34.928">  1  3  2 -1</clus>
</clustering>
</event>
<event>
 6    0  0.1438923E+002  0.2015369E+03  0.7546771E-02  0.1148449E+00
         21   -1    0    0  502  501  0.00000000000E+00  0.00000000000E+00  0.70728630647E+03  0.70728630647E+03  0.00000000000E+00 0. -1.
         21   -1    0    0  504  502 -0.00000000000E+00 -0.00000000000E+00 -0.90094979418E+02  0.90094979418E+02  0.00000000000E+00 0. -1.
         21    1    1    2  503  506 -0.43418511097E+02 -0.96224195021E+02  0.65379618150E+02  0.12417228871E+03  0.00000000000E+00 0. -1.
         21    1    1    2  504  503  0.20347976079E+02 -0.36948388368E+02 -0.17026228251E+02  0.45487536556E+02  0.00000000000E+00 0. -1.
         21    1    1    2  505  501  0.58933068557E+01  0.19685459036E+03  0.46108635353E+03  0.50138516753E+03  0.00000000000E+00 0. -1.
         21    1    1    2  506  505  0.17177228162E+02 -0.63682006969E+02  0.10775158363E+03  0.12633629310E+03  0.00000000000E+00 0.  1.
<scales pt_clust_3="62.90232" pt_clust_4="42.18084" pt_clust_5="184.64990" pt_clust_6="62.90232"></scales>
<clustering>
<clus scale="   42.181">  2  4  1 -1</clus>
<clus scale="   62.902">  3  6 -1 -1</clus>
<clus scale="  184.650">  1  5  2 -1</clus>
<clus scale="  184.650">  1  3  2 -1</clus>
</clustering>
</event>
<event>
 6    0  0.1438923E+002  0.7957054E+02  0.7546771E-02  0.1330275E+00
         21   -1    0    0  503  501  0.00000000000E+00  0.00000000000E+00  0.47771152741E+03  0.47771152741E+03  0.00000000000E+00 0. -1.
         21   -1    0    0  506  502 -0.00000000000E+00 -0.00000000000E+00 -0.72088886880E+02  0.72088886880E+02  0.00000000000E+00 0. -1.
         21    1    1    2  503  502 -0.39324193377E+02  0.86593218037E+01  0.83445159728E+02  0.92652418861E+02  0.00000000000E+00 0. -1.
         21    1    1    2  504  505 -0.11124517083E+02 -0.95459867608E+02  0.15646463890E+03  0.18362332213E+03  0.00000000000E+00 0. -1.
         21    1    1    2  505  501  0.60333856759E+02  0.54398807100E+02  0.20567441705E+03  0.22113654224E+03  0.00000000000E+00 0. -1.
         21    1    1    2  506  504 -0.98851462998E+01  0.32401738704E+02 -0.39961575142E+02  0.52388131063E+02  0.00000000000E+00 0. -1.
<scales pt_clust_3="43.53615" pt_clust_4="14000.00000" pt_clust_5="79.57054" pt_clust_6="33.87608"></scales>
<clustering>
<clus scale="   33.876">  2  6  1 -1</clus>
<clus scale="   43.536">  1  3  2 -1</clus>
<clus scale="   79.571">  1  5  2 -1</clus>
<clus scale="   43.536">  1  3  2 -1</clus>
</clustering>
</event>
<event>
 6    0  0.1438923E+002  0.1255475E+03  0.7546771E-02  0.1234216E+00
         21   -1    0    0  506  501  0.00000000000E+00  0.00000000000E+00  0.11826581236E+04  0.11826581236E+04  0.00000000000E+00 0. -1.
         21   -1    0    0  505  502 -0.00000000000E+00 -0.00000000000E+00 -0.42958456217E+03  0.42958456217E+03  0.00000000000E+00 0.  1.
         21    1    1    2  503  501  0.11240883681E+03  0.75597299614E+02  0.22664141288E+03  0.26403982339E+03  0.00000000000E+00 0.  1.
         21    1    1    2  504  502 -0.14468652532E+03 -0.80004044325E+02  0.43337105281E+02  0.17091794058E+03  0.00000000000E+00 0. -1.
         21    1    1    2  505  503  0.26903957802E+02  0.10321633961E+03 -0.33585081196E+03  0.35238218400E+03  0.00000000000E+00 0.  1.
         21    1    1    2  506  504  0.53737307122E+01 -0.98809594895E+02  0.81894585523E+03  0.82490273779E+03  0.00000000000E+00 0. -1.
<scales pt_clust_3="125.54750" pt_clust_4="14000.00000" pt_clust_5="104.50753" pt_clust_6="98.95561"></scales>
<clustering>
<clus scale="   98.956">  1  6  2 -1</clus>
<clus scale="  104.508">  2  5  1 -1</clus>
<clus scale="  125.548">  1  3  2 -1</clus>
<clus scale="   98.956">  1  3  2 -1</clus>
</clustering>
</event>
<event>
 6    0  0.1438923E+002  0.1269733E+03  0.7546771E-02  0.1232017E+00
         21   -1    0    0  503  501  0.00000000000E+00  0.00000000000E+00  0.10589859915E+03  0.10589859915E+03  0.00000000000E+00 0. -1.
         21   -1    0    0  505  502 -0.00000000000E+00 -0.00000000000E+00 -0.12566759837E+04  0.12566759837E+04  0.00000000000E+00 0.  1.
         21    1    1    2  503  502  0.61053439389E+02 -0.71454590391E+02 -0.61282854502E+02  0.11220013015E+03  0.00000000000E+00 0. -1.
         21    1    1    2  504  501  0.44148861648E+02  0.43181658083E+02  0.30836527597E+02  0.69026581936E+02  0.00000000000E+00 0. -1.
         21    1    1    2  505  506 -0.11664346556E+03 -0.27335795505E+02 -0.11181318324E+04  0.11245317863E+04  0.00000000000E+00 0.  1.
         21    1    1    2  506  504  0.11441164526E+02  0.55608727813E+02 -0.21992251773E+01  0.56816084395E+02  0.00000000000E+00 0.  1.
<scales pt_clust_3="93.98554" pt_clust_4="44.62851" pt_clust_5="118.13437" pt_clust_6="44.62851"></scales>
<clustering>
<clus scale="   44.629">  4  6 -1 -1</clus>
<clus scale="   93.986">  1  3  2 -1</clus>
<clus scale="  118.134">  2  5  1 -1</clus>
<clus scale="   93.986">  1  3  2 -1</clus>
</clustering>
</event>
<event>
 6    0  0.1438923E+002  0.2510340E+03  0.7546771E-02  0.1112653E+00
         21   -1    0    0  503  501  0.00000000000E+00  0.00000000000E+00  0.54634719747E+03  0.54634719747E+03  0.00000000000E+00 0.  1.
         21   -1    0    0  506  502 -0.00000000000E+00 -0.00000000000E+00 -0.44261210099E+03  0.44261210099E+03  0.00000000000E+00 0.  1.
         21    1    1    2  503  505  0.18851675967E+03 -0.14586644087E+03  0.21906277206E+03  0.32373459090E+03  0.00000000000E+00 0.  1.
         21    1    1    2  504  501 -0.17171240798E+03  0.23063581290E+03  0.47876240497E+02  0.29149642133E+03  0.00000000000E+00 0.  1.
         21    1    1    2  505  502  0.67382580522E+01 -0.16475093347E+03  0.26040138416E+02  0.16693221082E+03  0.00000000000E+00 0. -1.
         21    1    1    2  506  504 -0.23542609741E+02  0.79981561437E+02 -0.18924405449E+03  0.20679607541E+03  0.00000000000E+00 0.  1.
<scales pt_clust_3="14000.00000" pt_clust_4="251.03405" pt_clust_5="141.71510" pt_clust_6="83.37448"></scales>
<clustering>
<clus scale="   83.374">  2  6  1 -1</clus>
<clus scale="  141.715">  2  5  1 -1</clus>
<clus scale="  251.034">  2  4  1 -1</clus>
<clus scale="  251.034">  1  3  2 -1</clus>
</clustering>
</event>
<event>
 6    0  0.1438923E+002  0.1614330E+03  0.7546771E-02  0.1187088E+00
         21   -1    0    0  506  501  0.00000000000E+00  0.00000000000E+00  0.42723238759E+03  0.42723238759E+03  0.00000000000E+00 0. -1.
         21   -1    0    0  504  502 -0.00000000000E+00 -0.00000000000E+00 -0.92730360497E+02  0.92730360497E+02  0.00000000000E+00 0. -1.
         21    1    1    2  503  502 -0.19230116909E+02  0.24948096358E+02 -0.17765873647E+02  0.36163948549E+02  0.00000000000E+00 0. -1.
         21    1    1    2  504  505  0.31522208942E+02  0.16847745743E+02  0.39941243365E+01  0.35964555084E+02  0.00000000000E+00 0. -1.
         21    1    1    2  505  501  0.34238839106E+02  0.10675581779E+03  0.80215469321E+02  0.13785363344E+03  0.00000000000E+00 0. -1.
         21    1    1    2  506  503 -0.46530931139E+02 -0.14855165989E+03  0.26805830708E+03  0.30998061101E+03  0.00000000000E+00 0. -1.
<scales pt_clust_3="31.49928" pt_clust_4="32.10778" pt_clust_5="32.10778" pt_clust_6="150.13813"></scales>
<clustering>
<clus scale="   31.499">  2  3  1 -1</clus>
<clus scale="   32.108">  4  5 -1 -1</clus>
<clus scale="  150.138">  1  6  2 -1</clus>
<clus scale="  150.138">  1  3  2 -1</clus>
</clustering>
</event>
<event>
 6    0  0.1438923E+002  0.1201000E+03  0.7546771E-02  0.1242932E+00
         21   -1    0    0  506  501  0.00000000000E+00  0.00000000000E+00  0.49048717851E+03  0.49048717851E+03  0.00000000000E+00 0.  1.
         21   -1    0    0  505  502 -0.00000000000E+00 -0.00000000000E+00 -0.30722078864E+03  0.30722078864E+03  0.00000000000E+00 0. -1.
         21    1    1    2  503  502  0.57928617470E+02 -0.57090203264E+02 -0.23288094839E+03  0.24667499296E+03  0.00000000000E+00 0. -1.
         21    1    1    2  504  501  0.87451221974E+02  0.94835937853E+01  0.80563606054E+02  0.11928180664E+03  0.00000000000E+00 0. -1.
         21    1    1    2  505  504  0.32078499258E+01 -0.49096798735E+02 -0.32830711346E+01  0.49310896395E+02  0.00000000000E+00 0. -1.
         21    1    1    2  506  503 -0.14858768937E+03  0.96703408214E+02  0.33886680334E+03  0.38244027115E+03  0.00000000000E+00 0.  1.
<scales pt_clust_3="120.10000" pt_clust_4="87.88425" pt_clust_5="49.20148" pt_clust_6="14000.00000"></scales>
<clustering>
<clus scale="   49.201">  2  5  1 -1</clus>
<clus scale="   87.884">  1  4  2 -1</clus>
<clus scale="  120.100">  2  3  1 -1</clus>
<clus scale="   87.884">  1  3  2 -1</clus>
</clustering>
</event>
<event>
 6    0  0.1438923E+002  0.8934296E+02  0.7546771E-02  0.1304451E+00
         21   -1    0    0  504  501  0.00000000000E+00  0.00000000000E+00  0.11870182799E+03  0.11870182799E+03  0.00000000000E+00 0.  1.
         21   -1    0    0  506  502 -0.00000000000E+00 -0.00000000000E+00 -0.36127103262E+03  0.36127103262E+03  0.00000000000E+00 0.  1.
         21    1    1    2  503  501 -0.18202931823E+02  0.38703083856E+02  0.24923441812E+01  0.42842586365E+02  0.00000000000E+00 0.  1.
         21    1    1    2  504  505  0.23704244206E+02  0.55037206393E+02  0.58524251262E+02  0.83762003717E+02  0.00000000000E+00 0.  1.
         21    1    1    2  505  502 -0.48039561805E+02 -0.11722489799E+03 -0.25456362246E+03  0.28434506166E+03  0.00000000000E+00 0.  1.
         21    1    1    2  506  503  0.42538249422E+02  0.23484607740E+02 -0.49022177608E+02  0.69023208865E+02  0.00000000000E+00 0.  1.
<scales pt_clust_3="42.77003" pt_clust_4="89.34296" pt_clust_5="14000.00000" pt_clust_6="49.08055"></scales>
<clustering>
<clus scale="   42.770">  1  3  2 -1</clus>
<clus scale="   49.081">  2  6  1 -1</clus>
<clus scale="   89.343">  1  4  2 -1</clus>
<clus scale="   42.770">  1  3  2 -1</clus>
</clustering>
</event>
<event>
 6    0  0.1438923E+002  0.3105061E+03  0.7546771E-02  0.1080104E+00
         21   -1    0    0  505  501  0.00000000000E+00  0.00000000000E+00  0.25887721994E+03  0.25887721994E+03  0.00000000000E+00 0. -1.
         21   -1    0    0  501  502 -0.00000000000E+00 -0.00000000000E+00 -0.93090415642E+03  0.93090415642E+03  0.00000000000E+00 0.  1.
         21    1    1    2  503  502  0.29800400043E+03 -0.75368913407E+02 -0.76512521775E+03  0.82456258478E+03  0.00000000000E+00 0.  1.
         21    1    1    2  504  506 -0.10751608173E+03  0.22183144508E+02  0.23757526147E+02  0.11232194700E+03  0.00000000000E+00 0. -1.
         21    1    1    2  505  504 -0.10179253749E+02 -0.32449642642E+02 -0.13748833942E+02  0.36682788188E+02  0.00000000000E+00 0.  1.
         21    1    1    2  506  503 -0.18030866496E+03  0.85635411541E+02  0.83089589066E+02  0.21621405639E+03  0.00000000000E+00 0. -1.
<scales pt_clust_3="307.18454" pt_clust_4="33.59113" pt_clust_5="34.00877" pt_clust_6="33.59113"></scales>
<clustering>
<clus scale="   33.591">  4  6 -1 -1</clus>
<clus scale="   34.009">  1  5  2 -1</clus>
<clus scale="  307.185">  2  3  1 -1</clus>
<clus scale="   34.009">  1  3  2 -1</clus>
</clustering>
</event>
<event>
 6    0  0.1438923E+002  0.1250988E+03  0.7546771E-02  0.1234915E+00
         21   -1    0    0  504  501  0.00000000000E+00  0.00000000000E+00  0.96890874191E+03  0.96890874191E+03  0.00000000000E+00 0. -1.
         21   -1    0    0  505  502 -0.00000000000E+00 -0.00000000000E+00 -0.13854623648E+04  0.13854623648E+04  0.00000000000E+00 0. -1.
         21    1    1    2  503  502  0.88110084067E+02  0.89044950768E+02 -0.13563004223E+04  0.13620731352E+04  0.00000000000E+00 0. -1.
         21    1    1    2  504  506 -0.45254480720E+02 -0.26316300139E+01  0.51531708785E+02  0.68632430469E+02  0.00000000000E+00 0.  1.
         21    1    1    2  505  501  0.10015711895E+00 -0.10374732257E+03  0.86617846090E+03  0.87236955649E+03  0.00000000000E+00 0. -1.
         21    1    1    2  506  503 -0.42955760466E+02  0.17334001820E+02  0.22036629749E+02  0.51295984512E+02  0.00000000000E+00 0.  1.
<scales pt_clust_3="125.09876" pt_clust_4="30.86272" pt_clust_5="14000.00000" pt_clust_6="94.71285"></scales>
<clustering>
<clus scale="   30.863">  4  6 -1 -1</clus>
<clus scale="   94.713">  1  4  2 -1</clus>
<clus scale="  125.099">  2  3  1 -1</clus>
<clus scale="   94.713">  1  3  2 -1</clus>
</clustering>
</event>
<event>
 6    0  0.1438923E+002  0.1639756E+03  0.7546771E-02  0.1184280E+00
         21   -1    0    0  502  501  0.00000000000E+00  0.00000000000E+00  0.13113632780E+03  0.13113632780E+03  0.00000000000E+00 0.  1.
         21   -1    0    0  504  502 -0.00000000000E+00 -0.00000000000E+00 -0.56571662701E+03  0.56571662701E+03  0.00000000000E+00 0. -1.
         21    1    1    2  503  501 -0.43784742737E+01 -0.32908591023E+02  0.59488147463E+01  0.33727359769E+02  0.00000000000E+00 0. -1.
         21    1    1    2  504  506  0.12358502681E+03 -0.68727003156E+02 -0.46414747940E+03  0.48521082268E+03  0.00000000000E+00 0. -1.
         21    1    1    2  505  503 -0.71434131236E+02  0.89240461460E+01  0.74659039039E+01  0.72375502943E+02  0.00000000000E+00 0.  1.
         21    1    1    2  506  505 -0.47772421303E+02  0.92711548033E+02  0.16152461531E+02  0.10553926942E+03  0.00000000000E+00 0.  1.
<scales pt_clust_3="33.19859" pt_clust_4="142.59086" pt_clust_5="72.95237" pt_clust_6="72.95237"></scales>
<clustering>
<clus scale="   33.199">  1  3  2 -1</clus>
<clus scale="   72.952">  5  6 -1 -1</clus>
<clus scale="  142.591">  2  4  1 -1</clus>
<clus scale="   33.199">  1  3  2 -1</clus>
</clustering>
</event>
<event>
 6    0  0.1438923E+002  0.1128324E+03  0.7546771E-02  0.1255413E+00
         21   -1    0    0  506  501  0.00000000000E+00  0.00000000000E+00  0.47979081671E+03  0.47979081671E+03  0.00000000000E+00 0. -1.
         21   -1    0    0  503  502 -0.00000000000E+00 -0.00000000000E+00 -0.32991899412E+03  0.32991899412E+03  0.00000000000E+00 0. -1.
         21    1    1    2  503  505  0.70600176218E+02  0.93314625656E+02 -0.29545406315E+03  0.31778154080E+03  0.00000000000E+00 0. -1.
         21    1    1    2  504  501 -0.53546307316E+02 -0.52063843135E+02  0.23879945644E+03  0.25020597751E+03  0.00000000000E+00 0. -1.
         21    1    1    2  505  504 -0.61716781668E+02 -0.43884582893E+02  0.94549063024E+02  0.12113770294E+03  0.00000000000E+00 0. -1.
         21    1    1    2  506  502  0.44662912766E+02  0.26338003717E+01  0.11197736629E+03  0.12058458957E+03  0.00000000000E+00 0. -1.
<scales pt_clust_3="112.83241" pt_clust_4="55.51410" pt_clust_5="14000.00000" pt_clust_6="44.74050"></scales>
<clustering>
<clus scale="   44.741">  1  6  2 -1</clus>
<clus scale="   55.514">  1  4  2 -1</clus>
<clus scale="  112.832">  2  3  1 -1</clus>
<clus scale="   44.741">  1  3  2 -1</clus>
</clustering>
</event>
<event>
 6    0  0.1438923E+002  0.7508208E+02  0.7546771E-02  0.1343617E+00
         21   -1    0    0  505  501  0.00000000000E+00  0.00000000000E+00  0.48220370242E+02  0.48220370242E+02  0.00000000000E+00 0. -1.
         21   -1    0    0  504  502 -0.00000000000E+00 -0.00000000000E+00 -0.12781080748E+04  0.12781080748E+04  0.00000000000E+00 0.  1.
         21    1    1    2  503  506  0.13418635893E+02  0.58172356009E+02 -0.12522365936E+03  0.13872652110E+03  0.00000000000E+00 0. -1.
         21    1    1    2  504  503  0.44595710661E+02 -0.11750288889E+02 -0.98581575613E+03  0.98689389082E+03  0.00000000000E+00 0.  1.
         21    1    1    2  505  502  0.11521963872E+02  0.42302260560E+02 -0.12157386287E+02  0.45497680614E+02  0.00000000000E+00 0. -1.
         21    1    1    2  506  501 -0.69536310426E+02 -0.88724327680E+02 -0.10669090277E+03  0.15521035250E+03  0.00000000000E+00 0. -1.
<scales pt_clust_3="75.08208" pt_clust_4="46.13004" pt_clust_5="43.84332" pt_clust_6="14000.00000"></scales>
<clustering>
<clus scale="   43.843">  1  5  2 -1</clus>
<clus scale="   46.130">  2  4  1 -1</clus>
<clus scale="   75.082">  2  3  1 -1</clus>
<clus scale="   43.843">  1  3  2 -1</clus>
</clustering>
</event>
<event>
 6    0  0.1438923E+002  0.1595124E+03  0.7546771E-02  0.1189248E+00
         21   -1    0    0  506  501  0.00000000000E+00  0.00000000000E+00  0.10784121687E+04  0.10784121687E+04  0.00000000000E+00 0.  1.
         21   -1    0    0  505  502 -0.00000000000E+00 -0.00000000000E+00 -0.19041902121E+03  0.19041902121E+03  0.00000000000E+00 0.  1.
         21    1    1    2  503  504 -0.14035450093E+02 -0.66781024157E+02  0.34225407209E+03  0.34899075763E+03  0.00000000000E+00 0.  1.
         21    1    1    2  504  501 -0.45529754032E+02 -0.77434551581E+02  0.66651108375E+03  0.67253705700E+03  0.00000000000E+00 0.  1.
         21    1    1    2  505  503  0.68767799391E+02  0.95373014563E+02 -0.14926510982E+03  0.19001340781E+03  0.00000000000E+00 0.  1.
         21    1    1    2  506  502 -0.92025952651E+01  0.48842561175E+02  0.28493101484E+02  0.57289967480E+02  0.00000000000E+00 0.  1.
<scales pt_clust_3="34.48899" pt_clust_4="34.48899" pt_clust_5="154.52641" pt_clust_6="49.70195"></scales>
<clustering>
<clus scale="   34.489">  3  4 -1 -1</clus>
<clus scale="   49.702">  2  6  1 -1</clus>
<clus scale="  154.526">  2  5  1 -1</clus>
<clus scale="  159.512">  1  3  2 -1</clus>
</clustering>
</event>
<event>
 6    0  0.1438923E+002  0.1344423E+03  0.7546771E-02  0.1221009E+00
         21   -1    0    0  505  501  0.00000000000E+00  0.00000000000E+00  0.19108075605E+04  0.19108075605E+04  0.00000000000E+00 0.  1.
         21   -1    0    0  506  502 -0.00000000000E+00 -0.00000000000E+00 -0.27440228011E+03  0.27440228011E+03  0.00000000000E+00 0. -1.
         21    1    1    2  503  504  0.12842859819E+03 -0.68125819248E+02  0.94882675412E+03  0.95989959965E+03  0.00000000000E+00 0.  1.
         21    1    1    2  504  502 -0.19540231637E+02  0.25930681155E+02 -0.26037083341E+03  0.26238748402E+03  0.00000000000E+00 0. -1.
         21    1    1    2  505  503 -0.58347129596E+01 -0.31588473896E+02  0.87923911295E+02  0.93608171309E+02  0.00000000000E+00 0. -1.
         21    1    1    2  506  501 -0.10305365360E+03  0.73783611989E+02  0.86002544835E+03  0.86931458560E+03  0.00000000000E+00 0.  1.
<scales pt_clust_3="14000.00000" pt_clust_4="32.45674" pt_clust_5="32.12282" pt_clust_6="134.44230"></scales>
<clustering>
<clus scale="   32.123">  1  5  2 -1</clus>
<clus scale="   32.457">  2  4  1 -1</clus>
<clus scale="  134.442">  1  6  2 -1</clus>
<clus scale="   32.123">  1  3  2 -1</clus>
</clustering>
</event>
<event>
 6    0  0.1438923E+002  0.1515950E+03  0.7546771E-02  0.1198527E+00
         21   -1    0    0  506  501  0.00000000000E+00  0.00000000000E+00  0.33327213938E+04  0.33327213938E+04  0.00000000000E+00 0.  1.
         21   -1    0    0  503  502 -0.00000000000E+00 -0.00000000000E+00 -0.34794506474E+03  0.34794506474E+03  0.00000000000E+00 0.  1.
         21    1    1    2  503  505  0.82227394095E+02  0.54974731472E+02  0.74490590971E+03  0.75144419604E+03  0.00000000000E+00 0.  1.
         21    1    1    2  504  501 -0.52604367686E+02 -0.23200925862E+02  0.14752980430E+04  0.14764179009E+04  0.00000000000E+00 0.  1.
         21    1    1    2  505  504  0.88121894953E+02  0.57156687249E+02  0.10902298104E+04  0.10952777706E+04  0.00000000000E+00 0.  1.
         21    1    1    2  506  502 -0.11774492136E+03 -0.88930492858E+02 -0.32565743394E+03  0.35752659110E+03  0.00000000000E+00 0.  1.
<scales pt_clust_3="31.69225" pt_clust_4="57.49350" pt_clust_5="31.69225" pt_clust_6="148.03533"></scales>
<clustering>
<clus scale="   31.692">  3  5 -1 -1</clus>
<clus scale="   57.493">  1  4  2 -1</clus>
<clus scale="  148.035">  2  6  1 -1</clus>
<clus scale="   57.493">  1  3  2 -1</clus>
</clustering>
</event>
<event>
 6    0  0.1438923E+002  0.8954629E+02  0.7546771E-02  0.1303954E+00
         21   -1    0    0  506  501  0.00000000000E+00  0.00000000000E+00  0.63922708008E+03  0.63922708008E+03  0.00000000000E+00 0.  1.
         21   -1    0    0  504  502 -0.00000000000E+00 -0.00000000000E+00 -0.23319839668E+03  0.23319839668E+03  0.00000000000E+00 0. -1.
         21    1    1    2  503  505  0.25147786658E+02  0.68873614517E+02  0.96665326693E+02  0.12132671320E+03  0.00000000000E+00 0.  1.
         21    1    1    2  504  501 -0.34263382265E+02  0.32364338820E+02  0.10490704101E+03  0.11500833468E+03  0.00000000000E+00 0.  1.
         21    1    1    2  505  502  0.53132223755E+02 -0.19851000121E+01 -0.20536201646E+03  0.21213328741E+03  0.00000000000E+00 0. -1.
         21    1    1    2  506  503 -0.44016628148E+02 -0.99252853325E+02  0.40981833214E+03  0.42395714147E+03  0.00000000000E+00 0.  1.
<scales pt_clust_3="89.54629" pt_clust_4="47.13205" pt_clust_5="52.94291" pt_clust_6="14000.00000"></scales>
<clustering>
<clus scale="   47.132">  1  4  2 -1</clus>
<clus scale="   52.943">  2  5  1 -1</clus>
<clus scale="   89.546">  2  3  1 -1</clus>
<clus scale="   47.132">  1  3  2 -1</clus>
</clustering>
</event>
<event>
 6    0  0.1479719E+002  0.1410328E+03  0.7546771E-02  0.1211946E+00
         21   -1    0    0  506  501  0.00000000000E+00  0.00000000000E+00  0.26624512188E+04  0.26624512188E+04  0.00000000000E+00 0. -1.
         21   -1    0    0  503  502 -0.00000000000E+00 -0.00000000000E+00 -0.50063914963E+03  0.50063914963E+03  0.00000000000E+00 0. -1.
         21    1    1    2  503  504  0.16953296752E+02  0.72642118062E+02 -0.47405048377E+03  0.47988347831E+03  0.00000000000E+00 0. -1.
         21    1    1    2  504  501 -0.29923967238E+02 -0.11480766940E+03  0.21652681810E+04  0.21685162070E+04  0.00000000000E+00 0. -1.
         21    1    1    2  505  502 -0.14473773912E+02  0.82659991258E+02  0.64973525919E+02  0.10613068998E+03  0.00000000000E+00 0. -1.
         21    1    1    2  506  505  0.27444444398E+02 -0.40494439922E+02  0.40562084612E+03  0.40855999314E+03  0.00000000000E+00 0. -1.
<scales pt_clust_3="74.55126" pt_clust_4="141.03277" pt_clust_5="14000.00000" pt_clust_6="48.91827"></scales>
<clustering>
<clus scale="   48.918">  1  6  2 -1</clus>
<clus scale="   74.551">  2  3  1 -1</clus>
<clus scale="  141.033">  1  4  2 -1</clus>
<clus scale="   48.918">  1  3  2 -1</clus>
</clustering>
</event>
<event>
 6    0  0.1438923E+002  0.1358395E+03  0.7546771E-02  0.1219040E+00
         21   -1    0    0  503  501  0.00000000000E+00  0.00000000000E+00  0.32352840158E+03  0.32352840158E+03  0.00000000000E+00 0.  1.
         21   -1    0    0  505  502 -0.00000000000E+00 -0.00000000000E+00 -0.23276391286E+03  0.23276391286E+03  0.00000000000E+00 0.  1.
         21    1    1    2  503  502  0.37740700293E+02 -0.52246198712E+01 -0.16821764572E+01  0.38137734975E+02  0.00000000000E+00 0.  1.
         21    1    1    2  504  506 -0.19219628786E+03  0.84333251781E+02  0.11718387730E+03  0.24038213645E+03  0.00000000000E+00 0.  1.
         21    1    1    2  505  504  0.78033236232E+02 -0.22718788182E+01 -0.11345499878E+03  0.13771849599E+03  0.00000000000E+00 0.  1.
         21    1    1    2  506  501  0.76422351337E+02 -0.76836753091E+02  0.88717786659E+02  0.14005394703E+03  0.00000000000E+00 0.  1.
<scales pt_clust_3="38.10062" pt_clust_4="135.83945" pt_clust_5="100.44359" pt_clust_6="14000.00000"></scales>
<clustering>
<clus scale="   38.101">  2  3  1 -1</clus>
<clus scale="  100.444">  2  5  1 -1</clus>
<clus scale="  135.839">  2  4  1 -1</clus>
<clus scale="  135.839">  1  3  2 -1</clus>
</clustering>
</event>
<event>
 6    0  0.1438923E+002  0.1591290E+03  0.7546771E-02  0.1189684E+00
         21   -1    0    0  504  501  0.00000000000E+00  0.00000000000E+00  0.62251553953E+03  0.62251553953E+03  0.00000000000E+00 0. -1.
         21   -1    0    0  501  502 -0.00000000000E+00 -0.00000000000E+00 -0.13698442335E+03  0.13698442335E+03  0.00000000000E+00 0. -1.
         21    1    1    2  503  505 -0.49100476508E+02  0.77429252984E+02  0.24817072596E+03  0.26456540824E+03  0.00000000000E+00 0. -1.
         21    1    1    2  504  506  0.69358619791E+02  0.38109465992E+02  0.21385887927E+03  0.22803194903E+03  0.00000000000E+00 0. -1.
         21    1    1    2  505  502  0.27357373467E+02 -0.15114647093E+03 -0.59567137756E+02  0.16474806663E+03  0.00000000000E+00 0. -1.
         21    1    1    2  506  503 -0.47615516750E+02  0.35607751958E+02  0.83068648703E+02  0.10215453897E+03  0.00000000000E+00 0. -1.
<scales pt_clust_3="41.31894" pt_clust_4="79.13880" pt_clust_5="150.62994" pt_clust_6="41.31894"></scales>
<clustering>
<clus scale="   41.319">  3  6 -1 -1</clus>
<clus scale="   79.139">  1  4  2 -1</clus>
<clus scale="  150.630">  2  5  1 -1</clus>
<clus scale="   79.139">  1  3  2 -1</clus>
</clustering>
</event>
<event>
 6    0  0.1438923E+002  0.6902202E+02  0.7546771E-02  0.1363451E+00
         21   -1    0    0  506  501  0.00000000000E+00  0.00000000000E+00  0.42747347554E+02  0.42747347554E+02  0.00000000000E+00 0. -1.
         21   -1    0    0  501  502 -0.00000000000E+00 -0.00000000000E+00 -0.14262703625E+04  0.14262703625E+04  0.00000000000E+00 0. -1.
         21    1    1    2  503  502 -0.16725179013E+02  0.46502530152E+02 -0.11047956235E+04  0.11059003511E+04  0.00000000000E+00 0. -1.
         21    1    1    2  504  503 -0.60053509540E+02 -0.60916952070E+02 -0.18218303777E+03  0.20126588958E+03  0.00000000000E+00 0. -1.
         21    1    1    2  505  504  0.21141895985E+02  0.55140327635E+02 -0.30898752562E+02  0.66649594203E+02  0.00000000000E+00 0. -1.
         21    1    1    2  506  505  0.55636792569E+02 -0.40725905718E+02 -0.65645601096E+02  0.95201875124E+02  0.00000000000E+00 0. -1.
<scales pt_clust_3="49.41879" pt_clust_4="69.02202" pt_clust_5="14000.00000" pt_clust_6="59.09171"></scales>
<clustering>
<clus scale="   49.419">  2  3  1 -1</clus>
<clus scale="   59.092">  1  6  2 -1</clus>
<clus scale="   69.022">  2  4  1 -1</clus>
<clus scale="   59.092">  1  3  2 -1</clus>
</clustering>
</event>
<event>
 6    0  0.1438923E+002  0.1315330E+03  0.7546771E-02  0.1225199E+00
         21   -1    0    0  505  501  0.00000000000E+00  0.00000000000E+00  0.42180690416E+03  0.42180690416E+03  0.00000000000E+00 0.  1.
         21   -1    0    0  503  502 -0.00000000000E+00 -0.00000000000E+00 -0.59557001839E+03  0.59557001839E+03  0.00000000000E+00 0. -1.
         21    1    1    2  503  504 -0.82406257986E+02  0.83079104211E+02  0.10361298366E+02  0.11747461605E+03  0.00000000000E+00 0. -1.
         21    1    1    2  504  501  0.92941893932E+02 -0.68206091759E+02  0.27168617236E+03  0.29513326287E+03  0.00000000000E+00 0.  1.
         21    1    1    2  505  506 -0.25206248589E+01 -0.50846209281E+02  0.65051991453E+02  0.82604189603E+02  0.00000000000E+00 0. -1.
         21    1    1    2  506  502 -0.80150110863E+01  0.35973196830E+02 -0.52086257641E+03  0.52216485404E+03  0.00000000000E+00 0. -1.
<scales pt_clust_3="14000.00000" pt_clust_4="131.53303" pt_clust_5="46.71227" pt_clust_6="36.85527"></scales>
<clustering>
<clus scale="   36.855">  2  6  1 -1</clus>
<clus scale="   46.712">  1  5  2 -1</clus>
<clus scale="  131.533">  1  4  2 -1</clus>
<clus scale="   46.712">  1  3  2 -1</clus>
</clustering>
</event>
<event>
 6    0  0.1438923E+002  0.9573928E+02  0.7546771E-02  0.1289520E+00
         21   -1    0    0  505  501  0.00000000000E+00  0.00000000000E+00  0.48975492049E+03  0.48975492049E+03  0.00000000000E+00 0. -1.
         21   -1    0    0  506  502 -0.00000000000E+00 -0.00000000000E+00 -0.56260033136E+02  0.56260033136E+02  0.00000000000E+00 0. -1.
         21    1    1    2  503  501 -0.19928908578E+02 -0.10168174204E+03  0.12974803554E+03  0.16604484572E+03  0.00000000000E+00 0. -1.
         21    1    1    2  504  503  0.53764105164E+02 -0.20449049696E+02  0.72945486076E+02  0.92896644592E+02  0.00000000000E+00 0. -1.
         21    1    1    2  505  502 -0.68281103900E+02  0.82546182987E+02  0.19819616524E+03  0.22529514285E+03  0.00000000000E+00 0. -1.
         21    1    1    2  506  504  0.34445907314E+02  0.39584608749E+02  0.32605200491E+02  0.61778320466E+02  0.00000000000E+00 0.  1.
<scales pt_clust_3="14000.00000" pt_clust_4="62.97306" pt_clust_5="95.73928" pt_clust_6="52.47344"></scales>
<clustering>
<clus scale="   52.473">  2  6  1 -1</clus>
<clus scale="   62.973">  2  4  1 -1</clus>
<clus scale="   95.739">  1  5  2 -1</clus>
<clus scale="   95.739">  1  3  2 -1</clus>
</clustering>
</event>
<event>
 6    0  0.1438923E+002  0.1773708E+03  0.7546771E-02  0.1170372E+00
         21   -1    0    0  504  501  0.00000000000E+00  0.00000000000E+00  0.11046914156E+04  0.11046914156E+04  0.00000000000E+00 0.  1.
         21   -1    0    0  505  502 -0.00000000000E+00 -0.00000000000E+00 -0.99308189070E+02  0.99308189070E+02  0.00000000000E+00 0.  1.
         21    1    1    2  503  506  0.74142674726E+02 -0.31581694808E+02  0.39541305046E+03  0.40354184434E+03  0.00000000000E+00 0.  1.
         21    1    1    2  504  503  0.63002975743E+02  0.17951137008E+02  0.25428850578E+03  0.26259143635E+03  0.00000000000E+00 0.  1.
         21    1    1    2  505  501  0.21613812338E+02 -0.59826289634E+02  0.35731077281E+03  0.36292882247E+03  0.00000000000E+00 0.  1.
         21    1    1    2  506  502 -0.15875946281E+03  0.73456847434E+02 -0.16291024981E+01  0.17493750153E+03  0.00000000000E+00 0.  1.
<scales pt_clust_3="46.20879" pt_clust_4="46.20879" pt_clust_5="63.61086" pt_clust_6="169.80480"></scales>
<clustering>
<clus scale="   46.209">  3  4 -1 -1</clus>
<clus scale="   63.611">  1  5  2 -1</clus>
<clus scale="  169.805">  2  6  1 -1</clus>
<clus scale="   63.611">  1  3  2 -1</clus>
</clustering>
</event>
<event>
 6    0  0.1624812E+002  0.1664969E+03  0.7546771E-02  0.1181551E+00
         21   -1    0    0  504  501  0.00000000000E+00  0.00000000000E+00  0.10682219497E+04  0.10682219497E+04  0.00000000000E+00 0. -1.
         21   -1    0    0  506  502 -0.00000000000E+00 -0.00000000000E+00 -0.68055959624E+03  0.68055959624E+03  0.00000000000E+00 0.  1.
         21    1    1    2  503  505 -0.13522662373E+03  0.65063272835E+02 -0.48764416684E+02  0.15778921881E+03  0.00000000000E+00 0. -1.
         21    1    1    2  504  503  0.14928608354E+03 -0.12804357384E+03  0.89655757688E+03  0.91787634255E+03  0.00000000000E+00 0. -1.
         21    1    1    2  505  502  0.98852376600E+01  0.44746393424E+02 -0.56354812147E+03  0.56540820905E+03  0.00000000000E+00 0.  1.
         21    1    1    2  506  501 -0.23944697472E+02  0.18233907586E+02  0.10341731474E+03  0.10770777554E+03  0.00000000000E+00 0. -1.
<scales pt_clust_3="14000.00000" pt_clust_4="166.49688" pt_clust_5="45.83751" pt_clust_6="30.09691"></scales>
<clustering>
<clus scale="   30.097">  1  6  2 -1</clus>
<clus scale="   45.838">  2  5  1 -1</clus>
<clus scale="  166.497">  1  4  2 -1</clus>
<clus scale="   30.097">  1  3  2 -1</clus>
</clustering>
</event>
<event>
 6    0  0.1438923E+002  0.1625306E+03  0.7546771E-02  0.1185869E+00
         21   -1    0    0  504  501  0.00000000000E+00  0.00000000000E+00  0.49884155144E+03  0.49884155144E+03  0.00000000000E+00 0.  1.
         21   -1    0    0  505  502 -0.00000000000E+00 -0.00000000000E+00 -0.14497698009E+04  0.14497698009E+04  0.00000000000E+00 0.  1.
         21    1    1    2  503  501 -0.54660841214E+02 -0.65112908749E+01  0.47395904761E+02  0.72640045837E+02  0.00000000000E+00 0.  1.
         21    1    1    2  504  506  0.57782153180E+02 -0.16781431402E+02  0.29664520445E+03  0.30268592797E+03  0.00000000000E+00 0.  1.
         21    1    1    2  505  503 -0.10787731809E+03 -0.89323908449E+02  0.98580858357E+02  0.17127306272E+03  0.00000000000E+00 0.  1.
         21    1    1    2  506  502  0.10475600612E+03  0.11261663073E+03 -0.13935502170E+04  0.14020123158E+04  0.00000000000E+00 0.  1.
<scales pt_clust_3="31.85205" pt_clust_4="60.16971" pt_clust_5="31.85205" pt_clust_6="154.38534"></scales>
<clustering>
<clus scale="   31.852">  3  5 -1 -1</clus>
<clus scale="   60.170">  1  4  2 -1</clus>
<clus scale="  154.385">  2  6  1 -1</clus>
<clus scale="   60.170">  1  3  2 -1</clus>
</clustering>
</event>
<event>
 6    0  0.1438923E+002  0.2017282E+03  0.7546771E-02  0.1148289E+00
         21   -1    0    0  503  501  0.00000000000E+00  0.00000000000E+00  0.23462669702E+03  0.23462669702E+03  0.00000000000E+00 0. -1.
         21   -1    0    0  505  502 -0.00000000000E+00 -0.00000000000E+00 -0.73098897587E+03  0.73098897587E+03  0.00000000000E+00 0.  1.
         21    1    1    2  503  502  0.22605879832E+02  0.21195629523E+03 -0.63561100264E+03  0.67040125564E+03  0.00000000000E+00 0.  1.
         21    1    1    2  504  501 -0.74781164513E+01 -0.77490119720E+02  0.13363715915E+03  0.15465940380E+03  0.00000000000E+00 0. -1.
         21    1    1    2  505  506 -0.81147462000E+01 -0.81154342908E+02 -0.15077574277E+02  0.82941001470E+02  0.00000000000E+00 0. -1.
         21    1    1    2  506  504 -0.70130171810E+01 -0.53311832606E+02  0.20689138915E+02  0.57614011966E+02  0.00000000000E+00 0. -1.
<scales pt_clust_3="198.19195" pt_clust_4="77.85012" pt_clust_5="30.53494" pt_clust_6="30.53494"></scales>
<clustering>
<clus scale="   30.535">  5  6 -1 -1</clus>
<clus scale="   77.850">  1  4  2 -1</clus>
<clus scale="  198.192">  2  3  1 -1</clus>
<clus scale="   77.850">  1  3  2 -1</clus>
</clustering>
</event>
<event>
 6    0  0.1438923E+002  0.1388522E+03  0.7546771E-02  0.1214882E+00
         21   -1    0    0  503  501  0.00000000000E+00  0.00000000000E+00  0.22835052802E+03  0.22835052802E+03  0.00000000000E+00 0.  1.
         21   -1    0    0  504  502 -0.00000000000E+00 -0.00000000000E+00 -0.53297091351E+03  0.53297091351E+03  0.00000000000E+00 0.  1.
         21    1    1    2  503  505  0.29341242875E+00 -0.76854271954E+02  0.11571660021E+03  0.13891363062E+03  0.00000000000E+00 0.  1.
         21    1    1    2  504  501  0.84163253730E+02  0.15765178465E+03 -0.34426897147E+03  0.38789001431E+03  0.00000000000E+00 0.  1.
         21    1    1    2  505  506 -0.71567487561E+02 -0.52802114012E+02  0.51843798298E+02  0.10294536387E+03  0.00000000000E+00 0.  1.
         21    1    1    2  506  502 -0.12889178597E+02 -0.27995398679E+02 -0.12791181252E+03  0.13157243273E+03  0.00000000000E+00 0.  1.
<scales pt_clust_3="77.65957" pt_clust_4="14000.00000" pt_clust_5="138.85222" pt_clust_6="30.82001"></scales>
<clustering>
<clus scale="   30.820">  2  6  1 -1</clus>
<clus scale="   77.660">  1  3  2 -1</clus>
<clus scale="  138.852">  1  5  2 -1</clus>
<clus scale="   77.660">  1  3  2 -1</clus>
</clustering>
</event>
<event>
 6    0  0.1438923E+002  0.1414592E+03  0.7546771E-02  0.1211379E+00
         21   -1    0    0  506  501  0.00000000000E+00  0.00000000000E+00  0.27218635982E+03  0.27218635982E+03  0.00000000000E+00 0. -1.
         21   -1    0    0  505  502 -0.00000000000E+00 -0.00000000000E+00 -0.14308815135E+03  0.14308815135E+03  0.00000000000E+00 0. -1.
         21    1    1    2  503  502  0.87331238343E+01  0.47370974629E+02  0.54444815204E+01  0.48475963820E+02  0.00000000000E+00 0. -1.
         21    1    1    2  504  503 -0.62266661288E+02  0.49948009276E+02  0.13693718528E+03  0.15850467958E+03  0.00000000000E+00 0. -1.
         21    1    1    2  505  501  0.95891763001E+02 -0.11769039183E+03 -0.36104699594E+02  0.15604424973E+03  0.00000000000E+00 0. -1.
         21    1    1    2  506  504 -0.42358225547E+02  0.20371407925E+02  0.22821241260E+02  0.52249618037E+02  0.00000000000E+00 0.  1.
<scales pt_clust_3="48.16925" pt_clust_4="42.05333" pt_clust_5="130.41195" pt_clust_6="42.05333"></scales>
<clustering>
<clus scale="   42.053">  4  6 -1 -1</clus>
<clus scale="   48.169">  2  3  1 -1</clus>
<clus scale="  130.412">  2  5  1 -1</clus>
<clus scale="  141.459">  1  3  2 -1</clus>
</clustering>
</event>
<event>
 6    0  0.1438923E+002  0.1995534E+03  0.7546771E-02  0.1150116E+00
         21   -1    0    0  503  501  0.00000000000E+00  0.00000000000E+00  0.54496382700E+03  0.54496382700E+03  0.00000000000E+00 0.  1.
         21   -1    0    0  501  502 -0.00000000000E+00 -0.00000000000E+00 -0.55802929371E+03  0.55802929371E+03  0.00000000000E+00 0. -1.
         21    1    1    2  503  505  0.10033744908E+03 -0.12169695760E+02  0.22859575068E+03  0.24994343842E+03  0.00000000000E+00 0.  1.
         21    1    1    2  504  506 -0.14841723810E+03  0.34326113266E+02  0.42120103311E+02  0.15805082006E+03  0.00000000000E+00 0.  1.
         21    1    1    2  505  504  0.10841948821E+03 -0.40642670449E+02  0.18703367558E+03  0.21997319811E+03  0.00000000000E+00 0.  1.
         21    1    1    2  506  502 -0.60339699190E+02  0.18486252942E+02 -0.47081499628E+03  0.47502566412E+03  0.00000000000E+00 0. -1.
<scales pt_clust_3="38.58137" pt_clust_4="195.23401" pt_clust_5="38.58137" pt_clust_6="63.10801"></scales>
<clustering>
<clus scale="   38.581">  3  5 -1 -1</clus>
<clus scale="   63.108">  2  6  1 -1</clus>
<clus scale="  195.234">  2  4  1 -1</clus>
<clus scale="  199.553">  1  3  2 -1</clus>
</clustering>
</event>
<event>
 6    0  0.1438923E+002  0.2304698E+03  0.7546771E-02  0.1126310E+00
         21   -1    0    0  503  501  0.00000000000E+00  0.00000000000E+00  0.16681605463E+03  0.16681605463E+03  0.00000000000E+00 0.  1.
         21   -1    0    0  505  502 -0.00000000000E+00 -0.00000000000E+00 -0.11629713636E+04  0.11629713636E+04  0.00000000000E+00 0.  1.
         21    1    1    2  503  504  0.26496783242E+02  0.69558674881E+02  0.55165650518E+02  0.92648463400E+02  0.00000000000E+00 0.  1.
         21    1    1    2  504  502  0.43097441235E+02  0.10449122950E+03 -0.12268297398E+02  0.11369396468E+03  0.00000000000E+00 0.  1.
         21    1    1    2  505  506  0.10568313087E+02 -0.22228227495E+03 -0.99582531104E+03  0.10203867645E+04  0.00000000000E+00 0.  1.
         21    1    1    2  506  501 -0.80162537564E+02  0.48232370563E+02 -0.43227351017E+02  0.10305822565E+03  0.00000000000E+00 0.  1.
<scales pt_clust_3="60.72887" pt_clust_4="60.72887" pt_clust_5="217.98173" pt_clust_6="93.55423"></scales>
<clustering>
<clus scale="   60.729">  3  4 -1 -1</clus>
<clus scale="   93.554">  1  6  2 -1</clus>
<clus scale="  217.982">  2  5  1 -1</clus>
<clus scale="   93.554">  1  3  2 -1</clus>
</clustering>
</event>
<event>
 6    0  0.1438923E+002  0.1259410E+03  0.7546771E-02  0.1233606E+00
         21   -1    0    0  503  501  0.00000000000E+00  0.00000000000E+00  0.56936484217E+03  0.56936484217E+03  0.00000000000E+00 0.  1.
         21   -1    0    0  506  502 -0.00000000000E+00 -0.00000000000E+00 -0.97025856556E+03  0.97025856556E+03  0.00000000000E+00 0.  1.
         21    1    1    2  503  504  0.59720912822E+02  0.11449203871E+02  0.98215713533E+01  0.61596549914E+02  0.00000000000E+00 0. -1.
         21    1    1    2  504  502 -0.82725389985E+02  0.86433163301E+02 -0.93503262475E+03  0.94265592408E+03  0.00000000000E+00 0.  1.
         21    1    1    2  505  501  0.21423563542E+02 -0.36594055845E+02  0.29361678463E+03  0.29666295726E+03  0.00000000000E+00 0.  1.
         21    1    1    2  506  505  0.15809136205E+01 -0.61288311326E+02  0.23070054537E+03  0.23870797647E+03  0.00000000000E+00 0.  1.
<scales pt_clust_3="60.80848" pt_clust_4="119.40658" pt_clust_5="33.29947" pt_clust_6="33.29947"></scales>
<clustering>
<clus scale="   33.299">  5  6 -1 -1</clus>
<clus scale="   60.808">  1  3  2 -1</clus>
<clus scale="  119.407">  2  4  1 -1</clus>
<clus scale="   60.808">  1  3  2 -1</clus>
</clustering>
</event>
<event>
 6    0  0.1438923E+002  0.1921690E+03  0.7546771E-02  0.1156519E+00
         21   -1    0    0  505  501  0.00000000000E+00  0.00000000000E+00  0.64325306831E+03  0.64325306831E+03  0.00000000000E+00 0. -1.
         21   -1    0    0  506  502 -0.00000000000E+00 -0.00000000000E+00 -0.10661066578E+03  0.10661066578E+03  0.00000000000E+00 0. -1.
         21    1    1    2  503  502 -0.10692333044E+03  0.75497460660E+02  0.13065312665E+03  0.18493973251E+03  0.00000000000E+00 0. -1.
         21    1    1    2  504  501  0.64896639059E+01 -0.17973062468E+03  0.22624249509E+03  0.28901709252E+03  0.00000000000E+00 0. -1.
         21    1    1    2  505  503  0.68845947909E+02  0.13273938704E+03  0.84896496360E+02  0.17195035478E+03  0.00000000000E+00 0. -1.
         21    1    1    2  506  504  0.31587718625E+02 -0.28506223018E+02  0.94850284430E+02  0.10395655427E+03  0.00000000000E+00 0. -1.
<scales pt_clust_3="130.89104" pt_clust_4="39.26049" pt_clust_5="174.39515" pt_clust_6="39.26049"></scales>
<clustering>
<clus scale="   39.260">  4  6 -1 -1</clus>
<clus scale="  130.891">  2  3  1 -1</clus>
<clus scale="  174.395">  2  5  1 -1</clus>
<clus scale="  192.169">  1  3  2 -1</clus>
</clustering>
</event>
<event>
 6    0  0.1438923E+002  0.1105199E+03  0.7546771E-02  0.1259610E+00
         21   -1    0    0  506  501  0.00000000000E+00  0.00000000000E+00  0.39701494202E+03  0.39701494202E+03  0.00000000000E+00 0.  1.
         21   -1    0    0  505  502 -0.00000000000E+00 -0.00000000000E+00 -0.18704215206E+03  0.18704215206E+03  0.00000000000E+00 0. -1.
         21    1    1    2  503  501 -0.77743297968E+02  0.26745635255E+02  0.19154373333E+03  0.20844268076E+03  0.00000000000E+00 0.  1.
         21    1    1    2  504  502  0.85481516729E+02 -0.54697047695E+02 -0.14648134658E+03  0.17820112689E+03  0.00000000000E+00 0. -1.
         21    1    1    2  505  503 -0.45558004262E+02  0.46671962735E+02  0.11346483593E+03  0.13087426351E+03  0.00000000000E+00 0.  1.
         21    1    1    2  506  504  0.37819785501E+02 -0.18720550296E+02  0.51445567278E+02  0.66539022921E+02  0.00000000000E+00 0.  1.
<scales pt_clust_3="34.63797" pt_clust_4="103.45162" pt_clust_5="34.63797" pt_clust_6="42.19947"></scales>
<clustering>
<clus scale="   34.638">  3  5 -1 -1</clus>
<clus scale="   42.199">  1  6  2 -1</clus>
<clus scale="  103.452">  2  4  1 -1</clus>
<clus scale="   42.199">  1  3  2 -1</clus>
</clustering>
</event>
<event>
 6    0  0.1438923E+002  0.2133594E+03  0.7546771E-02  0.1138933E+00
         21   -1    0    0  505  501  0.00000000000E+00  0.00000000000E+00  0.14314015206E+03  0.14314015206E+03  0.00000000000E+00 0. -1.
         21   -1    0    0  503  502 -0.00000000000E+00 -0.00000000000E+00 -0.80397654168E+03  0.80397654168E+03  0.00000000000E+00 0. -1.
         21    1    1    2  503  501  0.28951766167E+03 -0.51583188209E+02 -0.40281417900E+03  0.49873897434E+03  0.00000000000E+00 0. -1.
         21    1    1    2  504  506 -0.53580755540E+02  0.21220772643E+02 -0.41557378603E+02  0.71050927314E+02  0.00000000000E+00 0. -1.
         21    1    1    2  505  504 -0.15598682433E+03 -0.35537252983E+02 -0.28221279299E+02  0.16245376671E+03  0.00000000000E+00 0. -1.
         21    1    1    2  506  502 -0.79950081797E+02  0.65899668549E+02 -0.18824355271E+03  0.21487302537E+03  0.00000000000E+00 0. -1.
<scales pt_clust_3="204.93574" pt_clust_4="44.27090" pt_clust_5="159.98370" pt_clust_6="44.27090"></scales>
<clustering>
<clus scale="   44.271">  4  6 -1 -1</clus>
<clus scale="  159.984">  1  5  2 -1</clus>
<clus scale="  204.936">  1  3  2 -1</clus>
<clus scale="  159.984">  1  3  2 -1</clus>
</clustering>
</event>
<event>
 6    0  0.1438923E+002  0.1162197E+03  0.7546771E-02  0.1249467E+00
         21   -1    0    0  505  501  0.00000000000E+00  0.00000000000E+00  0.99438107788E+03  0.99438107788E+03  0.00000000000E+00 0.  1.
         21   -1    0    0  504  502 -0.00000000000E+00 -0.00000000000E+00 -0.10640878346E+03  0.10640878346E+03  0.00000000000E+00 0.  1.
         21    1    1    2  503  506  0.43038140726E+02  0.68550334097E+02  0.15592594595E+03  0.17568247062E+03  0.00000000000E+00 0.  1.
         21    1    1    2  504  501 -0.16413692385E+02  0.28863829035E+02  0.22985795245E+03  0.23224385509E+03  0.00000000000E+00 0. -1.
         21    1    1    2  505  503  0.33247453677E+02  0.12343819197E+02  0.55572648124E+03  0.55685696997E+03  0.00000000000E+00 0.  1.
         21    1    1    2  506  502 -0.59871902018E+02 -0.10975798233E+03 -0.53538085214E+02  0.13600656567E+03  0.00000000000E+00 0.  1.
<scales pt_clust_3="116.21973" pt_clust_4="33.20437" pt_clust_5="39.58825" pt_clust_6="14000.00000"></scales>
<clustering>
<clus scale="   33.204">  1  4  2 -1</clus>
<clus scale="   39.588">  1  5  2 -1</clus>
<clus scale="  116.220">  1  3  2 -1</clus>
<clus scale="   33.204">  1  3  2 -1</clus>
</clustering>
</event>
<event>
 6    0  0.1438923E+002  0.1405226E+03  0.7546771E-02  0.1212628E+00
         21   -1    0    0  506  501  0.00000000000E+00  0.00000000000E+00  0.61302780198E+03  0.61302780198E+03  0.00000000000E+00 0.  1.
         21   -1    0    0  504  502 -0.00000000000E+00 -0.00000000000E+00 -0.52325723611E+02  0.52325723611E+02  0.00000000000E+00 0. -1.
         21    1    1    2  503  505 -0.31356677624E+02  0.19449986250E+02  0.75780048989E+02  0.84286173371E+02  0.00000000000E+00 0.  1.
         21    1    1    2  504  503  0.81222071115E+02  0.12703582532E+03  0.23359453778E+03  0.27803153388E+03  0.00000000000E+00 0.  1.
         21    1    1    2  505  501 -0.29894644338E+02 -0.10583741082E+02  0.41140383601E+02  0.51944552152E+02  0.00000000000E+00 0. -1.
         21    1    1    2  506  502 -0.19970749153E+02 -0.13590207049E+03  0.21018710800E+03  0.25109126619E+03  0.00000000000E+00 0. -1.
<scales pt_clust_3="69.91726" pt_clust_4="14000.00000" pt_clust_5="30.15580" pt_clust_6="140.52256"></scales>
<clustering>
<clus scale="   30.156">  3  5 -1 -1</clus>
<clus scale="   69.917">  1  3  2 -1</clus>
<clus scale="  140.523">  2  6  1 -1</clus>
<clus scale="   69.917">  1  3  2 -1</clus>
</clustering>
</event>
<event>
 6    0  0.1438923E+002  0.1241185E+03  0.7546771E-02  0.1236453E+00
         21   -1    0    0  506  501  0.00000000000E+00  0.00000000000E+00  0.13496991464E+03  0.13496991464E+03  0.00000000000E+00 0. -1.
         21   -1    0    0  503  502 -0.00000000000E+00 -0.00000000000E+00 -0.23137358228E+03  0.23137358228E+03  0.00000000000E+00 0. -1.
         21    1    1    2  503  504 -0.59238863468E+02  0.53712576333E+02  0.19527265074E+02  0.82314019963E+02  0.00000000000E+00 0. -1.
         21    1    1    2  504  501 -0.46875234616E+01  0.32193346410E+02  0.31563984325E+02  0.45328462755E+02  0.00000000000E+00 0. -1.
         21    1    1    2  505  502  0.37328630346E+02 -0.11137382382E+03 -0.16115847383E+03  0.19942319063E+03  0.00000000000E+00 0. -1.
         21    1    1    2  506  505  0.26597756583E+02  0.25467901074E+02  0.13663556785E+02  0.39277823570E+02  0.00000000000E+00 0. -1.
<scales pt_clust_3="30.02519" pt_clust_4="30.02519" pt_clust_5="114.84570" pt_clust_6="36.82465"></scales>
<clustering>
<clus scale="   30.025">  3  4 -1 -1</clus>
<clus scale="   36.825">  1  6  2 -1</clus>
<clus scale="  114.846">  2  5  1 -1</clus>
<clus scale="   36.825">  1  3  2 -1</clus>
</clustering>
</event>
<event>
 6    0  0.1438923E+002  0.1367554E+03  0.7546771E-02  0.1217763E+00
         21   -1    0    0  505  501  0.00000000000E+00  0.00000000000E+00  0.76433796965E+02  0.76433796965E+02  0.00000000000E+00 0.  1.
         21   -1    0    0  506  502 -0.00000000000E+00 -0.00000000000E+00 -0.52435616506E+03  0.52435616506E+03  0.00000000000E+00 0.  1.
         21    1    1    2  503  501 -0.53287811267E+02  0.10451182684E+03 -0.69313251884E+02  0.13625945716E+03  0.00000000000E+00 0.  1.
         21    1    1    2  504  502  0.37654711607E+02 -0.35141211113E+02 -0.25716501110E+03  0.26227204380E+03  0.00000000000E+00 0.  1.
         21    1    1    2  505  504  0.47252346402E+02 -0.10014719048E+03 -0.58073090889E+02  0.12503890550E+03  0.00000000000E+00 0.  1.
         21    1    1    2  506  503 -0.31619246742E+02  0.30776574754E+02 -0.63371014217E+02  0.77219555561E+02  0.00000000000E+00 0.  1.
<scales pt_clust_3="30.39364" pt_clust_4="51.50517" pt_clust_5="127.45991" pt_clust_6="30.39364"></scales>
<clustering>
<clus scale="   30.394">  3  6 -1 -1</clus>
<clus scale="   51.505">  2  4  1 -1</clus>
<clus scale="  127.460">  1  5  2 -1</clus>
<clus scale="  127.460">  1  3  2 -1</clus>
</clustering>
</event>
<event>
 6    0  0.1438923E+002  0.1569004E+03  0.7546771E-02  0.1192241E+00
         21   -1    0    0  505  501  0.00000000000E+00  0.00000000000E+00  0.93865326878E+03  0.93865326878E+03  0.00000000000E+00 0.  1.
         21   -1    0    0  501  502 -0.00000000000E+00 -0.00000000000E+00 -0.13714577573E+04  0.13714577573E+04  0.00000000000E+00 0. -1.
         21    1    1    2  503  504  0.96842336128E+02  0.20309980209E+02  0.54156264113E+03  0.55052795354E+03  0.00000000000E+00 0.  1.
         21    1    1    2  504  506 -0.15600646330E+03 -0.95574887982E+02 -0.40774303549E+01  0.18300054985E+03  0.00000000000E+00 0. -1.
         21    1    1    2  505  503  0.26846028849E+02  0.87989962995E+02  0.29592352792E+03  0.30989300933E+03  0.00000000000E+00 0.  1.
         21    1    1    2  506  502  0.32318098328E+02 -0.12725055223E+02 -0.12662132272E+04  0.12666895134E+04  0.00000000000E+00 0. -1.
<scales pt_clust_3="14000.00000" pt_clust_4="156.90042" pt_clust_5="91.84088" pt_clust_6="34.73308"></scales>
<clustering>
<clus scale="   34.733">  2  6  1 -1</clus>
<clus scale="   91.841">  1  5  2 -1</clus>
<clus scale="  156.900">  2  4  1 -1</clus>
<clus scale="   91.841">  1  3  2 -1</clus>
</clustering>
</event>
<event>
 6    0  0.1438923E+002  0.5636730E+02  0.7546771E-02  0.1413741E+00
         21   -1    0    0  505  501  0.00000000000E+00  0.00000000000E+00  0.13578900962E+04  0.13578900962E+04  0.00000000000E+00 0. -1.
         21   -1    0    0  504  502 -0.00000000000E+00 -0.00000000000E+00 -0.21068567408E+03  0.21068567408E+03  0.00000000000E+00 0. -1.
         21    1    1    2  503  501  0.44489218767E+02  0.25179693806E+02  0.38290406303E+03  0.38630147431E+03  0.00000000000E+00 0.  1.
         21    1    1    2  504  503 -0.80422262087E+02  0.65020665653E+02  0.85703337034E+03  0.86325061545E+03  0.00000000000E+00 0. -1.
         21    1    1    2  505  506  0.23206898034E+02 -0.35406942654E+02  0.10512269499E+03  0.11332692843E+03  0.00000000000E+00 0.  1.
         21    1    1    2  506  502  0.12726145286E+02 -0.54793416805E+02 -0.19785570628E+03  0.20569675206E+03  0.00000000000E+00 0. -1.
<scales pt_clust_3="53.57375" pt_clust_4="14000.00000" pt_clust_5="42.33452" pt_clust_6="56.36730"></scales>
<clustering>
<clus scale="   42.335">  1  5  2 -1</clus>
<clus scale="   53.574">  1  3  2 -1</clus>
<clus scale="   56.367">  2  6  1 -1</clus>
<clus scale="   42.335">  1  3  2 -1</clus>
</clustering>
</event>
<event>
 6    0  0.1438923E+002  0.1158612E+03  0.7546771E-02  0.1250085E+00
         21   -1    0    0  503  501  0.00000000000E+00  0.00000000000E+00  0.81726480307E+03  0.81726480307E+03  0.00000000000E+00 0.  1.
         21   -1    0    0  504  502 -0.00000000000E+00 -0.00000000000E+00 -0.36823237943E+03  0.36823237943E+03  0.00000000000E+00 0.  1.
         21    1    1    2  503  506 -0.12299538952E+03 -0.45894561173E+02  0.44112214342E+03  0.46024224275E+03  0.00000000000E+00 0.  1.
         21    1    1    2  504  505  0.13968950315E+02  0.11620684223E+03 -0.32964102257E+03  0.34980332405E+03  0.00000000000E+00 0.  1.
         21    1    1    2  505  501  0.28098923554E+02  0.16888826269E+02  0.25631275795E+02  0.41614231419E+02  0.00000000000E+00 0.  1.
         21    1    1    2  506  502  0.80927515652E+02 -0.87201107325E+02  0.31192002700E+03  0.33383738429E+03  0.00000000000E+00 0. -1.
<scales pt_clust_3="112.79583" pt_clust_4="115.86115" pt_clust_5="32.78387" pt_clust_6="14000.00000"></scales>
<clustering>
<clus scale="   32.784">  1  5  2 -1</clus>
<clus scale="  112.796">  1  3  2 -1</clus>
<clus scale="  115.861">  2  4  1 -1</clus>
<clus scale="   32.784">  1  3  2 -1</clus>
</clustering>
</event>
<event>
 6    0  0.1438923E+002  0.1392557E+03  0.7546771E-02  0.1214334E+00
         21   -1    0    0  505  501  0.00000000000E+00  0.00000000000E+00  0.14642399569E+04  0.14642399569E+04  0.00000000000E+00 0.  1.
         21   -1    0    0  504  502 -0.00000000000E+00 -0.00000000000E+00 -0.11332841946E+03  0.11332841946E+03  0.00000000000E+00 0. -1.
         21    1    1    2  503  506  0.36730055784E+02 -0.96947524807E+02  0.28121188685E+02  0.10741843798E+03  0.00000000000E+00 0. -1.
         21    1    1    2  504  503  0.36396599156E+02 -0.23340922770E+02 -0.40711081126E+02  0.59387736380E+02  0.00000000000E+00 0. -1.
         21    1    1    2  505  502 -0.31580734174E+02 -0.16128299388E+02 -0.41442495240E+01  0.35702095404E+02  0.00000000000E+00 0. -1.
         21    1    1    2  506  501 -0.41545920765E+02  0.13641674697E+03  0.13676456794E+04  0.13750601066E+04  0.00000000000E+00 0.  1.
<scales pt_clust_3="139.25572" pt_clust_4="37.44560" pt_clust_5="35.46075" pt_clust_6="14000.00000"></scales>
<clustering>
<clus scale="   35.461">  2  5  1 -1</clus>
<clus scale="   37.446">  2  4  1 -1</clus>
<clus scale="  139.256">  2  3  1 -1</clus>
<clus scale="  139.256">  1  3  2 -1</clus>
</clustering>
</event>
<event>
 6    0  0.1438923E+002  0.1280710E+03  0.7546771E-02  0.1230346E+00
         21   -1    0    0  505  501  0.00000000000E+00  0.00000000000E+00  0.27112506677E+03  0.27112506677E+03  0.00000000000E+00 0.  1.
         21   -1    0    0  501  502 -0.00000000000E+00 -0.00000000000E+00 -0.28151262592E+03  0.28151262592E+03  0.00000000000E+00 0. -1.
         21    1    1    2  503  504 -0.79945487908E+02  0.32799325965E+02  0.14814219676E+03  0.17150273258E+03  0.00000000000E+00 0.  1.
         21    1    1    2  504  506  0.77612597105E+02 -0.20507726963E+02 -0.22931105695E+03  0.24295646304E+03  0.00000000000E+00 0. -1.
         21    1    1    2  505  503 -0.39293972558E+02 -0.19962796507E+02  0.83125801668E+02  0.94087344669E+02  0.00000000000E+00 0. -1.
         21    1    1    2  506  502  0.41626863361E+02  0.76711975046E+01 -0.12344500627E+02  0.44091152402E+02  0.00000000000E+00 0.  1.
<scales pt_clust_3="36.90545" pt_clust_4="117.18284" pt_clust_5="36.90545" pt_clust_6="42.32780"></scales>
<clustering>
<clus scale="   36.905">  3  5 -1 -1</clus>
<clus scale="   42.328">  2  6  1 -1</clus>
<clus scale="  117.183">  2  4  1 -1</clus>
<clus scale="  128.071">  1  3  2 -1</clus>
</clustering>
</event>
<event>
 6    0  0.1438923E+002  0.9947862E+02  0.7546771E-02  0.1281396E+00
         21   -1    0    0  503  501  0.00000000000E+00  0.00000000000E+00  0.66527969417E+03  0.66527969417E+03  0.00000000000E+00 0. -1.
         21   -1    0    0  504  502 -0.00000000000E+00 -0.00000000000E+00 -0.11384394126E+03  0.11384394126E+03  0.00000000000E+00 0. -1.
         21    1    1    2  503  505 -0.84280198517E+02  0.24651655268E+01  0.29497941722E+03  0.30679322920E+03  0.00000000000E+00 0. -1.
         21    1    1    2  504  506  0.11238969303E+03  0.28202385830E+02 -0.21839463006E+02  0.11791429011E+03  0.00000000000E+00 0. -1.
         21    1    1    2  505  502 -0.41608959605E+02  0.58563812989E+02  0.11480726949E+02  0.72751857725E+02  0.00000000000E+00 0. -1.
         21    1    1    2  506  501  0.13499465088E+02 -0.89231364345E+02  0.26681507176E+03  0.28166425840E+03  0.00000000000E+00 0. -1.
<scales pt_clust_3="99.47862" pt_clust_4="14000.00000" pt_clust_5="71.84028" pt_clust_6="84.57394"></scales>
<clustering>
<clus scale="   71.840">  2  5  1 -1</clus>
<clus scale="   84.574">  1  6  2 -1</clus>
<clus scale="   99.479">  1  3  2 -1</clus>
<clus scale="   84.574">  1  3  2 -1</clus>
</clustering>
</event>
<event>
 6    0  0.1438923E+002  0.7391748E+02  0.7546771E-02  0.1347256E+00
         21   -1    0    0  505  501  0.00000000000E+00  0.00000000000E+00  0.75485303841E+02  0.75485303841E+02  0.00000000000E+00 0.  1.
         21   -1    0    0  504  502 -0.00000000000E+00 -0.00000000000E+00 -0.15081495415E+04  0.15081495415E+04  0.00000000000E+00 0. -1.
         21    1    1    2  503  506  0.70586221845E+02  0.61314771231E+01 -0.60317138133E+01  0.71108306811E+02  0.00000000000E+00 0. -1.
         21    1    1    2  504  501 -0.97114689609E+02 -0.18543550813E+02 -0.11164179188E+03  0.14912751560E+03  0.00000000000E+00 0.  1.
         21    1    1    2  505  503 -0.41979779674E+02 -0.11740873656E+02  0.27313871379E+01  0.43676200514E+02  0.00000000000E+00 0.  1.
         21    1    1    2  506  502  0.68508247438E+02  0.24152947345E+02 -0.13177221191E+04  0.13197228225E+04  0.00000000000E+00 0. -1.
<scales pt_clust_3="44.47493" pt_clust_4="14000.00000" pt_clust_5="43.59071" pt_clust_6="73.91748"></scales>
<clustering>
<clus scale="   43.591">  1  5  2 -1</clus>
<clus scale="   44.475">  1  3  2 -1</clus>
<clus scale="   73.917">  2  6  1 -1</clus>
<clus scale="   43.591">  1  3  2 -1</clus>
</clustering>
</event>
<event>
 6    0  0.1438923E+002  0.1319875E+03  0.7546771E-02  0.1224536E+00
         21   -1    0    0  504  501  0.00000000000E+00  0.00000000000E+00  0.22516246719E+03  0.22516246719E+03  0.00000000000E+00 0. -1.
         21   -1    0    0  506  502 -0.00000000000E+00 -0.00000000000E+00 -0.67123829671E+03  0.67123829671E+03  0.00000000000E+00 0. -1.
         21    1    1    2  503  501 -0.43797003966E+02 -0.24113100012E+02  0.10675369036E+03  0.11788116709E+03  0.00000000000E+00 0. -1.
         21    1    1    2  504  502 -0.35905344059E+02 -0.74496722788E+01  0.19695236252E+02  0.41624436093E+02  0.00000000000E+00 0. -1.
         21    1    1    2  505  503 -0.19840915643E+02 -0.47284111973E+02  0.67289380045E+02  0.84600885607E+02  0.00000000000E+00 0. -1.
         21    1    1    2  506  505  0.99543263668E+02  0.78846884264E+02 -0.63981413618E+03  0.65229427512E+03  0.00000000000E+00 0. -1.
<scales pt_clust_3="36.60756" pt_clust_4="36.67003" pt_clust_5="36.60756" pt_clust_6="125.93671"></scales>
<clustering>
<clus scale="   36.670">  1  4  2 -1</clus>
<clus scale="   36.608">  3  5 -1 -1</clus>
<clus scale="  125.937">  2  6  1 -1</clus>
<clus scale="   36.670">  1  3  2 -1</clus>
</clustering>
</event>
<event>
 6    0  0.1438923E+002  0.1885361E+03  0.7546771E-02  0.1159788E+00
         21   -1    0    0  505  501  0.00000000000E+00  0.00000000000E+00  0.25418456582E+03  0.25418456582E+03  0.00000000000E+00 0.  1.
         21   -1    0    0  503  502 -0.00000000000E+00 -0.00000000000E+00 -0.32150970082E+03  0.32150970082E+03  0.00000000000E+00 0. -1.
         21    1    1    2  503  504 -0.46642800332E+02 -0.54100788841E+02 -0.26344038180E+02  0.76134450307E+02  0.00000000000E+00 0. -1.
         21    1    1    2  504  506 -0.18559080661E+01  0.98982389139E+02  0.57777274969E+02  0.11462622413E+03  0.00000000000E+00 0.  1.
         21    1    1    2  505  502 -0.16618125869E+02 -0.11419920242E+03 -0.20936320896E+03  0.23906186063E+03  0.00000000000E+00 0. -1.
         21    1    1    2  506  501  0.65116834267E+02  0.69317602125E+02  0.11060483717E+03  0.14587173158E+03  0.00000000000E+00 0.  1.
<scales pt_clust_3="71.43141" pt_clust_4="83.32367" pt_clust_5="168.42222" pt_clust_6="83.32367"></scales>
<clustering>
<clus scale="   71.431">  2  3  1 -1</clus>
<clus scale="   83.324">  4  6 -1 -1</clus>
<clus scale="  168.422">  2  5  1 -1</clus>
<clus scale="  188.536">  1  3  2 -1</clus>
</clustering>
</event>
<event>
 6    0  0.1438923E+002  0.2649067E+03  0.7546771E-02  0.1104230E+00
         21   -1    0    0  504  501  0.00000000000E+00  0.00000000000E+00  0.16830833923E+04  0.16830833923E+04  0.00000000000E+00 0. -1.
         21   -1    0    0  503  502 -0.00000000000E+00 -0.00000000000E+00 -0.90299996014E+02  0.90299996014E+02  0.00000000000E+00 0. -1.
         21    1    1    2  503  505 -0.79758943230E+02 -0.12387045745E+03  0.73708584917E+03  0.75166543641E+03  0.00000000000E+00 0. -1.
         21    1    1    2  504  506  0.15855460814E+03  0.23137894961E+03  0.39232443111E+03  0.48228025185E+03  0.00000000000E+00 0. -1.
         21    1    1    2  505  501 -0.32167611654E+02 -0.10713271424E+03  0.47772784181E+03  0.49064861616E+03  0.00000000000E+00 0. -1.
         21    1    1    2  506  502 -0.46628053256E+02 -0.37577791945E+00 -0.14354725755E+02  0.48789083933E+02  0.00000000000E+00 0. -1.
<scales pt_clust_3="35.73462" pt_clust_4="261.71301" pt_clust_5="35.73462" pt_clust_6="46.62957"></scales>
<clustering>
<clus scale="   35.735">  3  5 -1 -1</clus>
<clus scale="   46.630">  2  6  1 -1</clus>
<clus scale="  261.713">  2  4  1 -1</clus>
<clus scale="  264.907">  1  3  2 -1</clus>
</clustering>
</event>
<event>
 6    0  0.1438923E+002  0.2071569E+03  0.7546771E-02  0.1143837E+00
         21   -1    0    0  504  501  0.00000000000E+00  0.00000000000E+00  0.39036764782E+03  0.39036764782E+03  0.00000000000E+00 0. -1.
         21   -1    0    0  506  502 -0.00000000000E+00 -0.00000000000E+00 -0.23175533869E+03  0.23175533869E+03  0.00000000000E+00 0. -1.
         21    1    1    2  503  505  0.78072923753E+02 -0.10412460936E+02 -0.16530109755E+02  0.80480092536E+02  0.00000000000E+00 0. -1.
         21    1    1    2  504  502 -0.22472841474E+03  0.39570893832E+01 -0.38375350527E+02  0.22801575927E+03  0.00000000000E+00 0. -1.
         21    1    1    2  505  501  0.52691198735E+02 -0.36865672238E+02  0.19901379724E+03  0.20914571883E+03  0.00000000000E+00 0. -1.
         21    1    1    2  506  503  0.93964292253E+02  0.43321043791E+02  0.14503972164E+02  0.10448141587E+03  0.00000000000E+00 0. -1.
<scales pt_clust_3="51.81467" pt_clust_4="198.46186" pt_clust_5="64.30739" pt_clust_6="51.81467"></scales>
<clustering>
<clus scale="   51.815">  3  6 -1 -1</clus>
<clus scale="   64.307">  1  5  2 -1</clus>
<clus scale="  198.462">  1  4  2 -1</clus>
<clus scale="   64.307">  1  3  2 -1</clus>
</clustering>
</event>
<event>
 6    0  0.1438923E+002  0.2671939E+03  0.7546771E-02  0.1102896E+00
         21   -1    0    0  506  501  0.00000000000E+00  0.00000000000E+00  0.19805286240E+03  0.19805286240E+03  0.00000000000E+00 0. -1.
         21   -1    0    0  501  502 -0.00000000000E+00 -0.00000000000E+00 -0.44734223399E+03  0.44734223399E+03  0.00000000000E+00 0. -1.
         21    1    1    2  503  502 -0.21549462392E+03 -0.31399160421E+02 -0.30271951896E+03  0.37291144710E+03  0.00000000000E+00 0. -1.
         21    1    1    2  504  505  0.53812082995E+02 -0.22093966297E+02  0.17987596475E+02  0.60888728431E+02  0.00000000000E+00 0. -1.
         21    1    1    2  505  503  0.31219712733E+02 -0.26982571067E+02 -0.23358562462E+02  0.47416790748E+02  0.00000000000E+00 0.  1.
         21    1    1    2  506  504  0.13046282819E+03  0.80475697785E+02  0.58801113357E+02  0.16417813011E+03  0.00000000000E+00 0. -1.
<scales pt_clust_3="217.77015" pt_clust_4="107.74403" pt_clust_5="38.24821" pt_clust_6="107.74403"></scales>
<clustering>
<clus scale="   38.248">  4  5 -1 -1</clus>
<clus scale="  107.744">  4  6 -1 -1</clus>
<clus scale="  217.770">  2  3  1 -1</clus>
<clus scale="  267.194">  1  3  2 -1</clus>
</clustering>
</event>
<event>
 6    0  0.1438923E+002  0.1169138E+03  0.7546771E-02  0.1248277E+00
         21   -1    0    0  505  501  0.00000000000E+00  0.00000000000E+00  0.24537067523E+04  0.24537067523E+04  0.00000000000E+00 0. -1.
         21   -1    0    0  506  502 -0.00000000000E+00 -0.00000000000E+00 -0.82005430469E+02  0.82005430469E+02  0.00000000000E+00 0. -1.
         21    1    1    2  503  504 -0.61541037132E+02  0.82326789894E+01  0.58034201557E+01  0.62359890476E+02  0.00000000000E+00 0. -1.
         21    1    1    2  504  501  0.70374971411E+02 -0.96731936776E+02  0.23588644976E+04  0.23618957264E+04  0.00000000000E+00 0. -1.
         21    1    1    2  505  502 -0.94193362002E+01  0.44804356004E+02 -0.29528145886E+02  0.54479956047E+02  0.00000000000E+00 0.  1.
         21    1    1    2  506  503  0.58540192112E+00  0.43694901783E+02  0.36561549949E+02  0.56976609867E+02  0.00000000000E+00 0. -1.
<scales pt_clust_3="66.37985" pt_clust_4="116.91375" pt_clust_5="14000.00000" pt_clust_6="43.69882"></scales>
<clustering>
<clus scale="   43.699">  2  6  1 -1</clus>
<clus scale="   66.380">  2  3  1 -1</clus>
<clus scale="  116.914">  1  4  2 -1</clus>
<clus scale="  116.914">  1  3  2 -1</clus>
</clustering>
</event>
<event>
 6    0  0.1438923E+002  0.2404634E+03  0.7546771E-02  0.1119485E+00
         21   -1    0    0  503  501  0.00000000000E+00  0.00000000000E+00  0.72660476234E+03  0.72660476234E+03  0.00000000000E+00 0. -1.
         21   -1    0    0  501  502 -0.00000000000E+00 -0.00000000000E+00 -0.11867950990E+04  0.11867950990E+04  0.00000000000E+00 0. -1.
         21    1    1    2  503  504 -0.19994348153E+02 -0.17199643089E+03  0.42385972583E+03  0.45786418661E+03  0.00000000000E+00 0. -1.
         21    1    1    2  504  505  0.39703196731E+02 -0.59278032677E+02  0.13953136322E+03  0.15671384850E+03  0.00000000000E+00 0. -1.
         21    1    1    2  505  506 -0.46055686489E+02  0.20603185614E+03  0.56164280970E+02  0.21845978682E+03  0.00000000000E+00 0. -1.
         21    1    1    2  506  502  0.26346837911E+02  0.25242607427E+02 -0.10797457067E+04  0.10803620394E+04  0.00000000000E+00 0. -1.
<scales pt_clust_3="51.94131" pt_clust_4="51.94131" pt_clust_5="226.72078" pt_clust_6="36.48760"></scales>
<clustering>
<clus scale="   36.488">  2  6  1 -1</clus>
<clus scale="   51.941">  3  4 -1 -1</clus>
<clus scale="  226.721">  2  5  1 -1</clus>
<clus scale="  240.463">  1  3  2 -1</clus>
</clustering>
</event>
<event>
 6    0  0.1438923E+002  0.1145114E+03  0.7546771E-02  0.1252436E+00
         21   -1    0    0  506  501  0.00000000000E+00  0.00000000000E+00  0.14356799236E+03  0.14356799236E+03  0.00000000000E+00 0. -1.
         21   -1    0    0  503  502 -0.00000000000E+00 -0.00000000000E+00 -0.13175427619E+03  0.13175427619E+03  0.00000000000E+00 0. -1.
         21    1    1    2  503  504 -0.66348316266E+01  0.39000115928E+02 -0.22395430615E+02  0.45459711235E+02  0.00000000000E+00 0. -1.
         21    1    1    2  504  501 -0.10482827327E+03 -0.35535218293E+02  0.15884494662E+02  0.11182144600E+03  0.00000000000E+00 0. -1.
         21    1    1    2  505  502  0.50260162274E+02 -0.11999896116E+02 -0.51687569823E+01  0.51930698698E+02  0.00000000000E+00 0. -1.
         21    1    1    2  506  505  0.61202942623E+02  0.85349984811E+01  0.23493409098E+02  0.66110412613E+02  0.00000000000E+00 0. -1.
<scales pt_clust_3="39.56046" pt_clust_4="109.32055" pt_clust_5="31.16985" pt_clust_6="31.16985"></scales>
<clustering>
<clus scale="   31.170">  5  6 -1 -1</clus>
<clus scale="   39.560">  2  3  1 -1</clus>
<clus scale="  109.321">  2  4  1 -1</clus>
<clus scale="  114.511">  1  3  2 -1</clus>
</clustering>
</event>
<event>
 6    0  0.1438923E+002  0.1825311E+03  0.7546771E-02  0.1165376E+00
         21   -1    0    0  506  501  0.00000000000E+00  0.00000000000E+00  0.29439195854E+03  0.29439195854E+03  0.00000000000E+00 0.  1.
         21   -1    0    0  504  502 -0.00000000000E+00 -0.00000000000E+00 -0.67215294143E+03  0.67215294143E+03  0.00000000000E+00 0. -1.
         21    1    1    2  503  502  0.68765416679E+02  0.13830446830E+02 -0.15718110444E+02  0.71882005999E+02  0.00000000000E+00 0. -1.
         21    1    1    2  504  505 -0.28637114184E+02 -0.29629970926E+02 -0.54909739441E+03  0.55064141511E+03  0.00000000000E+00 0. -1.
         21    1    1    2  505  501 -0.16222100127E+03 -0.34240401825E+00  0.13191134709E+03  0.20908460964E+03  0.00000000000E+00 0.  1.
         21    1    1    2  506  503  0.12209269878E+03  0.16141928114E+02  0.55143174874E+02  0.13493686922E+03  0.00000000000E+00 0. -1.
<scales pt_clust_3="44.95206" pt_clust_4="41.20703" pt_clust_5="171.53150" pt_clust_6="44.95206"></scales>
<clustering>
<clus scale="   41.207">  2  4  1 -1</clus>
<clus scale="   44.952">  3  6 -1 -1</clus>
<clus scale="  171.531">  1  5  2 -1</clus>
<clus scale="  171.531">  1  3  2 -1</clus>
</clustering>
</event>
<event>
 6    0  0.1438923E+002  0.1223668E+03  0.7546771E-02  0.1239243E+00
         21   -1    0    0  506  501  0.00000000000E+00  0.00000000000E+00  0.14399703940E+04  0.14399703940E+04  0.00000000000E+00 0.  1.
         21   -1    0    0  505  502 -0.00000000000E+00 -0.00000000000E+00 -0.22284674815E+03  0.22284674815E+03  0.00000000000E+00 0. -1.
         21    1    1    2  503  501  0.10063117013E+03 -0.46595256755E+02  0.10433267887E+04  0.10492037640E+04  0.00000000000E+00 0.  1.
         21    1    1    2  504  502 -0.91995595358E+02  0.81993661087E+02  0.76616554871E+02  0.14510770656E+03  0.00000000000E+00 0.  1.
         21    1    1    2  505  503 -0.35208845560E+02 -0.69308512770E+02 -0.17576086216E+03  0.19218536213E+03  0.00000000000E+00 0. -1.
         21    1    1    2  506  504  0.26573270791E+02  0.33910108438E+02  0.27294116452E+03  0.27632030954E+03  0.00000000000E+00 0.  1.
<scales pt_clust_3="14000.00000" pt_clust_4="122.36681" pt_clust_5="77.44103" pt_clust_6="43.08172"></scales>
<clustering>
<clus scale="   43.082">  1  6  2 -1</clus>
<clus scale="   77.441">  2  5  1 -1</clus>
<clus scale="  122.367">  2  4  1 -1</clus>
<clus scale="   43.082">  1  3  2 -1</clus>
</clustering>
</event>
<event>
 6    0  0.1438923E+002  0.1160138E+03  0.7546771E-02  0.1249822E+00
         21   -1    0    0  506  501  0.00000000000E+00  0.00000000000E+00  0.17902688370E+03  0.17902688370E+03  0.00000000000E+00 0.  1.
         21   -1    0    0  505  502 -0.00000000000E+00 -0.00000000000E+00 -0.40135740581E+03  0.40135740581E+03  0.00000000000E+00 0.  1.
         21    1    1    2  503  501 -0.95826564091E+02  0.61800030501E+02 -0.17143782339E+02  0.11530777696E+03  0.00000000000E+00 0. -1.
         21    1    1    2  504  502  0.41045853026E+02 -0.14229439601E+03 -0.33685308636E+02  0.15187875824E+03  0.00000000000E+00 0.  1.
         21    1    1    2  505  503  0.56208787184E+02 -0.64719327643E+01 -0.21043119736E+03  0.21790503090E+03  0.00000000000E+00 0.  1.
         21    1    1    2  506  504 -0.14280761186E+01  0.86966298269E+02  0.38929766228E+02  0.95292723409E+02  0.00000000000E+00 0.  1.
<scales pt_clust_3="14000.00000" pt_clust_4="116.01380" pt_clust_5="56.58015" pt_clust_6="86.27917"></scales>
<clustering>
<clus scale="   56.580">  2  5  1 -1</clus>
<clus scale="   86.279">  1  6  2 -1</clus>
<clus scale="  116.014">  1  4  2 -1</clus>
<clus scale="   86.279">  1  3  2 -1</clus>
</clustering>
</event>
<event>
 6    0  0.1438923E+002  0.2338173E+03  0.7546771E-02  0.1123981E+00
         21   -1    0    0  505  501  0.00000000000E+00  0.00000000000E+00  0.18265186965E+04  0.18265186965E+04  0.00000000000E+00 0. -1.
         21   -1    0    0  503  502 -0.00000000000E+00 -0.00000000000E+00 -0.38915980286E+03  0.38915980286E+03  0.00000000000E+00 0.  1.
         21    1    1    2  503  506  0.71305410997E+02  0.61679319252E+02 -0.29019588684E+03  0.30512694538E+03  0.00000000000E+00 0.  1.
         21    1    1    2  504  502 -0.96023326799E+02  0.24732089101E+03  0.73630800392E+03  0.78264780014E+03  0.00000000000E+00 0. -1.
         21    1    1    2  505  504  0.12540601773E+03 -0.42973836335E+02  0.72920168427E+03  0.74115350383E+03  0.00000000000E+00 0. -1.
         21    1    1    2  506  501 -0.10068810193E+03 -0.26602637393E+03  0.26204509228E+03  0.38675025001E+03  0.00000000000E+00 0.  1.
<scales pt_clust_3="94.28043" pt_clust_4="14000.00000" pt_clust_5="135.76876" pt_clust_6="233.81735"></scales>
<clustering>
<clus scale="   94.280">  2  3  1 -1</clus>
<clus scale="  135.769">  1  5  2 -1</clus>
<clus scale="  233.817">  2  6  1 -1</clus>
<clus scale="  135.769">  1  3  2 -1</clus>
</clustering>
</event>
<event>
 6    0  0.1438923E+002  0.2186168E+03  0.7546771E-02  0.1134919E+00
         21   -1    0    0  503  501  0.00000000000E+00  0.00000000000E+00  0.90656770766E+03  0.90656770766E+03  0.00000000000E+00 0.  1.
         21   -1    0    0  504  502 -0.00000000000E+00 -0.00000000000E+00 -0.11756982346E+03  0.11756982346E+03  0.00000000000E+00 0. -1.
         21    1    1    2  503  502  0.11304011543E+03  0.15535991478E+03  0.30861743371E+03  0.36353746878E+03  0.00000000000E+00 0.  1.
         21    1    1    2  504  505  0.35960888566E+02  0.21988397654E+02 -0.58369557343E+02  0.71997780259E+02  0.00000000000E+00 0. -1.
         21    1    1    2  505  506 -0.11011350328E+03 -0.10085863812E+03  0.30478549217E+03  0.33939894627E+03  0.00000000000E+00 0.  1.
         21    1    1    2  506  501 -0.38887500712E+02 -0.76489674312E+02  0.23396451567E+03  0.24920333581E+03  0.00000000000E+00 0.  1.
<scales pt_clust_3="212.71094" pt_clust_4="42.15062" pt_clust_5="38.25983" pt_clust_6="38.25983"></scales>
<clustering>
<clus scale="   38.260">  5  6 -1 -1</clus>
<clus scale="   42.151">  2  4  1 -1</clus>
<clus scale="  212.711">  2  3  1 -1</clus>
<clus scale="  218.617">  1  3  2 -1</clus>
</clustering>
</event>
<event>
 6    0  0.1438923E+002  0.1315233E+03  0.7546771E-02  0.1225213E+00
         21   -1    0    0  505  501  0.00000000000E+00  0.00000000000E+00  0.20797637040E+03  0.20797637040E+03  0.00000000000E+00 0. -1.
         21   -1    0    0  501  502 -0.00000000000E+00 -0.00000000000E+00 -0.14410810492E+03  0.14410810492E+03  0.00000000000E+00 0.  1.
         21    1    1    2  503  504  0.18670275696E+00 -0.56119472603E+02 -0.12699399178E+02  0.57538724374E+02  0.00000000000E+00 0.  1.
         21    1    1    2  504  502 -0.32967706611E+02 -0.37244851892E+02 -0.45713434141E+02  0.67555656556E+02  0.00000000000E+00 0.  1.
         21    1    1    2  505  506  0.32348611097E+02  0.14040067434E+03  0.95613140187E+02  0.17291805739E+03  0.00000000000E+00 0. -1.
         21    1    1    2  506  503  0.43239275721E+00 -0.47036349840E+02  0.26667958607E+02  0.54072037007E+02  0.00000000000E+00 0.  1.
<scales pt_clust_3="36.85279" pt_clust_4="49.73981" pt_clust_5="125.21201" pt_clust_6="36.85279"></scales>
<clustering>
<clus scale="   36.853">  3  6 -1 -1</clus>
<clus scale="   49.740">  2  4  1 -1</clus>
<clus scale="  125.212">  1  5  2 -1</clus>
<clus scale="  125.212">  1  3  2 -1</clus>
</clustering>
</event>
<event>
 6    0  0.1438923E+002  0.1202094E+03  0.7546771E-02  0.1242752E+00
         21   -1    0    0  506  501  0.00000000000E+00  0.00000000000E+00  0.40036510040E+03  0.40036510040E+03  0.00000000000E+00 0.  1.
         21   -1    0    0  505  502 -0.00000000000E+00 -0.00000000000E+00 -0.86991127694E+02  0.86991127694E+02  0.00000000000E+00 0.  1.
         21    1    1    2  503  502 -0.53051077072E+01  0.91336204232E+02 -0.11010797565E+02  0.92150333880E+02  0.00000000000E+00 0.  1.
         21    1    1    2  504  501  0.14378378148E+01 -0.11052858849E+03  0.17299123875E+03  0.20529151209E+03  0.00000000000E+00 0.  1.
         21    1    1    2  505  504  0.38014240153E+02 -0.32389787067E+02  0.47062522191E+02  0.68622603824E+02  0.00000000000E+00 0.  1.
         21    1    1    2  506  503 -0.34146970260E+02  0.51582171321E+02  0.10433100932E+03  0.12129177830E+03  0.00000000000E+00 0.  1.
<scales pt_clust_3="99.13191" pt_clust_4="45.70309" pt_clust_5="45.70309" pt_clust_6="61.86062"></scales>
<clustering>
<clus scale="   45.703">  4  5 -1 -1</clus>
<clus scale="   61.861">  1  6  2 -1</clus>
<clus scale="   99.132">  2  3  1 -1</clus>
<clus scale="   61.861">  1  3  2 -1</clus>
</clustering>
</event>
<event>
 6    0  0.1438923E+002  0.1673619E+03  0.7546771E-02  0.1180627E+00
         21   -1    0    0  505  501  0.00000000000E+00  0.00000000000E+00  0.42613948296E+03  0.42613948296E+03  0.00000000000E+00 0.  1.
         21   -1    0    0  504  502 -0.00000000000E+00 -0.00000000000E+00 -0.99862858162E+02  0.99862858162E+02  0.00000000000E+00 0.  1.
         21    1    1    2  503  501 -0.25449894855E+02  0.29234050406E+02  0.38684604175E+02  0.54761532589E+02  0.00000000000E+00 0.  1.
         21    1    1    2  504  503  0.13571437655E+03  0.65733040440E+02  0.13233959479E+02  0.15137490641E+03  0.00000000000E+00 0.  1.
         21    1    1    2  505  506 -0.24553426912E+02 -0.70353567685E+02  0.10977042696E+03  0.13267268707E+03  0.00000000000E+00 0.  1.
         21    1    1    2  506  502 -0.85711054785E+02 -0.24613523162E+02  0.16458763418E+03  0.18719321505E+03  0.00000000000E+00 0.  1.
<scales pt_clust_3="38.75986" pt_clust_4="148.81245" pt_clust_5="64.31645" pt_clust_6="64.31645"></scales>
<clustering>
<clus scale="   38.760">  1  3  2 -1</clus>
<clus scale="   64.316">  5  6 -1 -1</clus>
<clus scale="  148.812">  2  4  1 -1</clus>
<clus scale="   38.760">  1  3  2 -1</clus>
</clustering>
</event>
<event>
 6    0  0.1438923E+002  0.9733771E+02  0.7546771E-02  0.1285996E+00
         21   -1    0    0  503  501  0.00000000000E+00  0.00000000000E+00  0.16204334212E+02  0.16204334212E+02  0.00000000000E+00 0.  1.
         21   -1    0    0  506  502 -0.00000000000E+00 -0.00000000000E+00 -0.16144041703E+04  0.16144041703E+04  0.00000000000E+00 0.  1.
         21    1    1    2  503  504  0.69536548353E+02 -0.23401330612E+02 -0.18563619278E+03  0.19960899254E+03  0.00000000000E+00 0.  1.
         21    1    1    2  504  502 -0.11262452100E+03  0.25001701828E+02 -0.10128845248E+04  0.10194333860E+04  0.00000000000E+00 0.  1.
         21    1    1    2  505  501  0.42761948796E+02  0.37834486631E+02 -0.19802524804E+03  0.20609228880E+03  0.00000000000E+00 0.  1.
         21    1    1    2  506  505  0.32602385089E+00 -0.39434857847E+02 -0.20165387048E+03  0.20547383722E+03  0.00000000000E+00 0.  1.
<scales pt_clust_3="14000.00000" pt_clust_4="97.33771" pt_clust_5="53.55896" pt_clust_6="39.43621"></scales>
<clustering>
<clus scale="   39.436">  2  6  1 -1</clus>
<clus scale="   53.559">  1  5  2 -1</clus>
<clus scale="   97.338">  2  4  1 -1</clus>
<clus scale="   53.559">  1  3  2 -1</clus>
</clustering>
</event>
<event>
 6    0  0.1438923E+002  0.1211969E+03  0.7546771E-02  0.1241136E+00
         21   -1    0    0  504  501  0.00000000000E+00  0.00000000000E+00  0.90570535143E+03  0.90570535143E+03  0.00000000000E+00 0. -1.
         21   -1    0    0  505  502 -0.00000000000E+00 -0.00000000000E+00 -0.12091361498E+03  0.12091361498E+03  0.00000000000E+00 0. -1.
         21    1    1    2  503  506  0.44123593616E+02 -0.39480305251E+02  0.16086420651E+03  0.17141434874E+03  0.00000000000E+00 0. -1.
         21    1    1    2  504  502 -0.83898096993E+02 -0.29648937039E+02  0.30712844686E+03  0.31975902335E+03  0.00000000000E+00 0. -1.
         21    1    1    2  505  503 -0.45439659789E+02  0.66306929249E+02 -0.89499382746E+02  0.12029759374E+03  0.00000000000E+00 0. -1.
         21    1    1    2  506  501  0.85214163166E+02  0.28223130419E+01  0.40629846582E+03  0.41514800058E+03  0.00000000000E+00 0. -1.
<scales pt_clust_3="54.70730" pt_clust_4="101.87665" pt_clust_5="80.38266" pt_clust_6="54.70730"></scales>
<clustering>
<clus scale="   54.707">  3  6 -1 -1</clus>
<clus scale="   80.383">  2  5  1 -1</clus>
<clus scale="  101.877">  1  4  2 -1</clus>
<clus scale="  101.877">  1  3  2 -1</clus>
</clustering>
</event>
<event>
 6    0  0.1438923E+002  0.1930923E+03  0.7546771E-02  0.1155701E+00
         21   -1    0    0  503  501  0.00000000000E+00  0.00000000000E+00  0.18082954821E+03  0.18082954821E+03  0.00000000000E+00 0. -1.
         21   -1    0    0  505  502 -0.00000000000E+00 -0.00000000000E+00 -0.55149892633E+03  0.55149892633E+03  0.00000000000E+00 0.  1.
         21    1    1    2  503  506 -0.10082120913E+03 -0.26751830144E+02 -0.20779074253E+03  0.23250283720E+03  0.00000000000E+00 0.  1.
         21    1    1    2  504  502 -0.35861401989E+02  0.31009901723E+02 -0.20681721052E+03  0.21218155605E+03  0.00000000000E+00 0.  1.
         21    1    1    2  505  501  0.19218450234E+03  0.27806585357E+01  0.92735632347E+02  0.21340691767E+03  0.00000000000E+00 0. -1.
         21    1    1    2  506  504 -0.55501891221E+02 -0.70387301147E+01 -0.48797057415E+02  0.74237163625E+02  0.00000000000E+00 0.  1.
<scales pt_clust_3="37.86661" pt_clust_4="47.40943" pt_clust_5="186.04090" pt_clust_6="37.86661"></scales>
<clustering>
<clus scale="   37.867">  3  6 -1 -1</clus>
<clus scale="   47.409">  2  4  1 -1</clus>
<clus scale="  186.041">  1  5  2 -1</clus>
<clus scale="  186.041">  1  3  2 -1</clus>
</clustering>
</event>
<event>
 6    0  0.1438923E+002  0.9133117E+02  0.7546771E-02  0.1299660E+00
         21   -1    0    0  503  501  0.00000000000E+00  0.00000000000E+00  0.42191740072E+03  0.42191740072E+03  0.00000000000E+00 0.  1.
         21   -1    0    0  506  502 -0.00000000000E+00 -0.00000000000E+00 -0.12327089453E+03  0.12327089453E+03  0.00000000000E+00 0.  1.
         21    1    1    2  503  505 -0.28108732031E+02 -0.33855177193E+02  0.33333602720E+02  0.55203287126E+02  0.00000000000E+00 0.  1.
         21    1    1    2  504  502  0.71769581171E+02 -0.31756315180E+02  0.17674261133E+03  0.19338378162E+03  0.00000000000E+00 0.  1.
         21    1    1    2  505  504  0.46946462243E+02  0.44577891579E+02  0.16433870956E+03  0.17663060378E+03  0.00000000000E+00 0.  1.
         21    1    1    2  506  501 -0.90607311383E+02  0.21033600794E+02 -0.75768417412E+02  0.11997062272E+03  0.00000000000E+00 0.  1.
<scales pt_clust_3="44.00311" pt_clust_4="14000.00000" pt_clust_5="45.07455" pt_clust_6="91.33117"></scales>
<clustering>
<clus scale="   44.003">  1  3  2 -1</clus>
<clus scale="   45.075">  1  5  2 -1</clus>
<clus scale="   91.331">  2  6  1 -1</clus>
<clus scale="   44.003">  1  3  2 -1</clus>
</clustering>
</event>
<event>
 6    0  0.1438923E+002  0.9577532E+02  0.7546771E-02  0.1289439E+00
         21   -1    0    0  505  501  0.00000000000E+00  0.00000000000E+00  0.20324118807E+03  0.20324118807E+03  0.00000000000E+00 0.  1.
         21   -1    0    0  504  502 -0.00000000000E+00 -0.00000000000E+00 -0.21460799022E+03  0.21460799022E+03  0.00000000000E+00 0.  1.
         21    1    1    2  503  502  0.49727293048E+02 -0.66212165232E+02  0.33258381526E+02  0.89235499888E+02  0.00000000000E+00 0.  1.
         21    1    1    2  504  506 -0.98036586263E+02  0.31062144597E+02 -0.14064998594E+03  0.17423675737E+03  0.00000000000E+00 0.  1.
         21    1    1    2  505  503  0.65524202506E+02 -0.33586389997E+01  0.90579957423E+02  0.11184556431E+03  0.00000000000E+00 0.  1.
         21    1    1    2  506  501 -0.17214909291E+02  0.38508659635E+02  0.54448448367E+01  0.42531356716E+02  0.00000000000E+00 0.  1.
<scales pt_clust_3="95.77532" pt_clust_4="14000.00000" pt_clust_5="58.75449" pt_clust_6="42.18139"></scales>
<clustering>
<clus scale="   42.181">  1  6  2 -1</clus>
<clus scale="   58.754">  1  5  2 -1</clus>
<clus scale="   95.775">  1  3  2 -1</clus>
<clus scale="   42.181">  1  3  2 -1</clus>
</clustering>
</event>
<event>
 6    0  0.1438923E+002  0.9778947E+02  0.7546771E-02  0.1285014E+00
         21   -1    0    0  504  501  0.00000000000E+00  0.00000000000E+00  0.96566046584E+03  0.96566046584E+03  0.00000000000E+00 0. -1.
         21   -1    0    0  506  502 -0.00000000000E+00 -0.00000000000E+00 -0.46553953826E+02  0.46553953826E+02  0.00000000000E+00 0. -1.
         21    1    1    2  503  501  0.11348049662E+03 -0.13025630398E+02  0.50101262203E+03  0.51386879414E+03  0.00000000000E+00 0. -1.
         21    1    1    2  504  505 -0.21820514853E+02  0.44257361674E+02  0.28688914497E+03  0.29110175271E+03  0.00000000000E+00 0. -1.
         21    1    1    2  505  502 -0.16953249847E+02  0.40499903710E+02  0.81032027326E+02  0.92162054738E+02  0.00000000000E+00 0. -1.
         21    1    1    2  506  503 -0.74706731916E+02 -0.71731634985E+02  0.50172717691E+02  0.11508181808E+03  0.00000000000E+00 0. -1.
<scales pt_clust_3="97.78947" pt_clust_4="51.59625" pt_clust_5="43.90507" pt_clust_6="14000.00000"></scales>
<clustering>
<clus scale="   43.905">  2  5  1 -1</clus>
<clus scale="   51.596">  1  4  2 -1</clus>
<clus scale="   97.789">  1  3  2 -1</clus>
<clus scale="   51.596">  1  3  2 -1</clus>
</clustering>
</event>
<event>
 6    0  0.1438923E+002  0.1578180E+03  0.7546771E-02  0.1191182E+00
         21   -1    0    0  506  501  0.00000000000E+00  0.00000000000E+00  0.13842746374E+03  0.13842746374E+03  0.00000000000E+00 0.  1.
         21   -1    0    0  503  502 -0.00000000000E+00 -0.00000000000E+00 -0.78743702099E+03  0.78743702099E+03  0.00000000000E+00 0.  1.
         21    1    1    2  503  505 -0.60510791381E+02 -0.35691073588E+01  0.37641707391E+02  0.71352593059E+02  0.00000000000E+00 0.  1.
         21    1    1    2  504  501 -0.72777019661E+00  0.38059730999E+02 -0.62332117172E+01  0.38573639983E+02  0.00000000000E+00 0.  1.
         21    1    1    2  505  504 -0.79160606626E+02  0.30877812190E+02  0.29023144125E+02  0.89789664338E+02  0.00000000000E+00 0.  1.
         21    1    1    2  506  502  0.14039916820E+03 -0.65368435831E+02 -0.70944119705E+03  0.72614858735E+03  0.00000000000E+00 0.  1.
<scales pt_clust_3="30.08509" pt_clust_4="38.06669" pt_clust_5="30.08509" pt_clust_6="153.74580"></scales>
<clustering>
<clus scale="   30.085">  3  5 -1 -1</clus>
<clus scale="   38.067">  1  4  2 -1</clus>
<clus scale="  153.746">  2  6  1 -1</clus>
<clus scale="   38.067">  1  3  2 -1</clus>
</clustering>
</event>
<event>
 6    0  0.1438923E+002  0.1202564E+03  0.7546771E-02  0.1242675E+00
         21   -1    0    0  504  501  0.00000000000E+00  0.00000000000E+00  0.26225407975E+03  0.26225407975E+03  0.00000000000E+00 0. -1.
         21   -1    0    0  506  502 -0.00000000000E+00 -0.00000000000E+00 -0.31560728766E+03  0.31560728766E+03  0.00000000000E+00 0. -1.
         21    1    1    2  503  505 -0.18972096395E+02 -0.10606568156E+03  0.49077991456E+02  0.11839982472E+03  0.00000000000E+00 0. -1.
         21    1    1    2  504  503 -0.31155918802E+02  0.47321754611E+01  0.70121403363E+02  0.76877148560E+02  0.00000000000E+00 0. -1.
         21    1    1    2  505  502 -0.25351364451E+01  0.13909494779E+03  0.52266456966E+02  0.14861229405E+03  0.00000000000E+00 0. -1.
         21    1    1    2  506  501  0.52663151642E+02 -0.37761441689E+02 -0.22481905969E+03  0.23397210009E+03  0.00000000000E+00 0. -1.
<scales pt_clust_3="120.25636" pt_clust_4="31.51325" pt_clust_5="14000.00000" pt_clust_6="64.12245"></scales>
<clustering>
<clus scale="   31.513">  1  4  2 -1</clus>
<clus scale="   64.122">  2  6  1 -1</clus>
<clus scale="  120.256">  1  3  2 -1</clus>
<clus scale="   31.513">  1  3  2 -1</clus>
</clustering>
</event>
<event>
 6    0  0.1438923E+002  0.1414355E+03  0.7546771E-02  0.1211410E+00
         21   -1    0    0  504  501  0.00000000000E+00  0.00000000000E+00  0.22987350384E+04  0.22987350384E+04  0.00000000000E+00 0. -1.
         21   -1    0    0  505  502 -0.00000000000E+00 -0.00000000000E+00 -0.37592206341E+03  0.37592206341E+03  0.00000000000E+00 0. -1.
         21    1    1    2  503  502 -0.35738670529E+02  0.60506714791E+02  0.29721639470E+03  0.30541103514E+03  0.00000000000E+00 0. -1.
         21    1    1    2  504  503 -0.56087744607E+02  0.12315918272E+03  0.15299390253E+04  0.15359125758E+04  0.00000000000E+00 0. -1.
         21    1    1    2  505  506  0.33524640025E+02 -0.17296702404E+02 -0.35106436232E+03  0.35308534931E+03  0.00000000000E+00 0. -1.
         21    1    1    2  506  501  0.58301775111E+02 -0.16636919511E+03  0.44672191730E+03  0.48024814154E+03  0.00000000000E+00 0. -1.
<scales pt_clust_3="64.87665" pt_clust_4="14000.00000" pt_clust_5="37.72370" pt_clust_6="141.43549"></scales>
<clustering>
<clus scale="   37.724">  2  5  1 -1</clus>
<clus scale="   64.877">  2  3  1 -1</clus>
<clus scale="  141.435">  2  6  1 -1</clus>
<clus scale="  141.435">  1  3  2 -1</clus>
</clustering>
</event>
<event>
 6    0  0.1438923E+002  0.1104276E+03  0.7546771E-02  0.1259780E+00
         21   -1    0    0  506  501  0.00000000000E+00  0.00000000000E+00  0.19459974445E+03  0.19459974445E+03  0.00000000000E+00 0.  1.
         21   -1    0    0  504  502 -0.00000000000E+00 -0.00000000000E+00 -0.11682225757E+04  0.11682225757E+04  0.00000000000E+00 0.  1.
         21    1    1    2  503  505 -0.54333002810E+02 -0.77116140442E+02  0.80657737901E+01  0.94678566835E+02  0.00000000000E+00 0.  1.
         21    1    1    2  504  501  0.46091262392E+01  0.10049001467E+03 -0.20466226044E+03  0.22804852103E+03  0.00000000000E+00 0.  1.
         21    1    1    2  505  502  0.77677122196E+02 -0.70466368066E-01 -0.90434632477E+03  0.90767616219E+03  0.00000000000E+00 0.  1.
         21    1    1    2  506  503 -0.27953245626E+02 -0.23303407859E+02  0.12731998020E+03  0.13241907007E+03  0.00000000000E+00 0.  1.
<scales pt_clust_3="110.42763" pt_clust_4="14000.00000" pt_clust_5="76.96106" pt_clust_6="36.39276"></scales>
<clustering>
<clus scale="   36.393">  1  6  2 -1</clus>
<clus scale="   76.961">  2  5  1 -1</clus>
<clus scale="  110.428">  1  3  2 -1</clus>
<clus scale="   36.393">  1  3  2 -1</clus>
</clustering>
</event>
<event>
 6    0  0.1438923E+002  0.7668083E+02  0.7546771E-02  0.1338744E+00
         21   -1    0    0  504  501  0.00000000000E+00  0.00000000000E+00  0.10954293146E+03  0.10954293146E+03  0.00000000000E+00 0. -1.
         21   -1    0    0  503  502 -0.00000000000E+00 -0.00000000000E+00 -0.57689532111E+03  0.57689532111E+03  0.00000000000E+00 0. -1.
         21    1    1    2  503  506 -0.42458367867E+02 -0.65565028782E+02 -0.48868062793E+03  0.49488406937E+03  0.00000000000E+00 0. -1.
         21    1    1    2  504  502 -0.14642170596E+02  0.28138696409E+02 -0.23436633222E+02  0.39439259274E+02  0.00000000000E+00 0.  1.
         21    1    1    2  505  501 -0.34684776745E+02  0.40340737232E+02  0.21503790215E+02  0.57383114345E+02  0.00000000000E+00 0.  1.
         21    1    1    2  506  505  0.91785315208E+02 -0.29144048584E+01  0.23261081293E+02  0.94731809581E+02  0.00000000000E+00 0. -1.
<scales pt_clust_3="76.68083" pt_clust_4="31.72033" pt_clust_5="65.25843" pt_clust_6="14000.00000"></scales>
<clustering>
<clus scale="   31.720">  1  4  2 -1</clus>
<clus scale="   65.258">  1  5  2 -1</clus>
<clus scale="   76.681">  2  3  1 -1</clus>
<clus scale="   31.720">  1  3  2 -1</clus>
</clustering>
</event>
<event>
 6    0  0.1438923E+002  0.1516657E+03  0.7546771E-02  0.1198441E+00
         21   -1    0    0  506  501  0.00000000000E+00  0.00000000000E+00  0.59725202180E+03  0.59725202180E+03  0.00000000000E+00 0.  1.
         21   -1    0    0  505  502 -0.00000000000E+00 -0.00000000000E+00 -0.35958499467E+03  0.35958499467E+03  0.00000000000E+00 0.  1.
         21    1    1    2  503  502  0.11720074157E+03 -0.86373059162E+02 -0.31305444932E+03  0.34525267184E+03  0.00000000000E+00 0.  1.
         21    1    1    2  504  501 -0.50890080006E+02  0.28307434075E+02  0.48503634327E+02  0.75787291875E+02  0.00000000000E+00 0.  1.
         21    1    1    2  505  504 -0.10318477590E+02  0.66096002871E+02  0.59648503861E+02  0.89627543692E+02  0.00000000000E+00 0. -1.
         21    1    1    2  506  503 -0.55992183975E+02 -0.80303777838E+01  0.44256933827E+03  0.44616950906E+03  0.00000000000E+00 0.  1.
<scales pt_clust_3="141.40652" pt_clust_4="51.15966" pt_clust_5="51.15966" pt_clust_6="56.56511"></scales>
<clustering>
<clus scale="   51.160">  4  5 -1 -1</clus>
<clus scale="   56.565">  1  6  2 -1</clus>
<clus scale="  141.407">  2  3  1 -1</clus>
<clus scale="   56.565">  1  3  2 -1</clus>
</clustering>
</event>
<event>
 6    0  0.1438923E+002  0.1084445E+03  0.7546771E-02  0.1263478E+00
         21   -1    0    0  505  501  0.00000000000E+00  0.00000000000E+00  0.48031687826E+03  0.48031687826E+03  0.00000000000E+00 0. -1.
         21   -1    0    0  503  502 -0.00000000000E+00 -0.00000000000E+00 -0.20598195471E+04  0.20598195471E+04  0.00000000000E+00 0. -1.
         21    1    1    2  503  501  0.15370060815E+03 -0.19028832211E+02 -0.58113573022E+03  0.60141891418E+03  0.00000000000E+00 0. -1.
         21    1    1    2  504  506 -0.26271510630E+02  0.35600015702E+02 -0.39253598730E+02  0.59147260308E+02  0.00000000000E+00 0.  1.
         21    1    1    2  505  504 -0.97630752549E+02 -0.46650598117E+02  0.45354697443E+03  0.46627556248E+03  0.00000000000E+00 0. -1.
         21    1    1    2  506  502 -0.29798344972E+02  0.30079414626E+02 -0.14126603143E+04  0.14132946883E+04  0.00000000000E+00 0. -1.
<scales pt_clust_3="108.44455" pt_clust_4="47.43327" pt_clust_5="14000.00000" pt_clust_6="42.34044"></scales>
<clustering>
<clus scale="   42.340">  2  6  1 -1</clus>
<clus scale="   47.433">  2  4  1 -1</clus>
<clus scale="  108.445">  2  3  1 -1</clus>
<clus scale="  108.445">  1  3  2 -1</clus>
</clustering>
</event>
<event>
 6    0  0.1438923E+002  0.2276901E+03  0.7546771E-02  0.1128276E+00
         21   -1    0    0  506  501  0.00000000000E+00  0.00000000000E+00  0.11964734160E+04  0.11964734160E+04  0.00000000000E+00 0.  1.
         21   -1    0    0  504  502 -0.00000000000E+00 -0.00000000000E+00 -0.42137599807E+03  0.42137599807E+03  0.00000000000E+00 0. -1.
         21    1    1    2  503  501 -0.24699296803E+02 -0.23380661183E+03  0.10774793143E+04  0.11028314739E+04  0.00000000000E+00 0.  1.
         21    1    1    2  504  505  0.20148134144E+02  0.26800114606E+02 -0.26936523889E+03  0.27144396359E+03  0.00000000000E+00 0. -1.
         21    1    1    2  505  503  0.45042845446E+02  0.15553417553E+03 -0.60080543603E+02  0.17271192606E+03  0.00000000000E+00 0. -1.
         21    1    1    2  506  502 -0.40491682787E+02  0.51472321688E+02  0.27063886082E+02  0.70862050526E+02  0.00000000000E+00 0. -1.
<scales pt_clust_3="227.69012" pt_clust_4="33.52899" pt_clust_5="14000.00000" pt_clust_6="66.90400"></scales>
<clustering>
<clus scale="   33.529">  2  4  1 -1</clus>
<clus scale="   66.904">  2  6  1 -1</clus>
<clus scale="  227.690">  1  3  2 -1</clus>
<clus scale="  227.690">  1  3  2 -1</clus>
</clustering>
</event>
<event>
 6    0  0.1438923E+002  0.1072162E+03  0.7546771E-02  0.1265814E+00
         21   -1    0    0  506  501  0.00000000000E+00  0.00000000000E+00  0.49308268264E+02  0.49308268264E+02  0.00000000000E+00 0. -1.
         21   -1    0    0  501  502 -0.00000000000E+00 -0.00000000000E+00 -0.13136603611E+04  0.13136603611E+04  0.00000000000E+00 0. -1.
         21    1    1    2  503  502 -0.11677503478E+03  0.13716532177E+02 -0.10962423010E+04  0.11025296977E+04  0.00000000000E+00 0. -1.
         21    1    1    2  504  505  0.90686945350E+01 -0.41203446480E+02 -0.25112864246E+02  0.49098077081E+02  0.00000000000E+00 0. -1.
         21    1    1    2  505  503  0.77792245260E+02  0.10200223306E+02 -0.15584447288E+03  0.17447973437E+03  0.00000000000E+00 0. -1.
         21    1    1    2  506  504  0.29914094989E+02  0.17286690997E+02  0.12847545213E+02  0.36861120203E+02  0.00000000000E+00 0. -1.
<scales pt_clust_3="14000.00000" pt_clust_4="40.42918" pt_clust_5="107.21622" pt_clust_6="34.54971"></scales>
<clustering>
<clus scale="   34.550">  1  6  2 -1</clus>
<clus scale="   40.429">  1  4  2 -1</clus>
<clus scale="  107.216">  1  5  2 -1</clus>
<clus scale="   34.550">  1  3  2 -1</clus>
</clustering>
</event>
<event>
 6    0  0.1438923E+002  0.1228375E+03  0.7546771E-02  0.1238488E+00
         21   -1    0    0  506  501  0.00000000000E+00  0.00000000000E+00  0.37360187856E+02  0.37360187856E+02  0.00000000000E+00 0. -1.
         21   -1    0    0  504  502 -0.00000000000E+00 -0.00000000000E+00 -0.69711131492E+03  0.69711131492E+03  0.00000000000E+00 0. -1.
         21    1    1    2  503  502 -0.18980321381E+02 -0.28423304473E+02 -0.28093193560E+03  0.28300333792E+03  0.00000000000E+00 0. -1.
         21    1    1    2  504  505 -0.19661144475E+02  0.55030483041E+02 -0.15754836463E+03  0.16803690626E+03  0.00000000000E+00 0.  1.
         21    1    1    2  505  501 -0.45317539738E+02  0.46955236604E+02 -0.88814314352E+02  0.11021096173E+03  0.00000000000E+00 0. -1.
         21    1    1    2  506  503  0.83959005594E+02 -0.73562415172E+02 -0.13245651248E+03  0.17322029686E+03  0.00000000000E+00 0. -1.
<scales pt_clust_3="34.17802" pt_clust_4="41.17335" pt_clust_5="41.17335" pt_clust_6="113.95199"></scales>
<clustering>
<clus scale="   34.178">  2  3  1 -1</clus>
<clus scale="   41.173">  4  5 -1 -1</clus>
<clus scale="  113.952">  1  6  2 -1</clus>
<clus scale="  113.952">  1  3  2 -1</clus>
</clustering>
</event>
<event>
 6    0  0.1438923E+002  0.1941420E+03  0.7546771E-02  0.1154778E+00
         21   -1    0    0  503  501  0.00000000000E+00  0.00000000000E+00  0.14140301941E+04  0.14140301941E+04  0.00000000000E+00 0.  1.
         21   -1    0    0  504  502 -0.00000000000E+00 -0.00000000000E+00 -0.28571841473E+03  0.28571841473E+03  0.00000000000E+00 0.  1.
         21    1    1    2  503  506 -0.10702571041E+02  0.48921788037E+02  0.22011912469E+03  0.22574391559E+03  0.00000000000E+00 0. -1.
         21    1    1    2  504  501  0.12949494285E+03 -0.19280975003E+03  0.90159644497E+03  0.93103205611E+03  0.00000000000E+00 0.  1.
         21    1    1    2  505  502  0.15865353445E+02  0.25648487250E+02 -0.23791792007E+03  0.23982179015E+03  0.00000000000E+00 0.  1.
         21    1    1    2  506  505 -0.13465772526E+03  0.11823947474E+03  0.24451412976E+03  0.30315084695E+03  0.00000000000E+00 0.  1.
<scales pt_clust_3="51.39484" pt_clust_4="194.14201" pt_clust_5="30.15882" pt_clust_6="14000.00000"></scales>
<clustering>
<clus scale="   30.159">  2  5  1 -1</clus>
<clus scale="   51.395">  1  3  2 -1</clus>
<clus scale="  194.142">  1  4  2 -1</clus>
<clus scale="   51.395">  1  3  2 -1</clus>
</clustering>
</event>
<event>
 6    0  0.1438923E+002  0.3289130E+03  0.7546771E-02  0.1071619E+00
         21   -1    0    0  504  501  0.00000000000E+00  0.00000000000E+00  0.23755702273E+03  0.23755702273E+03  0.00000000000E+00 0.  1.
         21   -1    0    0  506  502 -0.00000000000E+00 -0.00000000000E+00 -0.10470878920E+04  0.10470878920E+04  0.00000000000E+00 0.  1.
         21    1    1    2  503  505 -0.28766448993E+03 -0.27364889584E+02 -0.39766925317E+03  0.49156945681E+03  0.00000000000E+00 0.  1.
         21    1    1    2  504  502  0.17399485429E+02  0.25057937314E+02 -0.32378370146E+03  0.32521766196E+03  0.00000000000E+00 0.  1.
         21    1    1    2  505  501  0.31131728410E+03  0.12834387077E+02  0.56968301054E+02  0.31674683929E+03  0.00000000000E+00 0.  1.
         21    1    1    2  506  503 -0.41052279596E+02 -0.10527434808E+02 -0.14504621570E+03  0.15111095669E+03  0.00000000000E+00 0. -1.
<scales pt_clust_3="35.07961" pt_clust_4="30.50643" pt_clust_5="314.92261" pt_clust_6="35.07961"></scales>
<clustering>
<clus scale="   30.506">  2  4  1 -1</clus>
<clus scale="   35.080">  3  6 -1 -1</clus>
<clus scale="  314.923">  1  5  2 -1</clus>
<clus scale="  314.923">  1  3  2 -1</clus>
</clustering>
</event>
<event>
 6    0  0.1438923E+002  0.1399752E+03  0.7546771E-02  0.1213362E+00
         21   -1    0    0  505  501  0.00000000000E+00  0.00000000000E+00  0.72978789727E+03  0.72978789727E+03  0.00000000000E+00 0.  1.
         21   -1    0    0  504  502 -0.00000000000E+00 -0.00000000000E+00 -0.33654424082E+03  0.33654424082E+03  0.00000000000E+00 0. -1.
         21    1    1    2  503  501  0.55001354261E+01  0.59161502909E+02  0.33357132609E+03  0.33882172969E+03  0.00000000000E+00 0.  1.
         21    1    1    2  504  506  0.34222303796E+02 -0.67187539394E+02 -0.29525531980E+03  0.30473108702E+03  0.00000000000E+00 0. -1.
         21    1    1    2  505  502 -0.40192014845E+01 -0.64470662068E+02  0.62932750016E+01  0.64901660675E+02  0.00000000000E+00 0. -1.
         21    1    1    2  506  503 -0.35703237738E+02  0.72496698554E+02  0.34863437516E+03  0.35787766070E+03  0.00000000000E+00 0.  1.
<scales pt_clust_3="35.76072" pt_clust_4="133.61789" pt_clust_5="64.59582" pt_clust_6="35.76072"></scales>
<clustering>
<clus scale="   35.761">  3  6 -1 -1</clus>
<clus scale="   64.596">  2  5  1 -1</clus>
<clus scale="  133.618">  2  4  1 -1</clus>
<clus scale="  139.975">  1  3  2 -1</clus>
</clustering>
</event>
<event>
 6    0  0.1438923E+002  0.8762012E+02  0.7546771E-02  0.1308719E+00
         21   -1    0    0  505  501  0.00000000000E+00  0.00000000000E+00  0.91697622138E+03  0.91697622138E+03  0.00000000000E+00 0. -1.
         21   -1    0    0  503  502 -0.00000000000E+00 -0.00000000000E+00 -0.47207300796E+03  0.47207300796E+03  0.00000000000E+00 0. -1.
         21    1    1    2  503  504 -0.67351530440E+02 -0.44529439759E+02 -0.40668771141E+03  0.41462512499E+03  0.00000000000E+00 0. -1.
         21    1    1    2  504  501  0.49887775443E+02 -0.72018794220E+02  0.83725660624E+03  0.84182784556E+03  0.00000000000E+00 0. -1.
         21    1    1    2  505  506 -0.79223754638E+01  0.10041418851E+03  0.17906857136E+02  0.10230556593E+03  0.00000000000E+00 0.  1.
         21    1    1    2  506  502  0.25386130460E+02  0.16134045470E+02 -0.35725385471E+01  0.30290692872E+02  0.00000000000E+00 0. -1.
<scales pt_clust_3="53.60822" pt_clust_4="14000.00000" pt_clust_5="87.62012" pt_clust_6="30.07928"></scales>
<clustering>
<clus scale="   30.079">  2  6  1 -1</clus>
<clus scale="   53.608">  2  3  1 -1</clus>
<clus scale="   87.620">  2  5  1 -1</clus>
<clus scale="   87.620">  1  3  2 -1</clus>
</clustering>
</event>
<event>
 6    0  0.1438923E+002  0.1357308E+03  0.7546771E-02  0.1219192E+00
         21   -1    0    0  505  501  0.00000000000E+00  0.00000000000E+00  0.18271765387E+03  0.18271765387E+03  0.00000000000E+00 0.  1.
         21   -1    0    0  504  502 -0.00000000000E+00 -0.00000000000E+00 -0.13786684176E+04  0.13786684176E+04  0.00000000000E+00 0. -1.
         21    1    1    2  503  506  0.67658669951E+01  0.64130393982E+02 -0.80812635204E+02  0.10338842487E+03  0.00000000000E+00 0.  1.
         21    1    1    2  504  503 -0.11999814936E+03  0.64013902903E+02 -0.12280736774E+04  0.12355817628E+04  0.00000000000E+00 0. -1.
         21    1    1    2  505  502  0.10060537284E+03 -0.77675435390E+02  0.11347844048E+03  0.17038858753E+03  0.00000000000E+00 0.  1.
         21    1    1    2  506  501  0.12626909530E+02 -0.50468861495E+02 -0.54289166380E+00  0.52027296261E+02  0.00000000000E+00 0.  1.
<scales pt_clust_3="60.98597" pt_clust_4="135.73080" pt_clust_5="14000.00000" pt_clust_6="52.02446"></scales>
<clustering>
<clus scale="   52.024">  1  6  2 -1</clus>
<clus scale="   60.986">  1  3  2 -1</clus>
<clus scale="  135.731">  2  4  1 -1</clus>
<clus scale="   52.024">  1  3  2 -1</clus>
</clustering>
</event>
<event>
 6    0  0.1438923E+002  0.3527886E+03  0.7546771E-02  0.1061476E+00
         21   -1    0    0  505  501  0.00000000000E+00  0.00000000000E+00  0.12767548583E+04  0.12767548583E+04  0.00000000000E+00 0.  1.
         21   -1    0    0  503  502 -0.00000000000E+00 -0.00000000000E+00 -0.25459592268E+03  0.25459592268E+03  0.00000000000E+00 0.  1.
         21    1    1    2  503  504 -0.33553837308E+03  0.15431422017E+03 -0.31205112152E+02  0.37063814885E+03  0.00000000000E+00 0.  1.
         21    1    1    2  504  501  0.17193844986E+02  0.32840088488E+02  0.13344431528E+03  0.13849723823E+03  0.00000000000E+00 0. -1.
         21    1    1    2  505  506  0.53870885834E+02 -0.30672315943E+02  0.48918900533E+03  0.49310115214E+03  0.00000000000E+00 0.  1.
         21    1    1    2  506  502  0.26447364226E+03 -0.15648199272E+03  0.43073072712E+03  0.52911424171E+03  0.00000000000E+00 0.  1.
<scales pt_clust_3="352.78860" pt_clust_4="37.06885" pt_clust_5="63.46486" pt_clust_6="14000.00000"></scales>
<clustering>
<clus scale="   37.069">  1  4  2 -1</clus>
<clus scale="   63.465">  1  5  2 -1</clus>
<clus scale="  352.789">  2  3  1 -1</clus>
<clus scale="   37.069">  1  3  2 -1</clus>
</clustering>
</event>
<event>
 6    0  0.1438923E+002  0.1475919E+03  0.7546771E-02  0.1203464E+00
         21   -1    0    0  503  501  0.00000000000E+00  0.00000000000E+00  0.61632075613E+03  0.61632075613E+03  0.00000000000E+00 0. -1.
         21   -1    0    0  506  502 -0.00000000000E+00 -0.00000000000E+00 -0.49503647052E+02  0.49503647052E+02  0.00000000000E+00 0. -1.
         21    1    1    2  503  504 -0.18245453882E+02  0.26843869621E+02  0.13746544348E+03  0.14124531169E+03  0.00000000000E+00 0. -1.
         21    1    1    2  504  505 -0.10096337189E+03 -0.20942537346E+01  0.11581756832E+03  0.15366098233E+03  0.00000000000E+00 0. -1.
         21    1    1    2  505  502 -0.29659161508E+02 -0.28060183329E+02  0.30014830301E+02  0.50674745069E+02  0.00000000000E+00 0. -1.
         21    1    1    2  506  501  0.14886798728E+03  0.33105674421E+01  0.28351926697E+03  0.32024336408E+03  0.00000000000E+00 0. -1.
<scales pt_clust_3="32.45751" pt_clust_4="31.88458" pt_clust_5="31.88458" pt_clust_6="138.81251"></scales>
<clustering>
<clus scale="   31.885">  4  5 -1 -1</clus>
<clus scale="   32.458">  1  3  2 -1</clus>
<clus scale="  138.813">  1  6  2 -1</clus>
<clus scale="   32.458">  1  3  2 -1</clus>
</clustering>
</event>
<event>
 6    0  0.1438923E+002  0.1592198E+03  0.7546771E-02  0.1189580E+00
         21   -1    0    0  506  501  0.00000000000E+00  0.00000000000E+00  0.11224981659E+04  0.11224981659E+04  0.00000000000E+00 0.  1.
         21   -1    0    0  504  502 -0.00000000000E+00 -0.00000000000E+00 -0.60556965476E+02  0.60556965476E+02  0.00000000000E+00 0.  1.
         21    1    1    2  503  502 -0.10128792507E+03 -0.12520205087E+03  0.89561101105E+02  0.18427150658E+03  0.00000000000E+00 0.  1.
         21    1    1    2  504  501 -0.14433781759E+02  0.82652093271E+02  0.22811631658E+03  0.24305710536E+03  0.00000000000E+00 0.  1.
         21    1    1    2  505  503  0.85747172511E+02  0.91443642796E+01  0.48497226369E+03  0.49257922565E+03  0.00000000000E+00 0.  1.
         21    1    1    2  506  505  0.29974534315E+02  0.33405593324E+02  0.25929151910E+03  0.26314729383E+03  0.00000000000E+00 0.  1.
<scales pt_clust_3="152.83635" pt_clust_4="83.90294" pt_clust_5="32.19895" pt_clust_6="32.19895"></scales>
<clustering>
<clus scale="   32.199">  5  6 -1 -1</clus>
<clus scale="   83.903">  1  4  2 -1</clus>
<clus scale="  152.836">  2  3  1 -1</clus>
<clus scale="   83.903">  1  3  2 -1</clus>
</clustering>
</event>
<event>
 6    0  0.1438923E+002  0.8369016E+02  0.7546771E-02  0.1318894E+00
         21   -1    0    0  505  501  0.00000000000E+00  0.00000000000E+00  0.28354934970E+02  0.28354934970E+02  0.00000000000E+00 0.  1.
         21   -1    0    0  504  502 -0.00000000000E+00 -0.00000000000E+00 -0.15680128152E+04  0.15680128152E+04  0.00000000000E+00 0.  1.
         21    1    1    2  503  506 -0.12542110071E+03 -0.49065372400E+02 -0.50418722583E+03  0.52186456285E+03  0.00000000000E+00 0.  1.
         21    1    1    2  504  503  0.50738816025E+02  0.21077915385E+02 -0.86231401890E+03  0.86406259794E+03  0.00000000000E+00 0.  1.
         21    1    1    2  505  502  0.41581560058E+02 -0.10162068256E+02 -0.14790011268E+03  0.15396992271E+03  0.00000000000E+00 0.  1.
         21    1    1    2  506  501  0.33100724630E+02  0.38149525271E+02 -0.25256522829E+02  0.56470666676E+02  0.00000000000E+00 0.  1.
<scales pt_clust_3="83.69016" pt_clust_4="56.14089" pt_clust_5="42.80530" pt_clust_6="14000.00000"></scales>
<clustering>
<clus scale="   42.805">  1  5  2 -1</clus>
<clus scale="   56.141">  2  4  1 -1</clus>
<clus scale="   83.690">  2  3  1 -1</clus>
<clus scale="   42.805">  1  3  2 -1</clus>
</clustering>
</event>
<event>
 6    0  0.1438923E+002  0.3318716E+03  0.7546771E-02  0.1070312E+00
         21   -1    0    0  502  501  0.00000000000E+00  0.00000000000E+00  0.57243936582E+03  0.57243936582E+03  0.00000000000E+00 0. -1.
         21   -1    0    0  504  502 -0.00000000000E+00 -0.00000000000E+00 -0.20009615353E+03  0.20009615353E+03  0.00000000000E+00 0. -1.
         21    1    1    2  503  506 -0.18177011225E+03  0.24112914862E+02  0.11799872467E+03  0.21804931872E+03  0.00000000000E+00 0. -1.
         21    1    1    2  504  503  0.30604426939E+03 -0.47677852230E+02  0.57395625106E+02  0.31500877797E+03  0.00000000000E+00 0. -1.
         21    1    1    2  505  501 -0.38615065692E+02 -0.14263194814E+02  0.76923723110E+02  0.87245751769E+02  0.00000000000E+00 0. -1.
         21    1    1    2  506  505 -0.85659091447E+02  0.37828132182E+02  0.12002513941E+03  0.15223167089E+03  0.00000000000E+00 0. -1.
<scales pt_clust_3="77.53596" pt_clust_4="309.73581" pt_clust_5="33.55492" pt_clust_6="77.53596"></scales>
<clustering>
<clus scale="   33.555">  5  6 -1 -1</clus>
<clus scale="   77.536">  3  5 -1 -1</clus>
<clus scale="  309.736">  2  4  1 -1</clus>
<clus scale="  331.872">  1  3  2 -1</clus>
</clustering>
</event>
<event>
 6    0  0.1438923E+002  0.2306321E+03  0.7546771E-02  0.1126196E+00
         21   -1    0    0  504  501  0.00000000000E+00  0.00000000000E+00  0.59321363029E+03  0.59321363029E+03  0.00000000000E+00 0.  1.
         21   -1    0    0  505  502 -0.00000000000E+00 -0.00000000000E+00 -0.59997374056E+03  0.59997374056E+03  0.00000000000E+00 0. -1.
         21    1    1    2  503  501 -0.21237576359E+03 -0.37325376377E+02  0.54049557279E+03  0.58192105383E+03  0.00000000000E+00 0.  1.
         21    1    1    2  504  502  0.14940914607E+02 -0.27435496683E+02 -0.16540934112E+02  0.35348831789E+02  0.00000000000E+00 0.  1.
         21    1    1    2  505  506  0.40674814878E+02 -0.91420348115E+01 -0.17941046345E+03  0.18419047684E+03  0.00000000000E+00 0. -1.
         21    1    1    2  506  503  0.15676003410E+03  0.73902907872E+02 -0.35130428551E+03  0.39172700839E+03  0.00000000000E+00 0. -1.
<scales pt_clust_3="215.27385" pt_clust_4="31.24000" pt_clust_5="43.61189" pt_clust_6="43.61189"></scales>
<clustering>
<clus scale="   31.240">  2  4  1 -1</clus>
<clus scale="   43.612">  5  6 -1 -1</clus>
<clus scale="  215.274">  1  3  2 -1</clus>
<clus scale="  215.274">  1  3  2 -1</clus>
</clustering>
</event>
<event>
 6    0  0.1438923E+002  0.1147588E+03  0.7546771E-02  0.1252003E+00
         21   -1    0    0  505  501  0.00000000000E+00  0.00000000000E+00  0.61391186847E+03  0.61391186847E+03  0.00000000000E+00 0.  1.
         21   -1    0    0  506  502 -0.00000000000E+00 -0.00000000000E+00 -0.55693774416E+02  0.55693774416E+02  0.00000000000E+00 0.  1.
         21    1    1    2  503  502 -0.33143630005E+02  0.17368186529E+02 -0.24163609303E+02  0.44542497996E+02  0.00000000000E+00 0.  1.
         21    1    1    2  504  503  0.16668349577E+02 -0.65527843103E+02  0.15182372409E+03  0.16619920366E+03  0.00000000000E+00 0.  1.
         21    1    1    2  505  504 -0.71830699434E+01 -0.52090003749E+02  0.19087309669E+03  0.19798359534E+03  0.00000000000E+00 0.  1.
         21    1    1    2  506  501  0.23658350371E+02  0.10024966032E+03  0.23968488257E+03  0.26088034589E+03  0.00000000000E+00 0.  1.
<scales pt_clust_3="37.41863" pt_clust_4="31.35365" pt_clust_5="31.35365" pt_clust_6="109.11241"></scales>
<clustering>
<clus scale="   31.354">  4  5 -1 -1</clus>
<clus scale="   37.419">  2  3  1 -1</clus>
<clus scale="  109.112">  2  6  1 -1</clus>
<clus scale="  114.759">  1  3  2 -1</clus>
</clustering>
</event>
<event>
 6    0  0.1438923E+002  0.1193700E+03  0.7546771E-02  0.1244140E+00
         21   -1    0    0  506  501  0.00000000000E+00  0.00000000000E+00  0.30165696292E+03  0.30165696292E+03  0.00000000000E+00 0.  1.
         21   -1    0    0  504  502 -0.00000000000E+00 -0.00000000000E+00 -0.11290927696E+03  0.11290927696E+03  0.00000000000E+00 0.  1.
         21    1    1    2  503  502  0.34890593494E+02  0.81772331500E+01  0.18724162388E+02  0.40432844489E+02  0.00000000000E+00 0.  1.
         21    1    1    2  504  505 -0.10409033756E+03  0.29620597054E-03 -0.35518840192E+02  0.10998357324E+03  0.00000000000E+00 0.  1.
         21    1    1    2  505  501 -0.25164283213E+02 -0.47367541718E+02  0.31144228996E+02  0.62023287221E+02  0.00000000000E+00 0.  1.
         21    1    1    2  506  503  0.94364027280E+02  0.39190012362E+02  0.17439813477E+03  0.20212653493E+03  0.00000000000E+00 0.  1.
<scales pt_clust_3="30.12989" pt_clust_4="107.98506" pt_clust_5="53.63698" pt_clust_6="30.12989"></scales>
<clustering>
<clus scale="   30.130">  3  6 -1 -1</clus>
<clus scale="   53.637">  1  5  2 -1</clus>
<clus scale="  107.985">  2  4  1 -1</clus>
<clus scale="   53.637">  1  3  2 -1</clus>
</clustering>
</event>
<event>
 6    0  0.1438923E+002  0.1067754E+03  0.7546771E-02  0.1266661E+00
         21   -1    0    0  503  501  0.00000000000E+00  0.00000000000E+00  0.42967308115E+03  0.42967308115E+03  0.00000000000E+00 0. -1.
         21   -1    0    0  505  502 -0.00000000000E+00 -0.00000000000E+00 -0.18281798315E+03  0.18281798315E+03  0.00000000000E+00 0.  1.
         21    1    1    2  503  502  0.58740955625E+02 -0.54266680301E+01  0.21422757295E+03  0.22220126374E+03  0.00000000000E+00 0. -1.
         21    1    1    2  504  501  0.41201587885E+02  0.34581812872E+02  0.68916383116E+02  0.87423912562E+02  0.00000000000E+00 0. -1.
         21    1    1    2  505  506 -0.34637786284E+02 -0.11041505182E+03 -0.12181844592E+03  0.16802081321E+03  0.00000000000E+00 0.  1.
         21    1    1    2  506  504 -0.65304757226E+02  0.81259906974E+02  0.85529587856E+02  0.13484507480E+03  0.00000000000E+00 0.  1.
<scales pt_clust_3="85.83150" pt_clust_4="53.79101" pt_clust_5="106.77541" pt_clust_6="14000.00000"></scales>
<clustering>
<clus scale="   53.791">  1  4  2 -1</clus>
<clus scale="   85.831">  1  3  2 -1</clus>
<clus scale="  106.775">  2  5  1 -1</clus>
<clus scale="   53.791">  1  3  2 -1</clus>
</clustering>
</event>
<event>
 6    0  0.1438923E+002  0.2431386E+03  0.7546771E-02  0.1117719E+00
         21   -1    0    0  506  501  0.00000000000E+00  0.00000000000E+00  0.18535718425E+04  0.18535718425E+04  0.00000000000E+00 0. -1.
         21   -1    0    0  503  502 -0.00000000000E+00 -0.00000000000E+00 -0.18121793492E+03  0.18121793492E+03  0.00000000000E+00 0. -1.
         21    1    1    2  503  501  0.14054469426E+03  0.14823479631E+03  0.46188145603E+03  0.50503548920E+03  0.00000000000E+00 0. -1.
         21    1    1    2  504  505 -0.14539159259E+03 -0.16279925230E+03  0.10707249116E+04  0.10927461499E+04  0.00000000000E+00 0. -1.
         21    1    1    2  505  502  0.37706896537E+02  0.14552075240E+02 -0.14491985901E+03  0.15045045189E+03  0.00000000000E+00 0. -1.
         21    1    1    2  506  504 -0.32859998205E+02  0.12380748596E-01  0.28466739888E+03  0.28655768637E+03  0.00000000000E+00 0. -1.
<scales pt_clust_3="228.03250" pt_clust_4="32.73416" pt_clust_5="40.41748" pt_clust_6="32.73416"></scales>
<clustering>
<clus scale="   32.734">  4  6 -1 -1</clus>
<clus scale="   40.417">  2  5  1 -1</clus>
<clus scale="  228.033">  2  3  1 -1</clus>
<clus scale="  243.139">  1  3  2 -1</clus>
</clustering>
</event>
<event>
 6    0  0.1438923E+002  0.2524348E+03  0.7546771E-02  0.1111776E+00
         21   -1    0    0  506  501  0.00000000000E+00  0.00000000000E+00  0.75882233425E+03  0.75882233425E+03  0.00000000000E+00 0. -1.
         21   -1    0    0  503  502 -0.00000000000E+00 -0.00000000000E+00 -0.16551879491E+04  0.16551879491E+04  0.00000000000E+00 0.  1.
         21    1    1    2  503  504 -0.21948673507E+03 -0.23295689856E+03 -0.65091980361E+02  0.32661951773E+03  0.00000000000E+00 0.  1.
         21    1    1    2  504  501  0.13097362241E+03  0.15114622392E+03  0.58156060308E+03  0.61498943554E+03  0.00000000000E+00 0. -1.
         21    1    1    2  505  502  0.26302210845E+02  0.82561858889E+02 -0.14072726650E+04  0.14099378073E+04  0.00000000000E+00 0.  1.
         21    1    1    2  506  505  0.62210901817E+02 -0.75118424901E+00 -0.55615725364E+01  0.62463522729E+02  0.00000000000E+00 0.  1.
<scales pt_clust_3="14000.00000" pt_clust_4="252.43481" pt_clust_5="86.68347" pt_clust_6="62.21544"></scales>
<clustering>
<clus scale="   62.215">  1  6  2 -1</clus>
<clus scale="   86.683">  2  5  1 -1</clus>
<clus scale="  252.435">  1  4  2 -1</clus>
<clus scale="   62.215">  1  3  2 -1</clus>
</clustering>
</event>
<event>
 6    0  0.1438923E+002  0.2364595E+03  0.7546771E-02  0.1122174E+00
         21   -1    0    0  504  501  0.00000000000E+00  0.00000000000E+00  0.11672001986E+04  0.11672001986E+04  0.00000000000E+00 0.  1.
         21   -1    0    0  505  502 -0.00000000000E+00 -0.00000000000E+00 -0.22047801659E+03  0.22047801659E+03  0.00000000000E+00 0.  1.
         21    1    1    2  503  502 -0.18878192569E+03  0.13364355411E+03 -0.11126593972E+03  0.25666967948E+03  0.00000000000E+00 0.  1.
         21    1    1    2  504  503 -0.79786910840E+01  0.58216198243E+02  0.14098899821E+03  0.15274384723E+03  0.00000000000E+00 0. -1.
         21    1    1    2  505  506  0.22684749652E+03 -0.19943872853E+03  0.87753530215E+03  0.92806454497E+03  0.00000000000E+00 0.  1.
         21    1    1    2  506  501 -0.30086879744E+02  0.75789761767E+01  0.39463821404E+02  0.50200143549E+02  0.00000000000E+00 0. -1.
<scales pt_clust_3="14000.00000" pt_clust_4="60.39506" pt_clust_5="236.45949" pt_clust_6="31.02678"></scales>
<clustering>
<clus scale="   31.027">  1  6  2 -1</clus>
<clus scale="   60.395">  1  4  2 -1</clus>
<clus scale="  236.459">  1  5  2 -1</clus>
<clus scale="   31.027">  1  3  2 -1</clus>
</clustering>
</event>
<event>
 6    0  0.1438923E+002  0.1096751E+03  0.7546771E-02  0.1261173E+00
         21   -1    0    0  505  501  0.00000000000E+00  0.00000000000E+00  0.92890319140E+03  0.92890319140E+03  0.00000000000E+00 0. -1.
         21   -1    0    0  506  502 -0.00000000000E+00 -0.00000000000E+00 -0.25688294802E+02  0.25688294802E+02  0.00000000000E+00 0. -1.
         21    1    1    2  503  502 -0.26384758368E+01  0.77946474323E+02  0.17725103869E+03  0.19365057483E+03  0.00000000000E+00 0. -1.
         21    1    1    2  504  501 -0.55192556948E+02 -0.25571206462E+02  0.14953944801E+03  0.16143776340E+03  0.00000000000E+00 0. -1.
         21    1    1    2  505  503  0.95552467891E+02 -0.68519908370E+02  0.48886976943E+03  0.50281100169E+03  0.00000000000E+00 0. -1.
         21    1    1    2  506  504 -0.37721435106E+02  0.16144640510E+02  0.87554640475E+02  0.96692146280E+02  0.00000000000E+00 0. -1.
<scales pt_clust_3="77.99112" pt_clust_4="33.81907" pt_clust_5="101.65158" pt_clust_6="33.81907"></scales>
<clustering>
<clus scale="   33.819">  4  6 -1 -1</clus>
<clus scale="   77.991">  2  3  1 -1</clus>
<clus scale="  101.652">  1  5  2 -1</clus>
<clus scale="  101.652">  1  3  2 -1</clus>
</clustering>
</event>
<event>
 6    0  0.1438923E+002  0.1077689E+03  0.7546771E-02  0.1264758E+00
         21   -1    0    0  504  501  0.00000000000E+00  0.00000000000E+00  0.34702374491E+04  0.34702374491E+04  0.00000000000E+00 0.  1.
         21   -1    0    0  506  502 -0.00000000000E+00 -0.00000000000E+00 -0.41280097582E+03  0.41280097582E+03  0.00000000000E+00 0. -1.
         21    1    1    2  503  505  0.62985686177E+02 -0.81679130011E+02  0.42549443360E+03  0.43781753045E+03  0.00000000000E+00 0. -1.
         21    1    1    2  504  502 -0.41182879720E+02  0.80192719286E+02 -0.39583850364E+03  0.40597416515E+03  0.00000000000E+00 0. -1.
         21    1    1    2  505  501 -0.44986452199E+02  0.30113743831E+02  0.29714337772E+04  0.29719268684E+04  0.00000000000E+00 0.  1.
         21    1    1    2  506  503  0.23183645743E+02 -0.28627333106E+02  0.56346766088E+02  0.67319860957E+02  0.00000000000E+00 0. -1.
<scales pt_clust_3="34.84769" pt_clust_4="90.63092" pt_clust_5="54.13519" pt_clust_6="34.84769"></scales>
<clustering>
<clus scale="   34.848">  3  6 -1 -1</clus>
<clus scale="   54.135">  1  5  2 -1</clus>
<clus scale="   90.631">  2  4  1 -1</clus>
<clus scale="   54.135">  1  3  2 -1</clus>
</clustering>
</event>
<event>
 6    0  0.1438923E+002  0.1121745E+03  0.7546771E-02  0.1256595E+00
         21   -1    0    0  506  501  0.00000000000E+00  0.00000000000E+00  0.65154435711E+03  0.65154435711E+03  0.00000000000E+00 0.  1.
         21   -1    0    0  505  502 -0.00000000000E+00 -0.00000000000E+00 -0.81303335359E+03  0.81303335359E+03  0.00000000000E+00 0.  1.
         21    1    1    2  503  502 -0.51323534615E+02  0.10025663046E+03 -0.77369915863E+03  0.78185413295E+03  0.00000000000E+00 0.  1.
         21    1    1    2  504  501 -0.62127495099E+02 -0.32956558314E+01  0.28404280937E+03  0.29077655433E+03  0.00000000000E+00 0.  1.
         21    1    1    2  505  504 -0.17439380600E+02 -0.72636851218E+02  0.74693840288E+02  0.10563812724E+03  0.00000000000E+00 0. -1.
         21    1    1    2  506  503  0.13089041031E+03 -0.24324123412E+02  0.25347351249E+03  0.28630889617E+03  0.00000000000E+00 0.  1.
<scales pt_clust_3="14000.00000" pt_clust_4="62.21485" pt_clust_5="80.45305" pt_clust_6="112.17455"></scales>
<clustering>
<clus scale="   62.215">  1  4  2 -1</clus>
<clus scale="   80.453">  1  5  2 -1</clus>
<clus scale="  112.175">  1  6  2 -1</clus>
<clus scale="   62.215">  1  3  2 -1</clus>
</clustering>
</event>
<event>
 6    0  0.1438923E+002  0.7091987E+02  0.7546771E-02  0.1356993E+00
         21   -1    0    0  505  501  0.00000000000E+00  0.00000000000E+00  0.68211280961E+03  0.68211280961E+03  0.00000000000E+00 0.  1.
         21   -1    0    0  504  502 -0.00000000000E+00 -0.00000000000E+00 -0.19600179838E+03  0.19600179838E+03  0.00000000000E+00 0.  1.
         21    1    1    2  503  506 -0.15336488132E+02  0.49946204999E+02  0.16567102075E+03  0.17371447371E+03  0.00000000000E+00 0. -1.
         21    1    1    2  504  501 -0.31020516042E+02  0.20502313475E+02  0.46173176628E+02  0.59283889155E+02  0.00000000000E+00 0. -1.
         21    1    1    2  505  503  0.96685228428E+02 -0.63882457832E+02  0.44871359788E+03  0.46343596616E+03  0.00000000000E+00 0.  1.
         21    1    1    2  506  502 -0.50328224254E+02 -0.65660606416E+01 -0.17444678402E+03  0.18168027896E+03  0.00000000000E+00 0.  1.
<scales pt_clust_3="14000.00000" pt_clust_4="37.18356" pt_clust_5="70.91987" pt_clust_6="50.91645"></scales>
<clustering>
<clus scale="   37.184">  1  4  2 -1</clus>
<clus scale="   50.916">  2  6  1 -1</clus>
<clus scale="   70.920">  1  5  2 -1</clus>
<clus scale="   37.184">  1  3  2 -1</clus>
</clustering>
</event>
<event>
 6    0  0.1438923E+002  0.3265731E+03  0.7546771E-02  0.1072663E+00
         21   -1    0    0  506  501  0.00000000000E+00  0.00000000000E+00  0.52835943518E+03  0.52835943518E+03  0.00000000000E+00 0.  1.
         21   -1    0    0  503  502 -0.00000000000E+00 -0.00000000000E+00 -0.55907921663E+03  0.55907921663E+03  0.00000000000E+00 0. -1.
         21    1    1    2  503  504 -0.10821766872E+02  0.37968750147E+02 -0.30421031570E+03  0.30676155692E+03  0.00000000000E+00 0. -1.
         21    1    1    2  504  505  0.87680043594E+02 -0.60678479644E+02  0.87898357457E+02  0.13818751456E+03  0.00000000000E+00 0.  1.
         21    1    1    2  505  501  0.13067448491E+03 -0.18672168086E+03  0.25250963737E+03  0.34014985532E+03  0.00000000000E+00 0.  1.
         21    1    1    2  506  502 -0.20753276163E+03  0.20943141036E+03 -0.66917460574E+02  0.30233972502E+03  0.00000000000E+00 0. -1.
<scales pt_clust_3="39.48084" pt_clust_4="43.49834" pt_clust_5="43.49834" pt_clust_6="320.32247"></scales>
<clustering>
<clus scale="   39.481">  2  3  1 -1</clus>
<clus scale="   43.498">  4  5 -1 -1</clus>
<clus scale="  320.322">  2  6  1 -1</clus>
<clus scale="  326.573">  1  3  2 -1</clus>
</clustering>
</event>
<event>
 6    0  0.1438923E+002  0.1742682E+03  0.7546771E-02  0.1173469E+00
         21   -1    0    0  504  501  0.00000000000E+00  0.00000000000E+00  0.16150257361E+04  0.16150257361E+04  0.00000000000E+00 0. -1.
         21   -1    0    0  503  502 -0.00000000000E+00 -0.00000000000E+00 -0.29334223871E+02  0.29334223871E+02  0.00000000000E+00 0. -1.
         21    1    1    2  503  506  0.58409021311E+02 -0.14621883515E+02  0.25052628218E+03  0.25766030216E+03  0.00000000000E+00 0. -1.
         21    1    1    2  504  505 -0.98089149023E+01  0.28826295580E+02  0.22210418454E+03  0.22418170960E+03  0.00000000000E+00 0. -1.
         21    1    1    2  505  502 -0.16533837975E+03 -0.15858097682E+02  0.31639935719E+03  0.35734690751E+03  0.00000000000E+00 0. -1.
         21    1    1    2  506  501  0.11673827334E+03  0.16536856170E+01  0.79666168836E+03  0.80517104073E+03  0.00000000000E+00 0. -1.
<scales pt_clust_3="33.20529" pt_clust_4="30.44947" pt_clust_5="167.94740" pt_clust_6="33.20529"></scales>
<clustering>
<clus scale="   30.449">  1  4  2 -1</clus>
<clus scale="   33.205">  3  6 -1 -1</clus>
<clus scale="  167.947">  2  5  1 -1</clus>
<clus scale="   30.449">  1  3  2 -1</clus>
</clustering>
</event>
<event>
 6    0  0.1438923E+002  0.7596556E+02  0.7546771E-02  0.1340907E+00
         21   -1    0    0  504  501  0.00000000000E+00  0.00000000000E+00  0.81035377597E+03  0.81035377597E+03  0.00000000000E+00 0.  1.
         21   -1    0    0  506  502 -0.00000000000E+00 -0.00000000000E+00 -0.18994357882E+03  0.18994357882E+03  0.00000000000E+00 0. -1.
         21    1    1    2  503  502 -0.52646157277E+02  0.22402213873E+02  0.83624914029E+02  0.10132424837E+03  0.00000000000E+00 0.  1.
         21    1    1    2  504  503 -0.20499400698E+02  0.70662950960E+02  0.12368128630E+03  0.14391156537E+03  0.00000000000E+00 0.  1.
         21    1    1    2  505  501  0.58177627400E+02 -0.53299693164E+02  0.57872414563E+03  0.58407801735E+03  0.00000000000E+00 0.  1.
         21    1    1    2  506  505  0.14967930574E+02 -0.39765471669E+02 -0.16562014881E+03  0.17098352369E+03  0.00000000000E+00 0. -1.
<scales pt_clust_3="46.92911" pt_clust_4="75.96556" pt_clust_5="14000.00000" pt_clust_6="42.48919"></scales>
<clustering>
<clus scale="   42.489">  2  6  1 -1</clus>
<clus scale="   46.929">  2  3  1 -1</clus>
<clus scale="   75.966">  2  4  1 -1</clus>
<clus scale="   75.966">  1  3  2 -1</clus>
</clustering>
</event>
<event>
 6    0  0.1438923E+002  0.9037093E+02  0.7546771E-02  0.1301956E+00
         21   -1    0    0  505  501  0.00000000000E+00  0.00000000000E+00  0.11377854303E+03  0.11377854303E+03  0.00000000000E+00 0.  1.
         21   -1    0    0  504  502 -0.00000000000E+00 -0.00000000000E+00 -0.17753711533E+04  0.17753711533E+04  0.00000000000E+00 0. -1.
         21    1    1    2  503  506  0.49143503604E+02  0.29370687560E+02 -0.32647016935E+02  0.65905606354E+02  0.00000000000E+00 0.  1.
         21    1    1    2  504  503 -0.70237170831E+02  0.59292455033E+02 -0.16665633784E+04  0.16690962673E+04  0.00000000000E+00 0. -1.
         21    1    1    2  505  502 -0.23601625467E+02 -0.87341302626E+02 -0.72997802715E+01  0.90767982577E+02  0.00000000000E+00 0.  1.
         21    1    1    2  506  501  0.44695292694E+02 -0.13218399667E+01  0.44917565343E+02  0.63379840062E+02  0.00000000000E+00 0.  1.
<scales pt_clust_3="68.09299" pt_clust_4="14000.00000" pt_clust_5="90.37093" pt_clust_6="44.71483"></scales>
<clustering>
<clus scale="   44.715">  1  6  2 -1</clus>
<clus scale="   68.093">  1  3  2 -1</clus>
<clus scale="   90.371">  1  5  2 -1</clus>
<clus scale="   44.715">  1  3  2 -1</clus>
</clustering>
</event>
<event>
 6    0  0.1438923E+002  0.1519692E+03  0.7546771E-02  0.1198074E+00
         21   -1    0    0  504  501  0.00000000000E+00  0.00000000000E+00  0.15520935894E+03  0.15520935894E+03  0.00000000000E+00 0. -1.
         21   -1    0    0  503  502 -0.00000000000E+00 -0.00000000000E+00 -0.22277362370E+03  0.22277362370E+03  0.00000000000E+00 0. -1.
         21    1    1    2  503  505 -0.36824942430E+02 -0.18169817315E+02 -0.15090459427E+01  0.41091311319E+02  0.00000000000E+00 0. -1.
         21    1    1    2  504  506  0.88022519291E+02  0.18088773801E+01 -0.77111576520E+02  0.11703602511E+03  0.00000000000E+00 0. -1.
         21    1    1    2  505  501 -0.10139393964E+03 -0.15717865267E+02  0.79000421776E+02  0.12949459033E+03  0.00000000000E+00 0. -1.
         21    1    1    2  506  502  0.50196362777E+02  0.32078805201E+02 -0.67944064071E+02  0.90361055890E+02  0.00000000000E+00 0. -1.
<scales pt_clust_3="33.72416" pt_clust_4="148.23094" pt_clust_5="33.72416" pt_clust_6="34.11034"></scales>
<clustering>
<clus scale="   33.724">  3  5 -1 -1</clus>
<clus scale="   34.110">  4  6 -1 -1</clus>
<clus scale="  148.231">  2  4  1 -1</clus>
<clus scale="  151.969">  1  3  2 -1</clus>
</clustering>
</event>
<event>
 6    0  0.1438923E+002  0.2093555E+03  0.7546771E-02  0.1142077E+00
         21   -1    0    0  502  501  0.00000000000E+00  0.00000000000E+00  0.13082190289E+03  0.13082190289E+03  0.00000000000E+00 0.  1.
         21   -1    0    0  504  502 -0.00000000000E+00 -0.00000000000E+00 -0.11029014165E+04  0.11029014165E+04  0.00000000000E+00 0.  1.
         21    1    1    2  503  505 -0.47413256403E+02  0.14555392933E+02 -0.10900153428E+03  0.11975479457E+03  0.00000000000E+00 0.  1.
         21    1    1    2  504  506 -0.32276081170E+02  0.11828471603E+02 -0.41185050231E+03  0.41328258421E+03  0.00000000000E+00 0.  1.
         21    1    1    2  505  501  0.16511811216E+03 -0.12204970077E+03  0.25591915175E+02  0.20691801890E+03  0.00000000000E+00 0.  1.
         21    1    1    2  506  503 -0.85428774591E+02  0.95665836230E+02 -0.47681939221E+03  0.49376792174E+03  0.00000000000E+00 0.  1.
<scales pt_clust_3="35.54570" pt_clust_4="34.37525" pt_clust_5="201.00117" pt_clust_6="35.54570"></scales>
<clustering>
<clus scale="   34.375">  2  4  1 -1</clus>
<clus scale="   35.546">  3  6 -1 -1</clus>
<clus scale="  201.001">  1  5  2 -1</clus>
<clus scale="  201.001">  1  3  2 -1</clus>
</clustering>
</event>
<event>
 6    0  0.1438923E+002  0.1413016E+03  0.7546771E-02  0.1211588E+00
         21   -1    0    0  504  501  0.00000000000E+00  0.00000000000E+00  0.59946526142E+03  0.59946526142E+03  0.00000000000E+00 0. -1.
         21   -1    0    0  506  502 -0.00000000000E+00 -0.00000000000E+00 -0.81605001449E+02  0.81605001449E+02  0.00000000000E+00 0. -1.
         21    1    1    2  503  501 -0.96091566516E+02  0.82003027381E+02  0.28211908194E+03  0.30911043666E+03  0.00000000000E+00 0. -1.
         21    1    1    2  504  502  0.15705436561E+03 -0.10636458155E+03  0.16688363264E+03  0.25264529445E+03  0.00000000000E+00 0. -1.
         21    1    1    2  505  503 -0.17716029844E+02  0.44482375568E+02  0.22886865856E+02  0.53069276218E+02  0.00000000000E+00 0.  1.
         21    1    1    2  506  505 -0.43246769252E+02 -0.20120821395E+02  0.45970679530E+02  0.66245255534E+02  0.00000000000E+00 0. -1.
<scales pt_clust_3="14000.00000" pt_clust_4="141.30164" pt_clust_5="48.36904" pt_clust_6="47.69833"></scales>
<clustering>
<clus scale="   47.698">  2  6  1 -1</clus>
<clus scale="   48.369">  2  5  1 -1</clus>
<clus scale="  141.302">  2  4  1 -1</clus>
<clus scale="  141.302">  1  3  2 -1</clus>
</clustering>
</event>
<event>
 6    0  0.1438923E+002  0.8310088E+02  0.7546771E-02  0.1320475E+00
         21   -1    0    0  504  501  0.00000000000E+00  0.00000000000E+00  0.51859361909E+02  0.51859361909E+02  0.00000000000E+00 0. -1.
         21   -1    0    0  506  502 -0.00000000000E+00 -0.00000000000E+00 -0.14831869493E+04  0.14831869493E+04  0.00000000000E+00 0.  1.
         21    1    1    2  503  502 -0.25749911364E+02  0.33401900977E+02 -0.10492319852E+04  0.10500792845E+04  0.00000000000E+00 0.  1.
         21    1    1    2  504  503 -0.68742317604E+02  0.48608983922E+02 -0.61550852050E+01  0.84416968800E+02  0.00000000000E+00 0. -1.
         21    1    1    2  505  501  0.50964153523E+02 -0.58654178867E+02 -0.30043715331E+03  0.31032263974E+03  0.00000000000E+00 0.  1.
         21    1    1    2  506  505  0.43528075445E+02 -0.23356706033E+02 -0.75503363701E+02  0.90227418221E+02  0.00000000000E+00 0.  1.
<scales pt_clust_3="42.17517" pt_clust_4="83.10088" pt_clust_5="14000.00000" pt_clust_6="42.17224"></scales>
<clustering>
<clus scale="   42.175">  2  3  1 -1</clus>
<clus scale="   42.172">  2  6  1 -1</clus>
<clus scale="   83.101">  1  4  2 -1</clus>
<clus scale="   83.101">  1  3  2 -1</clus>
</clustering>
</event>
<event>
 6    0  0.1438923E+002  0.7906621E+02  0.7546771E-02  0.1331722E+00
         21   -1    0    0  503  501  0.00000000000E+00  0.00000000000E+00  0.24480813516E+04  0.24480813516E+04  0.00000000000E+00 0. -1.
         21   -1    0    0  505  502 -0.00000000000E+00 -0.00000000000E+00 -0.32218264067E+02  0.32218264067E+02  0.00000000000E+00 0. -1.
         21    1    1    2  503  504  0.16465905617E+02  0.59588157588E+02  0.11366075186E+04  0.11382875409E+04  0.00000000000E+00 0. -1.
         21    1    1    2  504  502  0.51784215189E+02 -0.15972800481E+02 -0.14167761161E+01  0.54210170194E+02  0.00000000000E+00 0. -1.
         21    1    1    2  505  506 -0.57505277284E+02 -0.79013584204E+02  0.98077729044E+03  0.98563385536E+03  0.00000000000E+00 0. -1.
         21    1    1    2  506  501 -0.10744843522E+02  0.35398227096E+02  0.29989505466E+03  0.30216804919E+03  0.00000000000E+00 0.  1.
<scales pt_clust_3="79.06621" pt_clust_4="53.93846" pt_clust_5="14000.00000" pt_clust_6="36.99306"></scales>
<clustering>
<clus scale="   36.993">  1  6  2 -1</clus>
<clus scale="   53.938">  2  4  1 -1</clus>
<clus scale="   79.066">  1  3  2 -1</clus>
<clus scale="   36.993">  1  3  2 -1</clus>
</clustering>
</event>
<event>
 6    0  0.1438923E+002  0.1535607E+03  0.7546771E-02  0.1196165E+00
         21   -1    0    0  505  501  0.00000000000E+00  0.00000000000E+00  0.77202097206E+03  0.77202097206E+03  0.00000000000E+00 0.  1.
         21   -1    0    0  504  502 -0.00000000000E+00 -0.00000000000E+00 -0.25865938335E+03  0.25865938335E+03  0.00000000000E+00 0. -1.
         21    1    1    2  503  502  0.18380305405E+02 -0.34694887036E+02  0.26869224698E+03  0.27154575011E+03  0.00000000000E+00 0.  1.
         21    1    1    2  504  501 -0.43768609913E+02  0.14705752325E+03 -0.22425629840E+03  0.27172135310E+03  0.00000000000E+00 0. -1.
         21    1    1    2  505  506  0.38556738761E+02 -0.70615035400E+02  0.21138001946E+03  0.22617386665E+03  0.00000000000E+00 0.  1.
         21    1    1    2  506  503 -0.13168434252E+02 -0.41747600811E+02  0.25754562068E+03  0.26123938555E+03  0.00000000000E+00 0.  1.
<scales pt_clust_3="30.87889" pt_clust_4="150.05935" pt_clust_5="80.45561" pt_clust_6="30.87889"></scales>
<clustering>
<clus scale="   30.879">  3  6 -1 -1</clus>
<clus scale="   80.456">  1  5  2 -1</clus>
<clus scale="  150.059">  2  4  1 -1</clus>
<clus scale="   80.456">  1  3  2 -1</clus>
</clustering>
</event>
<event>
 6    0  0.1438923E+002  0.1089355E+03  0.7546771E-02  0.1262554E+00
         21   -1    0    0  504  501  0.00000000000E+00  0.00000000000E+00  0.11913155659E+03  0.11913155659E+03  0.00000000000E+00 0. -1.
         21   -1    0    0  506  502 -0.00000000000E+00 -0.00000000000E+00 -0.51978047964E+03  0.51978047964E+03  0.00000000000E+00 0. -1.
         21    1    1    2  503  505 -0.23969219972E+01 -0.14036753911E+03  0.13835779901E+02  0.14106813983E+03  0.00000000000E+00 0. -1.
         21    1    1    2  504  503  0.32736343325E+01  0.31325731974E+02  0.21613236663E+02  0.38198824125E+02  0.00000000000E+00 0. -1.
         21    1    1    2  505  502 -0.96657433707E+01  0.72385658675E+02 -0.40274618997E+03  0.40931357626E+03  0.00000000000E+00 0. -1.
         21    1    1    2  506  501  0.87890310354E+01  0.36656148457E+02 -0.33351749639E+02  0.50331496006E+02  0.00000000000E+00 0. -1.
<scales pt_clust_3="108.93546" pt_clust_4="31.49632" pt_clust_5="14000.00000" pt_clust_6="40.66813"></scales>
<clustering>
<clus scale="   31.496">  1  4  2 -1</clus>
<clus scale="   40.668">  2  6  1 -1</clus>
<clus scale="  108.935">  1  3  2 -1</clus>
<clus scale="   31.496">  1  3  2 -1</clus>
</clustering>
</event>
<event>
 6    0  0.1438923E+002  0.1387118E+03  0.7546771E-02  0.1215073E+00
         21   -1    0    0  503  501  0.00000000000E+00  0.00000000000E+00  0.25182043410E+03  0.25182043410E+03  0.00000000000E+00 0.  1.
         21   -1    0    0  504  502 -0.00000000000E+00 -0.00000000000E+00 -0.10147264749E+04  0.10147264749E+04  0.00000000000E+00 0.  1.
         21    1    1    2  503  502 -0.10463648071E+03 -0.22834789035E+02  0.10978487521E+03  0.15337189935E+03  0.00000000000E+00 0.  1.
         21    1    1    2  504  506  0.40870779165E+02  0.12920475063E+03 -0.95171673811E+03  0.96131630475E+03  0.00000000000E+00 0.  1.
         21    1    1    2  505  501  0.38862435397E+02 -0.34592318622E+02  0.44259984283E+02  0.68307127017E+02  0.00000000000E+00 0.  1.
         21    1    1    2  506  505  0.24903266149E+02 -0.71777642971E+02  0.34765837778E+02  0.83551577913E+02  0.00000000000E+00 0. -1.
<scales pt_clust_3="107.09912" pt_clust_4="133.43763" pt_clust_5="31.35181" pt_clust_6="31.35181"></scales>
<clustering>
<clus scale="   31.352">  5  6 -1 -1</clus>
<clus scale="  107.099">  1  3  2 -1</clus>
<clus scale="  133.438">  2  4  1 -1</clus>
<clus scale="  107.099">  1  3  2 -1</clus>
</clustering>
</event>
<event>
 6    0  0.1438923E+002  0.1622228E+03  0.7546771E-02  0.1186210E+00
         21   -1    0    0  504  501  0.00000000000E+00  0.00000000000E+00  0.33253594947E+02  0.33253594947E+02  0.00000000000E+00 0. -1.
         21   -1    0    0  506  502 -0.00000000000E+00 -0.00000000000E+00 -0.27231512779E+04  0.27231512779E+04  0.00000000000E+00 0.  1.
         21    1    1    2  503  502 -0.57401810035E+02  0.14212989243E+03 -0.23804278540E+04  0.23853579694E+04  0.00000000000E+00 0.  1.
         21    1    1    2  504  505 -0.96659353639E+01 -0.94766953127E+02 -0.11644888142E+03  0.15044782383E+03  0.00000000000E+00 0. -1.
         21    1    1    2  505  503  0.30844224426E+02 -0.60760380402E+02 -0.12608640950E+03  0.14332122197E+03  0.00000000000E+00 0. -1.
         21    1    1    2  506  501  0.36223520972E+02  0.13397441095E+02 -0.66934538059E+02  0.77277857661E+02  0.00000000000E+00 0. -1.
<scales pt_clust_3="153.22083" pt_clust_4="47.82555" pt_clust_5="47.82555" pt_clust_6="38.62169"></scales>
<clustering>
<clus scale="   38.622">  1  6  2 -1</clus>
<clus scale="   47.826">  4  5 -1 -1</clus>
<clus scale="  153.221">  2  3  1 -1</clus>
<clus scale="   38.622">  1  3  2 -1</clus>
</clustering>
</event>
<event>
 6    0  0.1438923E+002  0.2718313E+03  0.7546771E-02  0.1100236E+00
         21   -1    0    0  506  501  0.00000000000E+00  0.00000000000E+00  0.93194150892E+03  0.93194150892E+03  0.00000000000E+00 0.  1.
         21   -1    0    0  505  502 -0.00000000000E+00 -0.00000000000E+00 -0.33852246240E+03  0.33852246240E+03  0.00000000000E+00 0.  1.
         21    1    1    2  503  501 -0.39900257976E+02  0.30280987312E+02  0.14382494051E+03  0.15229767658E+03  0.00000000000E+00 0.  1.
         21    1    1    2  504  503  0.48429004543E+01  0.52186335601E+02  0.29614397828E+03  0.30074594457E+03  0.00000000000E+00 0. -1.
         21    1    1    2  505  504  0.54890434114E+01  0.15850545290E+03  0.42472465091E+03  0.45337086065E+03  0.00000000000E+00 0.  1.
         21    1    1    2  506  502  0.29568314110E+02 -0.24097277581E+03 -0.27127452319E+03  0.36404948951E+03  0.00000000000E+00 0.  1.
<scales pt_clust_3="47.43565" pt_clust_4="38.74528" pt_clust_5="47.43565" pt_clust_6="242.78007"></scales>
<clustering>
<clus scale="   38.745">  4  5 -1 -1</clus>
<clus scale="   47.436">  3  4 -1 -1</clus>
<clus scale="  242.780">  2  6  1 -1</clus>
<clus scale="  271.831">  1  3  2 -1</clus>
</clustering>
</event>
<event>
 6    0  0.1438923E+002  0.2998139E+03  0.7546771E-02  0.1085334E+00
         21   -1    0    0  504  501  0.00000000000E+00  0.00000000000E+00  0.44764815999E+03  0.44764815999E+03  0.00000000000E+00 0.  1.
         21   -1    0    0  501  502 -0.00000000000E+00 -0.00000000000E+00 -0.21046024146E+03  0.21046024146E+03  0.00000000000E+00 0.  1.
         21    1    1    2  503  506 -0.49390169806E+02 -0.60075884615E+02  0.63003398039E+01  0.78026886824E+02  0.00000000000E+00 0.  1.
         21    1    1    2  504  505  0.19493635972E+03  0.20550625022E+03  0.21845694051E+03  0.35770999158E+03  0.00000000000E+00 0.  1.
         21    1    1    2  505  503 -0.86685915114E+02 -0.61626850439E+02  0.44156168000E+02  0.11516112081E+03  0.00000000000E+00 0.  1.
         21    1    1    2  506  502 -0.58860274804E+02 -0.83803515168E+02 -0.31725529783E+02  0.10721040222E+03  0.00000000000E+00 0.  1.
<scales pt_clust_3="30.77314" pt_clust_4="283.25431" pt_clust_5="67.73557" pt_clust_6="67.73557"></scales>
<clustering>
<clus scale="   30.773">  3  6 -1 -1</clus>
<clus scale="   67.736">  3  5 -1 -1</clus>
<clus scale="  283.254">  1  4  2 -1</clus>
<clus scale="  283.254">  1  3  2 -1</clus>
</clustering>
</event>
<event>
 6    0  0.1438923E+002  0.9225454E+02  0.7546771E-02  0.1297482E+00
         21   -1    0    0  505  501  0.00000000000E+00  0.00000000000E+00  0.84184722133E+03  0.84184722133E+03  0.00000000000E+00 0. -1.
         21   -1    0    0  504  502 -0.00000000000E+00 -0.00000000000E+00 -0.50715322844E+03  0.50715322844E+03  0.00000000000E+00 0.  1.
         21    1    1    2  503  502 -0.71854735733E+02  0.13093377240E+02 -0.46603245967E+03  0.47172109667E+03  0.00000000000E+00 0.  1.
         21    1    1    2  504  501  0.14793431274E+03 -0.59926455159E+02  0.19668440283E+03  0.25329922074E+03  0.00000000000E+00 0. -1.
         21    1    1    2  505  506 -0.62881007897E+02 -0.25801980342E+02  0.42362981544E+03  0.42904776409E+03  0.00000000000E+00 0. -1.
         21    1    1    2  506  503 -0.13198569105E+02  0.72635058261E+02  0.18041223429E+03  0.19493236827E+03  0.00000000000E+00 0. -1.
<scales pt_clust_3="73.43017" pt_clust_4="92.25454" pt_clust_5="67.96884" pt_clust_6="14000.00000"></scales>
<clustering>
<clus scale="   67.969">  1  5  2 -1</clus>
<clus scale="   73.430">  2  3  1 -1</clus>
<clus scale="   92.255">  2  4  1 -1</clus>
<clus scale="   67.969">  1  3  2 -1</clus>
</clustering>
</event>
<event>
 6    0  0.1438923E+002  0.1072327E+03  0.7546771E-02  0.1265782E+00
         21   -1    0    0  503  501  0.00000000000E+00  0.00000000000E+00  0.21016145242E+04  0.21016145242E+04  0.00000000000E+00 0. -1.
         21   -1    0    0  504  502 -0.00000000000E+00 -0.00000000000E+00 -0.52097468834E+02  0.52097468834E+02  0.00000000000E+00 0. -1.
         21    1    1    2  503  505 -0.12529776993E+02  0.53909532465E+02  0.23011200005E+03  0.23667438722E+03  0.00000000000E+00 0. -1.
         21    1    1    2  504  506  0.10836711159E+03 -0.12273491710E+03  0.67362141031E+03  0.69323379546E+03  0.00000000000E+00 0. -1.
         21    1    1    2  505  502 -0.36160297591E+01  0.34457180450E+02 -0.28831047680E+02  0.45073298816E+02  0.00000000000E+00 0. -1.
         21    1    1    2  506  501 -0.92221304834E+02  0.34368204188E+02  0.11746146927E+04  0.11787305115E+04  0.00000000000E+00 0. -1.
<scales pt_clust_3="62.80193" pt_clust_4="107.23272" pt_clust_5="34.64640" pt_clust_6="14000.00000"></scales>
<clustering>
<clus scale="   34.646">  2  5  1 -1</clus>
<clus scale="   62.802">  2  3  1 -1</clus>
<clus scale="  107.233">  2  4  1 -1</clus>
<clus scale="  107.233">  1  3  2 -1</clus>
</clustering>
</event>
<event>
 6    0  0.1438923E+002  0.2804682E+03  0.7546771E-02  0.1095433E+00
         21   -1    0    0  504  501  0.00000000000E+00  0.00000000000E+00  0.18741006865E+04  0.18741006865E+04  0.00000000000E+00 0. -1.
         21   -1    0    0  503  502 -0.00000000000E+00 -0.00000000000E+00 -0.66031004629E+03  0.66031004629E+03  0.00000000000E+00 0. -1.
         21    1    1    2  503  506  0.70227497649E+02 -0.39285307334E+02  0.21550363188E+03  0.23003706691E+03  0.00000000000E+00 0. -1.
         21    1    1    2  504  505  0.34952321369E+02  0.15581722387E+03  0.26566604095E+03  0.30996631646E+03  0.00000000000E+00 0. -1.
         21    1    1    2  505  502 -0.21835098473E+03  0.12146732225E+03 -0.59266019936E+03  0.64317771635E+03  0.00000000000E+00 0. -1.
         21    1    1    2  506  501  0.11317116571E+03 -0.23799923879E+03  0.13252811667E+04  0.13512296330E+04  0.00000000000E+00 0. -1.
<scales pt_clust_3="69.60027" pt_clust_4="159.68930" pt_clust_5="250.59455" pt_clust_6="69.60027"></scales>
<clustering>
<clus scale="   69.600">  3  6 -1 -1</clus>
<clus scale="  159.689">  1  4  2 -1</clus>
<clus scale="  250.595">  2  5  1 -1</clus>
<clus scale="  159.689">  1  3  2 -1</clus>
</clustering>
</event>
<event>
 6    0  0.1438923E+002  0.1455045E+03  0.7546771E-02  0.1206108E+00
         21   -1    0    0  504  501  0.00000000000E+00  0.00000000000E+00  0.35359799429E+03  0.35359799429E+03  0.00000000000E+00 0.  1.
         21   -1    0    0  505  502 -0.00000000000E+00 -0.00000000000E+00 -0.44805930115E+03  0.44805930115E+03  0.00000000000E+00 0.  1.
         21    1    1    2  503  506 -0.59577568881E+02 -0.47045759488E+02  0.18066294884E+03  0.19596400507E+03  0.00000000000E+00 0.  1.
         21    1    1    2  504  503 -0.67915288030E+02 -0.15478712707E+02  0.13935546385E+03  0.15579480800E+03  0.00000000000E+00 0.  1.
         21    1    1    2  505  501  0.10044406667E+03  0.87593383086E+02 -0.36202563297E+03  0.38577735835E+03  0.00000000000E+00 0.  1.
         21    1    1    2  506  502  0.27048790236E+02 -0.25068910891E+02 -0.52454086578E+02  0.64121124017E+02  0.00000000000E+00 0.  1.
<scales pt_clust_3="32.60744" pt_clust_4="32.60744" pt_clust_5="141.46663" pt_clust_6="36.87936"></scales>
<clustering>
<clus scale="   32.607">  3  4 -1 -1</clus>
<clus scale="   36.879">  2  6  1 -1</clus>
<clus scale="  141.467">  2  5  1 -1</clus>
<clus scale="  145.504">  1  3  2 -1</clus>
</clustering>
</event>
<event>
 6    0  0.1438923E+002  0.1255759E+03  0.7546771E-02  0.1234172E+00
         21   -1    0    0  504  501  0.00000000000E+00  0.00000000000E+00  0.54315017352E+03  0.54315017352E+03  0.00000000000E+00 0.  1.
         21   -1    0    0  501  502 -0.00000000000E+00 -0.00000000000E+00 -0.77686723791E+02  0.77686723791E+02  0.00000000000E+00 0.  1.
         21    1    1    2  503  506  0.58237431968E+02 -0.13955579387E+03  0.47378126966E+02  0.15846799361E+03  0.00000000000E+00 0.  1.
         21    1    1    2  504  505 -0.10627556596E+02  0.41487949432E+02  0.90334843119E+02  0.99972890269E+02  0.00000000000E+00 0.  1.
         21    1    1    2  505  503 -0.50780027703E+02  0.51544964777E+02  0.29896422247E+03  0.30759567767E+03  0.00000000000E+00 0.  1.
         21    1    1    2  506  502  0.31701523306E+01  0.46522879657E+02  0.28786257179E+02  0.54800335763E+02  0.00000000000E+00 0.  1.
<scales pt_clust_3="116.77729" pt_clust_4="35.52649" pt_clust_5="35.52649" pt_clust_6="46.63076"></scales>
<clustering>
<clus scale="   35.526">  4  5 -1 -1</clus>
<clus scale="   46.631">  2  6  1 -1</clus>
<clus scale="  116.777">  2  3  1 -1</clus>
<clus scale="  125.576">  1  3  2 -1</clus>
</clustering>
</event>
<event>
 6    0  0.1438923E+002  0.9828321E+02  0.7546771E-02  0.1283948E+00
         21   -1    0    0  505  501  0.00000000000E+00  0.00000000000E+00  0.16102275024E+03  0.16102275024E+03  0.00000000000E+00 0.  1.
         21   -1    0    0  503  502 -0.00000000000E+00 -0.00000000000E+00 -0.28226839657E+03  0.28226839657E+03  0.00000000000E+00 0. -1.
         21    1    1    2  503  501 -0.72784960940E+02 -0.51348179944E+02  0.23041881873E+02  0.92006599996E+02  0.00000000000E+00 0. -1.
         21    1    1    2  504  502 -0.41268569309E+02  0.96127164935E+02 -0.17474206047E+03  0.20366225558E+03  0.00000000000E+00 0. -1.
         21    1    1    2  505  506  0.39481371045E+02  0.72194647155E+01  0.39436537433E+02  0.56268461993E+02  0.00000000000E+00 0.  1.
         21    1    1    2  506  504  0.74572159204E+02 -0.51998449707E+02 -0.89820051654E+01  0.91353829241E+02  0.00000000000E+00 0.  1.
<scales pt_clust_3="71.07945" pt_clust_4="14000.00000" pt_clust_5="40.13601" pt_clust_6="98.28321"></scales>
<clustering>
<clus scale="   40.136">  1  5  2 -1</clus>
<clus scale="   71.079">  1  3  2 -1</clus>
<clus scale="   98.283">  1  6  2 -1</clus>
<clus scale="   40.136">  1  3  2 -1</clus>
</clustering>
</event>
<event>
 6    0  0.1438923E+002  0.2492627E+03  0.7546771E-02  0.1113772E+00
         21   -1    0    0  506  501  0.00000000000E+00  0.00000000000E+00  0.53363073404E+03  0.53363073404E+03  0.00000000000E+00 0.  1.
         21   -1    0    0  504  502 -0.00000000000E+00 -0.00000000000E+00 -0.56355071012E+03  0.56355071012E+03  0.00000000000E+00 0.  1.
         21    1    1    2  503  505 -0.17292984438E+03  0.15478324240E+03  0.50776138479E+02  0.23757272453E+03  0.00000000000E+00 0.  1.
         21    1    1    2  504  503 -0.27537432275E+02  0.16003269938E+02 -0.40757876567E+03  0.40882131188E+03  0.00000000000E+00 0.  1.
         21    1    1    2  505  501  0.17506468770E+03 -0.18917917765E+03  0.33060092748E+03  0.41920565286E+03  0.00000000000E+00 0.  1.
         21    1    1    2  506  502  0.25402588947E+02  0.18392665315E+02 -0.37182763691E+01  0.31581754888E+02  0.00000000000E+00 0. -1.
<scales pt_clust_3="249.26265" pt_clust_4="30.95840" pt_clust_5="14000.00000" pt_clust_6="31.36211"></scales>
<clustering>
<clus scale="   31.362">  2  6  1 -1</clus>
<clus scale="   30.958">  2  4  1 -1</clus>
<clus scale="  249.263">  2  3  1 -1</clus>
<clus scale="  249.263">  1  3  2 -1</clus>
</clustering>
</event>
<event>
 6    0  0.1438923E+002  0.8544606E+02  0.7546771E-02  0.1314270E+00
         21   -1    0    0  503  501  0.00000000000E+00  0.00000000000E+00  0.62864286174E+03  0.62864286174E+03  0.00000000000E+00 0. -1.
         21   -1    0    0  506  502 -0.00000000000E+00 -0.00000000000E+00 -0.95746123977E+03  0.95746123977E+03  0.00000000000E+00 0.  1.
         21    1    1    2  503  504 -0.51411750480E+02 -0.58789009262E+02  0.35870649383E+03  0.36710988057E+03  0.00000000000E+00 0. -1.
         21    1    1    2  504  502  0.10099856172E+03  0.11059576697E+03 -0.73473951639E+02  0.16682492233E+03  0.00000000000E+00 0.  1.
         21    1    1    2  505  501 -0.23974290630E+02  0.22200191243E+02  0.21598732105E+03  0.21844481673E+03  0.00000000000E+00 0. -1.
         21    1    1    2  506  505 -0.25612520612E+02 -0.74006948947E+02 -0.83003824127E+03  0.83372448188E+03  0.00000000000E+00 0.  1.
<scales pt_clust_3="85.44606" pt_clust_4="14000.00000" pt_clust_5="32.67438" pt_clust_6="78.25492"></scales>
<clustering>
<clus scale="   32.674">  1  5  2 -1</clus>
<clus scale="   78.255">  2  6  1 -1</clus>
<clus scale="   85.446">  1  3  2 -1</clus>
<clus scale="   32.674">  1  3  2 -1</clus>
</clustering>
</event>
<event>
 6    0  0.1438923E+002  0.1740335E+03  0.7546771E-02  0.1173706E+00
         21   -1    0    0  504  501  0.00000000000E+00  0.00000000000E+00  0.17206511118E+03  0.17206511118E+03  0.00000000000E+00 0. -1.
         21   -1    0    0  503  502 -0.00000000000E+00 -0.00000000000E+00 -0.18891233539E+04  0.18891233539E+04  0.00000000000E+00 0. -1.
         21    1    1    2  503  506 -0.12756678331E+02 -0.12733457958E+03  0.88342598144E+01  0.12827654558E+03  0.00000000000E+00 0. -1.
         21    1    1    2  504  505 -0.37225936736E+02  0.18449587319E+02 -0.18820328747E+02  0.45610990038E+02  0.00000000000E+00 0.  1.
         21    1    1    2  505  502  0.68676142090E+02  0.16349650312E+03 -0.17830704803E+04  0.17918671426E+04  0.00000000000E+00 0. -1.
         21    1    1    2  506  501 -0.18693527023E+02 -0.54611510853E+02  0.75998306548E+02  0.95433786829E+02  0.00000000000E+00 0. -1.
<scales pt_clust_3="174.03354" pt_clust_4="41.54705" pt_clust_5="14000.00000" pt_clust_6="59.15126"></scales>
<clustering>
<clus scale="   41.547">  1  4  2 -1</clus>
<clus scale="   59.151">  1  6  2 -1</clus>
<clus scale="  174.034">  1  3  2 -1</clus>
<clus scale="   41.547">  1  3  2 -1</clus>
</clustering>
</event>
<event>
 6    0  0.1438923E+002  0.1146458E+03  0.7546771E-02  0.1252201E+00
         21   -1    0    0  506  501  0.00000000000E+00  0.00000000000E+00  0.19763921257E+03  0.19763921257E+03  0.00000000000E+00 0.  1.
         21   -1    0    0  505  502 -0.00000000000E+00 -0.00000000000E+00 -0.57441620026E+03  0.57441620026E+03  0.00000000000E+00 0. -1.
         21    1    1    2  503  501 -0.67235793312E+01 -0.38260261432E+02 -0.16071379599E+02  0.42039783135E+02  0.00000000000E+00 0. -1.
         21    1    1    2  504  502  0.21659046601E+01  0.97042120573E+02  0.73216464522E+02  0.12158336640E+03  0.00000000000E+00 0.  1.
         21    1    1    2  505  503 -0.19266727777E+02 -0.10019497958E+03 -0.50917326405E+03  0.51929534328E+03  0.00000000000E+00 0. -1.
         21    1    1    2  506  504  0.23824402448E+02  0.41413120439E+02  0.75251191433E+02  0.89136920008E+02  0.00000000000E+00 0.  1.
<scales pt_clust_3="38.84655" pt_clust_4="35.18426" pt_clust_5="103.09516" pt_clust_6="35.18426"></scales>
<clustering>
<clus scale="   35.184">  4  6 -1 -1</clus>
<clus scale="   38.847">  1  3  2 -1</clus>
<clus scale="  103.095">  2  5  1 -1</clus>
<clus scale="   38.847">  1  3  2 -1</clus>
</clustering>
</event>
<event>
 6    0  0.1438923E+002  0.1024211E+03  0.7546771E-02  0.1275286E+00
         21   -1    0    0  506  501  0.00000000000E+00  0.00000000000E+00  0.15401271729E+03  0.15401271729E+03  0.00000000000E+00 0. -1.
         21   -1    0    0  504  502 -0.00000000000E+00 -0.00000000000E+00 -0.16272406684E+03  0.16272406684E+03  0.00000000000E+00 0.  1.
         21    1    1    2  503  502 -0.13425448704E+02  0.83792824739E+02 -0.92403549320E+02  0.12545874253E+03  0.00000000000E+00 0.  1.
         21    1    1    2  504  505  0.36842519600E+00 -0.48862488745E+02  0.41833832266E+02  0.64325329890E+02  0.00000000000E+00 0. -1.
         21    1    1    2  505  501  0.56516248435E+02 -0.45934528801E+02  0.37483571949E+02  0.81909007071E+02  0.00000000000E+00 0. -1.
         21    1    1    2  506  503 -0.43459224927E+02  0.11004192807E+02  0.43747955577E+01  0.45043704630E+02  0.00000000000E+00 0.  1.
<scales pt_clust_3="87.28798" pt_clust_4="43.88842" pt_clust_5="43.88842" pt_clust_6="44.83075"></scales>
<clustering>
<clus scale="   43.888">  4  5 -1 -1</clus>
<clus scale="   44.831">  1  6  2 -1</clus>
<clus scale="   87.288">  2  3  1 -1</clus>
<clus scale="   44.831">  1  3  2 -1</clus>
</clustering>
</event>
<event>
 6    0  0.1438923E+002  0.7873392E+02  0.7546771E-02  0.1332683E+00
         21   -1    0    0  506  501  0.00000000000E+00  0.00000000000E+00  0.17274332235E+03  0.17274332235E+03  0.00000000000E+00 0.  1.
         21   -1    0    0  504  502 -0.00000000000E+00 -0.00000000000E+00 -0.15599890468E+04  0.15599890468E+04  0.00000000000E+00 0.  1.
         21    1    1    2  503  502 -0.38209920808E+02  0.34285636008E+02 -0.12123491656E+04  0.12134356194E+04  0.00000000000E+00 0.  1.
         21    1    1    2  504  501 -0.11055987268E+02 -0.13663117006E+03  0.11078407588E+03  0.17624818568E+03  0.00000000000E+00 0.  1.
         21    1    1    2  505  503  0.46173660138E+02  0.46419153518E+02 -0.27907055387E+03  0.28664807472E+03  0.00000000000E+00 0. -1.
         21    1    1    2  506  505  0.30922479379E+01  0.55926380533E+02 -0.66100808273E+01  0.56400489407E+02  0.00000000000E+00 0.  1.
<scales pt_clust_3="51.33715" pt_clust_4="14000.00000" pt_clust_5="78.73392" pt_clust_6="59.03962"></scales>
<clustering>
<clus scale="   51.337">  2  3  1 -1</clus>
<clus scale="   59.040">  1  6  2 -1</clus>
<clus scale="   78.734">  2  5  1 -1</clus>
<clus scale="   59.040">  1  3  2 -1</clus>
</clustering>
</event>
<event>
 6    0  0.1438923E+002  0.1842023E+03  0.7546771E-02  0.1163797E+00
         21   -1    0    0  504  501  0.00000000000E+00  0.00000000000E+00  0.45336419382E+03  0.45336419382E+03  0.00000000000E+00 0.  1.
         21   -1    0    0  503  502 -0.00000000000E+00 -0.00000000000E+00 -0.24360288048E+04  0.24360288048E+04  0.00000000000E+00 0. -1.
         21    1    1    2  503  506  0.30002664876E+02 -0.44472730257E+02 -0.22221563581E+04  0.22228038293E+04  0.00000000000E+00 0. -1.
         21    1    1    2  504  502 -0.35590666733E+02  0.27444556135E+03  0.18830311993E+01  0.27675008132E+03  0.00000000000E+00 0.  1.
         21    1    1    2  505  501 -0.18531037944E+02 -0.10606640524E+03  0.24057598776E+03  0.26357216768E+03  0.00000000000E+00 0.  1.
         21    1    1    2  506  505  0.24119039801E+02 -0.12390642585E+03 -0.29672717774E+01  0.12626692026E+03  0.00000000000E+00 0.  1.
<scales pt_clust_3="53.64684" pt_clust_4="14000.00000" pt_clust_5="109.77210" pt_clust_6="184.20228"></scales>
<clustering>
<clus scale="   53.647">  2  3  1 -1</clus>
<clus scale="  109.772">  1  5  2 -1</clus>
<clus scale="  184.202">  2  6  1 -1</clus>
<clus scale="  109.772">  1  3  2 -1</clus>
</clustering>
</event>
<event>
 6    0  0.1438923E+002  0.1030901E+03  0.7546771E-02  0.1273929E+00
         21   -1    0    0  506  501  0.00000000000E+00  0.00000000000E+00  0.26763954816E+04  0.26763954816E+04  0.00000000000E+00 0. -1.
         21   -1    0    0  505  502 -0.00000000000E+00 -0.00000000000E+00 -0.97832539576E+02  0.97832539576E+02  0.00000000000E+00 0.  1.
         21    1    1    2  503  502 -0.28024344459E+01  0.40472427289E+02 -0.15397984990E+02  0.43393190148E+02  0.00000000000E+00 0.  1.
         21    1    1    2  504  501 -0.92241865551E+02 -0.44822955888E+02  0.24835172169E+04  0.24856338077E+04  0.00000000000E+00 0. -1.
         21    1    1    2  505  504 -0.44049217424E+02 -0.16281066417E+02  0.92116219634E+02  0.10339634713E+03  0.00000000000E+00 0. -1.
         21    1    1    2  506  503  0.13909351742E+03  0.20631595016E+02  0.18327490495E+02  0.14180467626E+03  0.00000000000E+00 0.  1.
<scales pt_clust_3="40.56934" pt_clust_4="103.09008" pt_clust_5="46.13375" pt_clust_6="14000.00000"></scales>
<clustering>
<clus scale="   40.569">  2  3  1 -1</clus>
<clus scale="   46.134">  2  5  1 -1</clus>
<clus scale="  103.090">  1  4  2 -1</clus>
<clus scale="  103.090">  1  3  2 -1</clus>
</clustering>
</event>
<event>
 6    0  0.1438923E+002  0.1006964E+03  0.7546771E-02  0.1278838E+00
         21   -1    0    0  503  501  0.00000000000E+00  0.00000000000E+00  0.17462680567E+03  0.17462680567E+03  0.00000000000E+00 0. -1.
         21   -1    0    0  504  502 -0.00000000000E+00 -0.00000000000E+00 -0.73708346065E+03  0.73708346065E+03  0.00000000000E+00 0. -1.
         21    1    1    2  503  505  0.40174053002E+02 -0.43839637620E+02  0.40193099971E+02  0.71772931155E+02  0.00000000000E+00 0. -1.
         21    1    1    2  504  501 -0.11302055008E+03  0.95381644273E+02  0.39395906400E+01  0.14794195882E+03  0.00000000000E+00 0. -1.
         21    1    1    2  505  506 -0.24601945251E+02 -0.80077737806E+02 -0.72161210287E+01  0.84081937448E+02  0.00000000000E+00 0. -1.
         21    1    1    2  506  502  0.97448442332E+02  0.28535731154E+02 -0.59937322456E+03  0.60791343890E+03  0.00000000000E+00 0. -1.
<scales pt_clust_3="59.46317" pt_clust_4="100.69642" pt_clust_5="94.98844" pt_clust_6="14000.00000"></scales>
<clustering>
<clus scale="   59.463">  1  3  2 -1</clus>
<clus scale="   94.988">  1  5  2 -1</clus>
<clus scale="  100.696">  1  4  2 -1</clus>
<clus scale="   59.463">  1  3  2 -1</clus>
</clustering>
</event>
<event>
 6    0  0.1438923E+002  0.8951921E+02  0.7546771E-02  0.1304020E+00
         21   -1    0    0  504  501  0.00000000000E+00  0.00000000000E+00  0.28264886992E+03  0.28264886992E+03  0.00000000000E+00 0. -1.
         21   -1    0    0  506  502 -0.00000000000E+00 -0.00000000000E+00 -0.10964455041E+03  0.10964455041E+03  0.00000000000E+00 0. -1.
         21    1    1    2  503  501 -0.12521394033E+02  0.77704628195E+02  0.14186786102E+03  0.16223835718E+03  0.00000000000E+00 0. -1.
         21    1    1    2  504  505 -0.31819579846E+02 -0.61242308293E+01  0.27841162968E+02  0.42721449182E+02  0.00000000000E+00 0. -1.
         21    1    1    2  505  502  0.21644731035E+02 -0.11211719206E+03  0.47063186813E+02  0.12350588120E+03  0.00000000000E+00 0. -1.
         21    1    1    2  506  503  0.22696242843E+02  0.40536794694E+02 -0.43767891285E+02  0.63827732772E+02  0.00000000000E+00 0. -1.
<scales pt_clust_3="89.51921" pt_clust_4="32.40358" pt_clust_5="14000.00000" pt_clust_6="45.62216"></scales>
<clustering>
<clus scale="   32.404">  1  4  2 -1</clus>
<clus scale="   45.622">  2  6  1 -1</clus>
<clus scale="   89.519">  1  3  2 -1</clus>
<clus scale="   32.404">  1  3  2 -1</clus>
</clustering>
</event>
<event>
 6    0  0.1438923E+002  0.2104343E+03  0.7546771E-02  0.1141223E+00
         21   -1    0    0  503  501  0.00000000000E+00  0.00000000000E+00  0.11225659306E+04  0.11225659306E+04  0.00000000000E+00 0. -1.
         21   -1    0    0  504  502 -0.00000000000E+00 -0.00000000000E+00 -0.88652198967E+02  0.88652198967E+02  0.00000000000E+00 0.  1.
         21    1    1    2  503  502  0.15341742554E+03 -0.11818401348E+03  0.43223899577E+02  0.19842548474E+03  0.00000000000E+00 0.  1.
         21    1    1    2  504  506 -0.33795255927E+02  0.49032281194E+02  0.18715426718E+03  0.19640011112E+03  0.00000000000E+00 0. -1.
         21    1    1    2  505  501 -0.73894422224E+02  0.31775021612E+02  0.35582394556E+03  0.36480229970E+03  0.00000000000E+00 0. -1.
         21    1    1    2  506  505 -0.45727747386E+02  0.37376710671E+02  0.44771161928E+03  0.45159023397E+03  0.00000000000E+00 0. -1.
<scales pt_clust_3="193.66044" pt_clust_4="44.28997" pt_clust_5="44.28997" pt_clust_6="35.70147"></scales>
<clustering>
<clus scale="   35.701">  5  6 -1 -1</clus>
<clus scale="   44.290">  4  5 -1 -1</clus>
<clus scale="  193.660">  2  3  1 -1</clus>
<clus scale="  210.434">  1  3  2 -1</clus>
</clustering>
</event>
<event>
 6    0  0.1438923E+002  0.9574369E+02  0.7546771E-02  0.1289510E+00
         21   -1    0    0  506  501  0.00000000000E+00  0.00000000000E+00  0.11214847574E+03  0.11214847574E+03  0.00000000000E+00 0.  1.
         21   -1    0    0  504  502 -0.00000000000E+00 -0.00000000000E+00 -0.24186660108E+04  0.24186660108E+04  0.00000000000E+00 0. -1.
         21    1    1    2  503  502 -0.14748579213E+02 -0.68319672392E+02 -0.83731490186E+02  0.10906906378E+03  0.00000000000E+00 0. -1.
         21    1    1    2  504  505 -0.14657700113E+02 -0.31357971577E+02 -0.22540000864E+04  0.22542658584E+04  0.00000000000E+00 0. -1.
         21    1    1    2  505  501  0.63196185198E+02  0.11099537367E+03  0.32592193901E+02  0.13181798779E+03  0.00000000000E+00 0.  1.
         21    1    1    2  506  503 -0.33789905871E+02 -0.11317729704E+02 -0.13781523711E+01  0.35661576640E+02  0.00000000000E+00 0.  1.
<scales pt_clust_3="14000.00000" pt_clust_4="34.61460" pt_clust_5="95.74369" pt_clust_6="38.42425"></scales>
<clustering>
<clus scale="   34.615">  2  4  1 -1</clus>
<clus scale="   38.424">  1  6  2 -1</clus>
<clus scale="   95.744">  1  5  2 -1</clus>
<clus scale="   38.424">  1  3  2 -1</clus>
</clustering>
</event>
<event>
 6    0  0.1438923E+002  0.1282273E+03  0.7546771E-02  0.1230110E+00
         21   -1    0    0  503  501  0.00000000000E+00  0.00000000000E+00  0.33650097738E+03  0.33650097738E+03  0.00000000000E+00 0.  1.
         21   -1    0    0  504  502 -0.00000000000E+00 -0.00000000000E+00 -0.17153249046E+04  0.17153249046E+04  0.00000000000E+00 0.  1.
         21    1    1    2  503  502 -0.95787999979E+02 -0.75588633450E+02 -0.13906978390E+03  0.18501185703E+03  0.00000000000E+00 0. -1.
         21    1    1    2  504  505  0.17314197867E+02 -0.43088583466E+02 -0.14991844782E+04  0.14999034993E+04  0.00000000000E+00 0.  1.
         21    1    1    2  505  506 -0.34349916804E+02  0.13825879302E+03  0.11836222038E+03  0.18521615979E+03  0.00000000000E+00 0.  1.
         21    1    1    2  506  501  0.11282371892E+03 -0.19581576108E+02  0.14106811449E+03  0.18169436589E+03  0.00000000000E+00 0.  1.
<scales pt_clust_3="128.22731" pt_clust_4="46.43713" pt_clust_5="14000.00000" pt_clust_6="116.86908"></scales>
<clustering>
<clus scale="   46.437">  2  4  1 -1</clus>
<clus scale="  116.869">  1  6  2 -1</clus>
<clus scale="  128.227">  2  3  1 -1</clus>
<clus scale="  116.869">  1  3  2 -1</clus>
</clustering>
</event>
<event>
 6    0  0.1438923E+002  0.1626222E+03  0.7546771E-02  0.1185768E+00
         21   -1    0    0  506  501  0.00000000000E+00  0.00000000000E+00  0.11692325379E+03  0.11692325379E+03  0.00000000000E+00 0.  1.
         21   -1    0    0  505  502 -0.00000000000E+00 -0.00000000000E+00 -0.98053065429E+03  0.98053065429E+03  0.00000000000E+00 0.  1.
         21    1    1    2  503  502  0.21308554006E+02 -0.29131543910E+02 -0.66480134322E+03  0.66578038968E+03  0.00000000000E+00 0.  1.
         21    1    1    2  504  503 -0.11239363867E+03 -0.13125649709E+03 -0.11875153066E+03  0.20967242088E+03  0.00000000000E+00 0.  1.
         21    1    1    2  505  501 -0.67464243928E+01  0.37934201222E+02 -0.48805334247E+02  0.62181014108E+02  0.00000000000E+00 0.  1.
         21    1    1    2  506  504  0.97831509060E+02  0.12245383977E+03 -0.31249192364E+02  0.15982008342E+03  0.00000000000E+00 0.  1.
<scales pt_clust_3="36.09295" pt_clust_4="14000.00000" pt_clust_5="32.94250" pt_clust_6="162.62223"></scales>
<clustering>
<clus scale="   36.093">  2  3  1 -1</clus>
<clus scale="   32.942">  2  5  1 -1</clus>
<clus scale="  162.622">  1  6  2 -1</clus>
<clus scale="  162.622">  1  3  2 -1</clus>
</clustering>
</event>
<event>
 6    0  0.1438923E+002  0.1580085E+03  0.7546771E-02  0.1190964E+00
         21   -1    0    0  504  501  0.00000000000E+00  0.00000000000E+00  0.38632573512E+03  0.38632573512E+03  0.00000000000E+00 0.  1.
         21   -1    0    0  501  502 -0.00000000000E+00 -0.00000000000E+00 -0.22917406512E+03  0.22917406512E+03  0.00000000000E+00 0.  1.
         21    1    1    2  503  505  0.63838894727E+02  0.55011552716E+02  0.50808637093E+01  0.84424466763E+02  0.00000000000E+00 0.  1.
         21    1    1    2  504  506 -0.14611952650E+03 -0.50922196953E+02  0.25935804107E+03  0.30201089324E+03  0.00000000000E+00 0.  1.
         21    1    1    2  505  502  0.21559241629E+02 -0.35248286208E+02 -0.14521882453E+03  0.15098261350E+03  0.00000000000E+00 0.  1.
         21    1    1    2  506  503  0.60721390144E+02  0.31158930446E+02  0.37931589752E+02  0.78081826751E+02  0.00000000000E+00 0. -1.
<scales pt_clust_3="36.19474" pt_clust_4="152.80409" pt_clust_5="41.31879" pt_clust_6="36.19474"></scales>
<clustering>
<clus scale="   36.195">  3  6 -1 -1</clus>
<clus scale="   41.319">  2  5  1 -1</clus>
<clus scale="  152.804">  1  4  2 -1</clus>
<clus scale="  152.804">  1  3  2 -1</clus>
</clustering>
</event>
<event>
 6    0  0.1438923E+002  0.1008623E+03  0.7546771E-02  0.1278493E+00
         21   -1    0    0  505  501  0.00000000000E+00  0.00000000000E+00  0.22412519954E+04  0.22412519954E+04  0.00000000000E+00 0.  1.
         21   -1    0    0  503  502 -0.00000000000E+00 -0.00000000000E+00 -0.15426728268E+03  0.15426728268E+03  0.00000000000E+00 0.  1.
         21    1    1    2  503  501  0.79195891532E+01  0.87507896862E+02 -0.95215771196E+02  0.12956232087E+03  0.00000000000E+00 0.  1.
         21    1    1    2  504  506 -0.31006267540E+02 -0.51660410456E+02  0.61857404011E+02  0.86351172930E+02  0.00000000000E+00 0.  1.
         21    1    1    2  505  504  0.54164744257E+02  0.47316453490E+02  0.20814283095E+04  0.20826705150E+04  0.00000000000E+00 0.  1.
         21    1    1    2  506  502 -0.31078065870E+02 -0.83163939896E+02  0.38914770366E+02  0.96935269277E+02  0.00000000000E+00 0.  1.
<scales pt_clust_3="93.62893" pt_clust_4="30.89876" pt_clust_5="71.92125" pt_clust_6="30.89876"></scales>
<clustering>
<clus scale="   30.899">  4  6 -1 -1</clus>
<clus scale="   71.921">  1  5  2 -1</clus>
<clus scale="   93.629">  2  3  1 -1</clus>
<clus scale="   71.921">  1  3  2 -1</clus>
</clustering>
</event>
<event>
 6    0  0.1438923E+002  0.1031068E+03  0.7546771E-02  0.1273895E+00
         21   -1    0    0  506  501  0.00000000000E+00  0.00000000000E+00  0.10367105241E+04  0.10367105241E+04  0.00000000000E+00 0. -1.
         21   -1    0    0  503  502 -0.00000000000E+00 -0.00000000000E+00 -0.83762577320E+02  0.83762577320E+02  0.00000000000E+00 0. -1.
         21    1    1    2  503  505  0.54844718639E+02  0.23588662237E+01  0.20205321256E+03  0.20937766862E+03  0.00000000000E+00 0. -1.
         21    1    1    2  504  502 -0.11146435495E+03  0.21597300480E+02 -0.31174041444E+02  0.11773940153E+03  0.00000000000E+00 0. -1.
         21    1    1    2  505  501  0.77191382509E+01 -0.35797789448E+02  0.65653184677E+02  0.75175843746E+02  0.00000000000E+00 0. -1.
         21    1    1    2  506  504  0.48900498061E+02  0.11841622745E+02  0.71641559102E+03  0.71818018756E+03  0.00000000000E+00 0. -1.
<scales pt_clust_3="103.10677" pt_clust_4="14000.00000" pt_clust_5="36.62058" pt_clust_6="56.58197"></scales>
<clustering>
<clus scale="   36.621">  1  5  2 -1</clus>
<clus scale="   56.582">  1  6  2 -1</clus>
<clus scale="  103.107">  1  3  2 -1</clus>
<clus scale="   36.621">  1  3  2 -1</clus>
</clustering>
</event>
<event>
 6    0  0.1438923E+002  0.9213972E+02  0.7546771E-02  0.1297751E+00
         21   -1    0    0  504  501  0.00000000000E+00  0.00000000000E+00  0.23612451558E+02  0.23612451558E+02  0.00000000000E+00 0.  1.
         21   -1    0    0  506  502 -0.00000000000E+00 -0.00000000000E+00 -0.27316752439E+04  0.27316752439E+04  0.00000000000E+00 0. -1.
         21    1    1    2  503  502 -0.53059142537E+02  0.79638349379E+02 -0.20770938283E+04  0.20792970714E+04  0.00000000000E+00 0. -1.
         21    1    1    2  504  503 -0.45454378587E+02 -0.48831607769E+02 -0.54153584049E+02  0.85925765143E+02  0.00000000000E+00 0.  1.
         21    1    1    2  505  501  0.37511183822E+02  0.22135834844E+02 -0.19811236629E+03  0.20284376691E+03  0.00000000000E+00 0. -1.
         21    1    1    2  506  505  0.61002337302E+02 -0.52942576453E+02 -0.37870301365E+03  0.38722109202E+03  0.00000000000E+00 0.  1.
<scales pt_clust_3="14000.00000" pt_clust_4="36.67515" pt_clust_5="43.55553" pt_clust_6="92.13972"></scales>
<clustering>
<clus scale="   43.556">  1  5  2 -1</clus>
<clus scale="   36.675">  1  4  2 -1</clus>
<clus scale="   92.140">  1  6  2 -1</clus>
<clus scale="   43.556">  1  3  2 -1</clus>
</clustering>
</event>
<event>
 6    0  0.1438923E+002  0.1216346E+03  0.7546771E-02  0.1240425E+00
         21   -1    0    0  503  501  0.00000000000E+00  0.00000000000E+00  0.57253650279E+02  0.57253650279E+02  0.00000000000E+00 0. -1.
         21   -1    0    0  504  502 -0.00000000000E+00 -0.00000000000E+00 -0.12574088211E+04  0.12574088211E+04  0.00000000000E+00 0.  1.
         21    1    1    2  503  505  0.12640330578E+03  0.36569488219E+02 -0.94591068021E+02  0.16205737666E+03  0.00000000000E+00 0. -1.
         21    1    1    2  504  506 -0.29800727127E+02 -0.19015019587E+02 -0.10448752780E+03  0.11030547481E+03  0.00000000000E+00 0.  1.
         21    1    1    2  505  502  0.17521619101E+02 -0.38497079729E+02 -0.85361415460E+03  0.85466142841E+03  0.00000000000E+00 0.  1.
         21    1    1    2  506  501 -0.11412419776E+03  0.20942611098E+02 -0.14746242037E+03  0.18763819146E+03  0.00000000000E+00 0.  1.
<scales pt_clust_3="14000.00000" pt_clust_4="35.35045" pt_clust_5="52.82165" pt_clust_6="121.63459"></scales>
<clustering>
<clus scale="   35.350">  2  4  1 -1</clus>
<clus scale="   52.822">  2  5  1 -1</clus>
<clus scale="  121.635">  2  6  1 -1</clus>
<clus scale="  121.635">  1  3  2 -1</clus>
</clustering>
</event>
<event>
 6    0  0.1438923E+002  0.1665019E+03  0.7546771E-02  0.1181546E+00
         21   -1    0    0  505  501  0.00000000000E+00  0.00000000000E+00  0.65316877663E+03  0.65316877663E+03  0.00000000000E+00 0. -1.
         21   -1    0    0  504  502 -0.00000000000E+00 -0.00000000000E+00 -0.22948503703E+03  0.22948503703E+03  0.00000000000E+00 0. -1.
         21    1    1    2  503  502  0.57156874297E+02  0.52101682258E+02 -0.16118807520E+03  0.17878223950E+03  0.00000000000E+00 0. -1.
         21    1    1    2  504  501 -0.17864704344E+03  0.24562169707E+02  0.13296342028E+03  0.22404762316E+03  0.00000000000E+00 0. -1.
         21    1    1    2  505  506  0.36094544625E+02 -0.52954396090E+02  0.11715689281E+03  0.13353921427E+03  0.00000000000E+00 0. -1.
         21    1    1    2  506  503  0.85395624518E+02 -0.23709455875E+02  0.33475150173E+03  0.34628473673E+03  0.00000000000E+00 0. -1.
<scales pt_clust_3="77.34012" pt_clust_4="149.50007" pt_clust_5="62.32947" pt_clust_6="62.32947"></scales>
<clustering>
<clus scale="   62.329">  5  6 -1 -1</clus>
<clus scale="   77.340">  2  3  1 -1</clus>
<clus scale="  149.500">  2  4  1 -1</clus>
<clus scale="  166.502">  1  3  2 -1</clus>
</clustering>
</event>
<event>
 6    0  0.1438923E+002  0.1681205E+03  0.7546771E-02  0.1179822E+00
         21   -1    0    0  505  501  0.00000000000E+00  0.00000000000E+00  0.19323981379E+03  0.19323981379E+03  0.00000000000E+00 0. -1.
         21   -1    0    0  504  502 -0.00000000000E+00 -0.00000000000E+00 -0.69826713702E+03  0.69826713702E+03  0.00000000000E+00 0.  1.
         21    1    1    2  503  506  0.36305526570E+02  0.42643687501E+02  0.37748784299E+02  0.67539218676E+02  0.00000000000E+00 0. -1.
         21    1    1    2  504  501  0.54381655918E+02  0.12331158726E+02 -0.81972758062E+01  0.56361487796E+02  0.00000000000E+00 0. -1.
         21    1    1    2  505  503  0.48332647800E+02  0.37801385712E+02  0.96729065256E+02  0.11454912339E+03  0.00000000000E+00 0. -1.
         21    1    1    2  506  502 -0.13901983029E+03 -0.92776231939E+02 -0.63130789697E+03  0.65305712094E+03  0.00000000000E+00 0.  1.
<scales pt_clust_3="36.21408" pt_clust_4="55.76219" pt_clust_5="36.21408" pt_clust_6="163.79153"></scales>
<clustering>
<clus scale="   36.214">  3  5 -1 -1</clus>
<clus scale="   55.762">  1  4  2 -1</clus>
<clus scale="  163.792">  2  6  1 -1</clus>
<clus scale="   55.762">  1  3  2 -1</clus>
</clustering>
</event>
<event>
 6    0  0.1438923E+002  0.1238266E+03  0.7546771E-02  0.1236915E+00
         21   -1    0    0  503  501  0.00000000000E+00  0.00000000000E+00  0.50450553903E+03  0.50450553903E+03  0.00000000000E+00 0. -1.
         21   -1    0    0  505  502 -0.00000000000E+00 -0.00000000000E+00 -0.54540182667E+02  0.54540182667E+02  0.00000000000E+00 0. -1.
         21    1    1    2  503  502  0.12257000028E+03 -0.18243274783E+02  0.63749337745E+02  0.13935637807E+03  0.00000000000E+00 0. -1.
         21    1    1    2  504  501 -0.18531107286E+02  0.28519698509E+02  0.19476511588E+03  0.19771248191E+03  0.00000000000E+00 0. -1.
         21    1    1    2  505  506 -0.66771752223E+02  0.11334447110E+02  0.98611301663E+02  0.11962911603E+03  0.00000000000E+00 0. -1.
         21    1    1    2  506  504 -0.37267140775E+02 -0.21610870836E+02  0.92839601072E+02  0.10234774569E+03  0.00000000000E+00 0. -1.
<scales pt_clust_3="116.80088" pt_clust_4="34.01140" pt_clust_5="32.79249" pt_clust_6="32.79249"></scales>
<clustering>
<clus scale="   32.792">  5  6 -1 -1</clus>
<clus scale="   34.011">  1  4  2 -1</clus>
<clus scale="  116.801">  2  3  1 -1</clus>
<clus scale="   34.011">  1  3  2 -1</clus>
</clustering>
</event>
<event>
 6    0  0.1438923E+002  0.1481722E+03  0.7546771E-02  0.1202737E+00
         21   -1    0    0  506  501  0.00000000000E+00  0.00000000000E+00  0.99553658238E+02  0.99553658238E+02  0.00000000000E+00 0.  1.
         21   -1    0    0  504  502 -0.00000000000E+00 -0.00000000000E+00 -0.65234842192E+03  0.65234842192E+03  0.00000000000E+00 0.  1.
         21    1    1    2  503  501  0.71771208377E+02 -0.59622388376E+02 -0.16533510337E+01  0.93320250306E+02  0.00000000000E+00 0.  1.
         21    1    1    2  504  503  0.12418653951E+02 -0.43826265520E+02 -0.33759056058E+02  0.56697781097E+02  0.00000000000E+00 0.  1.
         21    1    1    2  505  502 -0.36093572204E+02 -0.32627519291E+02 -0.43088439219E+03  0.43362271666E+03  0.00000000000E+00 0.  1.
         21    1    1    2  506  505 -0.48096290124E+02  0.13607617319E+03 -0.86497964398E+02  0.16826133209E+03  0.00000000000E+00 0.  1.
<scales pt_clust_3="41.11030" pt_clust_4="41.11030" pt_clust_5="48.65492" pt_clust_6="135.98968"></scales>
<clustering>
<clus scale="   41.110">  3  4 -1 -1</clus>
<clus scale="   48.655">  2  5  1 -1</clus>
<clus scale="  135.990">  2  6  1 -1</clus>
<clus scale="  148.172">  1  3  2 -1</clus>
</clustering>
</event>
<event>
 6    0  0.1438923E+002  0.1268877E+03  0.7546771E-02  0.1232148E+00
         21   -1    0    0  506  501  0.00000000000E+00  0.00000000000E+00  0.46260550102E+03  0.46260550102E+03  0.00000000000E+00 0.  1.
         21   -1    0    0  504  502 -0.00000000000E+00 -0.00000000000E+00 -0.10159887947E+03  0.10159887947E+03  0.00000000000E+00 0. -1.
         21    1    1    2  503  501  0.42144058038E+02 -0.80684061270E+01  0.10666070159E+03  0.11496836986E+03  0.00000000000E+00 0.  1.
         21    1    1    2  504  503 -0.27864179047E+01  0.13771929235E+03 -0.16734271413E+02  0.13876023728E+03  0.00000000000E+00 0. -1.
         21    1    1    2  505  502 -0.22753445828E+02 -0.10012121850E+03  0.13146068382E+03  0.16680494322E+03  0.00000000000E+00 0.  1.
         21    1    1    2  506  505 -0.16604194306E+02 -0.29529667723E+02  0.13961950754E+03  0.14367083013E+03  0.00000000000E+00 0.  1.
<scales pt_clust_3="40.73511" pt_clust_4="126.88766" pt_clust_5="14000.00000" pt_clust_6="33.87773"></scales>
<clustering>
<clus scale="   33.878">  1  6  2 -1</clus>
<clus scale="   40.735">  1  3  2 -1</clus>
<clus scale="  126.888">  2  4  1 -1</clus>
<clus scale="   33.878">  1  3  2 -1</clus>
</clustering>
</event>
<event>
 6    0  0.1438923E+002  0.7686858E+02  0.7546771E-02  0.1338180E+00
         21   -1    0    0  505  501  0.00000000000E+00  0.00000000000E+00  0.14547965091E+04  0.14547965091E+04  0.00000000000E+00 0. -1.
         21   -1    0    0  503  502 -0.00000000000E+00 -0.00000000000E+00 -0.57599881268E+02  0.57599881268E+02  0.00000000000E+00 0. -1.
         21    1    1    2  503  501  0.18447693674E+01  0.51176909603E+02  0.25292253591E+03  0.25805481669E+03  0.00000000000E+00 0. -1.
         21    1    1    2  504  502 -0.23762065172E+02  0.72943564206E+02 -0.18667237836E+02  0.78954829293E+02  0.00000000000E+00 0. -1.
         21    1    1    2  505  506 -0.46556027957E+02 -0.63175422728E+02  0.57903891487E+03  0.58433266442E+03  0.00000000000E+00 0. -1.
         21    1    1    2  506  504  0.68473323762E+02 -0.60945051081E+02  0.58390241492E+03  0.59105407999E+03  0.00000000000E+00 0. -1.
<scales pt_clust_3="51.21015" pt_clust_4="14000.00000" pt_clust_5="59.63186" pt_clust_6="76.86858"></scales>
<clustering>
<clus scale="   51.210">  1  3  2 -1</clus>
<clus scale="   59.632">  1  5  2 -1</clus>
<clus scale="   76.869">  1  6  2 -1</clus>
<clus scale="   51.210">  1  3  2 -1</clus>
</clustering>
</event>
<event>
 6    0  0.1438923E+002  0.1144173E+03  0.7546771E-02  0.1252602E+00
         21   -1    0    0  505  501  0.00000000000E+00  0.00000000000E+00  0.12898719366E+04  0.12898719366E+04  0.00000000000E+00 0.  1.
         21   -1    0    0  506  502 -0.00000000000E+00 -0.00000000000E+00 -0.76985479414E+02  0.76985479414E+02  0.00000000000E+00 0.  1.
         21    1    1    2  503  502  0.24068194395E+02 -0.22994014971E+02  0.61424609561E+02  0.69864049164E+02  0.00000000000E+00 0. -1.
         21    1    1    2  504  501  0.22602217291E+02  0.60843494446E+02  0.10281771414E+04  0.10302237743E+04  0.00000000000E+00 0.  1.
         21    1    1    2  505  503  0.33862088649E+02  0.46007419547E+02  0.13821043466E+03  0.14955082063E+03  0.00000000000E+00 0. -1.
         21    1    1    2  506  504 -0.80532500336E+02 -0.83856899022E+02 -0.14925728426E+02  0.11721877193E+03  0.00000000000E+00 0.  1.
<scales pt_clust_3="33.28667" pt_clust_4="14000.00000" pt_clust_5="56.85241" pt_clust_6="114.41733"></scales>
<clustering>
<clus scale="   33.287">  2  3  1 -1</clus>
<clus scale="   56.852">  1  5  2 -1</clus>
<clus scale="  114.417">  2  6  1 -1</clus>
<clus scale="   56.852">  1  3  2 -1</clus>
</clustering>
</event>
<event>
 6    0  0.1438923E+002  0.2287085E+03  0.7546771E-02  0.1127552E+00
         21   -1    0    0  503  501  0.00000000000E+00  0.00000000000E+00  0.59021416368E+02  0.59021416368E+02  0.00000000000E+00 0.  1.
         21   -1    0    0  504  502 -0.00000000000E+00 -0.00000000000E+00 -0.13091351371E+04  0.13091351371E+04  0.00000000000E+00 0.  1.
         21    1    1    2  503  506  0.20136507790E+03  0.56047186704E+02 -0.33023541335E+03  0.39082554927E+03  0.00000000000E+00 0.  1.
         21    1    1    2  504  505 -0.63840434812E+02 -0.48329845199E+02 -0.21759452608E+03  0.23185933847E+03  0.00000000000E+00 0.  1.
         21    1    1    2  505  501 -0.15622924844E+03 -0.36601246376E+02 -0.28736975592E+03  0.32913311277E+03  0.00000000000E+00 0.  1.
         21    1    1    2  506  502  0.18704605357E+02  0.28883904871E+02 -0.41491402542E+03  0.41633855300E+03  0.00000000000E+00 0.  1.
<scales pt_clust_3="219.60856" pt_clust_4="43.94031" pt_clust_5="43.94031" pt_clust_6="34.41137"></scales>
<clustering>
<clus scale="   34.411">  2  6  1 -1</clus>
<clus scale="   43.940">  4  5 -1 -1</clus>
<clus scale="  219.609">  1  3  2 -1</clus>
<clus scale="  219.609">  1  3  2 -1</clus>
</clustering>
</event>
<event>
 6    0  0.1438923E+002  0.8470706E+02  0.7546771E-02  0.1316200E+00
         21   -1    0    0  503  501  0.00000000000E+00  0.00000000000E+00  0.43688161302E+02  0.43688161302E+02  0.00000000000E+00 0. -1.
         21   -1    0    0  505  502 -0.00000000000E+00 -0.00000000000E+00 -0.92744991208E+03  0.92744991208E+03  0.00000000000E+00 0. -1.
         21    1    1    2  503  502  0.27941290741E+02  0.18567723609E+02 -0.58266947379E+02  0.67234762179E+02  0.00000000000E+00 0. -1.
         21    1    1    2  504  506 -0.16014785279E+02  0.49502462639E+02 -0.17308874472E+03  0.18073926166E+03  0.00000000000E+00 0. -1.
         21    1    1    2  505  504 -0.23892090359E+02  0.46808854915E+02 -0.58912447933E+03  0.59146390678E+03  0.00000000000E+00 0. -1.
         21    1    1    2  506  501  0.11965584897E+02 -0.11487904116E+03 -0.63281579356E+02  0.13170014277E+03  0.00000000000E+00 0. -1.
<scales pt_clust_3="33.54812" pt_clust_4="14000.00000" pt_clust_5="52.67761" pt_clust_6="84.70706"></scales>
<clustering>
<clus scale="   33.548">  1  3  2 -1</clus>
<clus scale="   52.678">  2  5  1 -1</clus>
<clus scale="   84.707">  1  6  2 -1</clus>
<clus scale="   33.548">  1  3  2 -1</clus>
</clustering>
</event>
<event>
 6    0  0.1438923E+002  0.1252326E+03  0.7546771E-02  0.1234706E+00
         21   -1    0    0  505  501  0.00000000000E+00  0.00000000000E+00  0.78401839971E+03  0.78401839971E+03  0.00000000000E+00 0. -1.
         21   -1    0    0  503  502 -0.00000000000E+00 -0.00000000000E+00 -0.42733272076E+02  0.42733272076E+02  0.00000000000E+00 0. -1.
         21    1    1    2  503  504  0.12416847006E+02 -0.43443109728E+02  0.10805736795E+03  0.11712333944E+03  0.00000000000E+00 0. -1.
         21    1    1    2  504  501  0.34639144599E+02 -0.29772652070E+02  0.21198327794E+03  0.21684831398E+03  0.00000000000E+00 0. -1.
         21    1    1    2  505  506 -0.29790343071E+02 -0.61629611615E+02  0.30897953809E+03  0.31647121279E+03  0.00000000000E+00 0. -1.
         21    1    1    2  506  502 -0.17265648533E+02  0.13484537341E+03  0.11226494365E+03  0.17630880557E+03  0.00000000000E+00 0. -1.
<scales pt_clust_3="38.98272" pt_clust_4="38.98272" pt_clust_5="68.45198" pt_clust_6="118.94107"></scales>
<clustering>
<clus scale="   38.983">  3  4 -1 -1</clus>
<clus scale="   68.452">  1  5  2 -1</clus>
<clus scale="  118.941">  2  6  1 -1</clus>
<clus scale="   68.452">  1  3  2 -1</clus>
</clustering>
</event>
<event>
 6    0  0.1438923E+002  0.1044138E+03  0.7546771E-02  0.1271279E+00
         21   -1    0    0  504  501  0.00000000000E+00  0.00000000000E+00  0.12796272940E+03  0.12796272940E+03  0.00000000000E+00 0. -1.
         21   -1    0    0  506  502 -0.00000000000E+00 -0.00000000000E+00 -0.70041129316E+03  0.70041129316E+03  0.00000000000E+00 0. -1.
         21    1    1    2  503  501  0.36995938002E+02 -0.44483581336E+02  0.28250791818E+02  0.64386300371E+02  0.00000000000E+00 0. -1.
         21    1    1    2  504  502  0.13426929415E+02  0.11342312337E+03  0.17081455752E+01  0.11422786486E+03  0.00000000000E+00 0. -1.
         21    1    1    2  505  503  0.37993650865E+02 -0.28279042691E+02 -0.87320189375E+01  0.48160875369E+02  0.00000000000E+00 0.  1.
         21    1    1    2  506  505 -0.88416518282E+02 -0.40660499348E+02 -0.59367548221E+03  0.60159898196E+03  0.00000000000E+00 0. -1.
<scales pt_clust_3="33.46484" pt_clust_4="97.64325" pt_clust_5="33.46484" pt_clust_6="97.31781"></scales>
<clustering>
<clus scale="   33.465">  3  5 -1 -1</clus>
<clus scale="   97.318">  2  6  1 -1</clus>
<clus scale="   97.643">  2  4  1 -1</clus>
<clus scale="  104.414">  1  3  2 -1</clus>
</clustering>
</event>
<event>
 6    0  0.1438923E+002  0.1155630E+03  0.7546771E-02  0.1250602E+00
         21   -1    0    0  505  501  0.00000000000E+00  0.00000000000E+00  0.92829808550E+03  0.92829808550E+03  0.00000000000E+00 0. -1.
         21   -1    0    0  504  502 -0.00000000000E+00 -0.00000000000E+00 -0.19262649385E+03  0.19262649385E+03  0.00000000000E+00 0.  1.
         21    1    1    2  503  501  0.58295546173E+02  0.22142514898E+01  0.40469617255E+03  0.40887928009E+03  0.00000000000E+00 0. -1.
         21    1    1    2  504  503  0.64920499463E+02 -0.33170132389E+02  0.43151635038E+03  0.43763145406E+03  0.00000000000E+00 0. -1.
         21    1    1    2  505  506 -0.13253506848E+02  0.35887850372E+02  0.65115054020E+02  0.75521940574E+02  0.00000000000E+00 0.  1.
         21    1    1    2  506  502 -0.10996253879E+03 -0.49319694725E+01 -0.16565598531E+03  0.19889190463E+03  0.00000000000E+00 0.  1.
<scales pt_clust_3="30.83997" pt_clust_4="30.83997" pt_clust_5="38.25694" pt_clust_6="110.30065"></scales>
<clustering>
<clus scale="   30.840">  3  4 -1 -1</clus>
<clus scale="   38.257">  1  5  2 -1</clus>
<clus scale="  110.301">  2  6  1 -1</clus>
<clus scale="   38.257">  1  3  2 -1</clus>
</clustering>
</event>
<event>
 6    0  0.1438923E+002  0.1016633E+03  0.7546771E-02  0.1276837E+00
         21   -1    0    0  505  501  0.00000000000E+00  0.00000000000E+00  0.52406134197E+03  0.52406134197E+03  0.00000000000E+00 0. -1.
         21   -1    0    0  504  502 -0.00000000000E+00 -0.00000000000E+00 -0.10618042015E+03  0.10618042015E+03  0.00000000000E+00 0. -1.
         21    1    1    2  503  501  0.10711795501E+03 -0.65315212571E+02  0.27742754353E+03  0.30447721620E+03  0.00000000000E+00 0. -1.
         21    1    1    2  504  503 -0.73452151992E+02  0.43524158866E+01 -0.35365656520E+02  0.81638788682E+02  0.00000000000E+00 0. -1.
         21    1    1    2  505  506 -0.44363314580E+02 -0.38367793764E+02  0.10947885187E+03  0.12420068553E+03  0.00000000000E+00 0. -1.
         21    1    1    2  506  502  0.10697511562E+02  0.99330590448E+02  0.66340182934E+02  0.11992507171E+03  0.00000000000E+00 0.  1.
<scales pt_clust_3="101.66329" pt_clust_4="76.00374" pt_clust_5="58.65314" pt_clust_6="14000.00000"></scales>
<clustering>
<clus scale="   58.653">  1  5  2 -1</clus>
<clus scale="   76.004">  2  4  1 -1</clus>
<clus scale="  101.663">  1  3  2 -1</clus>
<clus scale="   58.653">  1  3  2 -1</clus>
</clustering>
</event>
<event>
 6    0  0.1438923E+002  0.8135987E+02  0.7546771E-02  0.1325236E+00
         21   -1    0    0  503  501  0.00000000000E+00  0.00000000000E+00  0.84832669384E+03  0.84832669384E+03  0.00000000000E+00 0.  1.
         21   -1    0    0  505  502 -0.00000000000E+00 -0.00000000000E+00 -0.17100483126E+03  0.17100483126E+03  0.00000000000E+00 0.  1.
         21    1    1    2  503  504  0.72617891791E+02 -0.27388863724E+02  0.55319358106E+03  0.55861135523E+03  0.00000000000E+00 0.  1.
         21    1    1    2  504  502  0.54876630133E+02 -0.16238370331E+02  0.99001839092E+02  0.11435249604E+03  0.00000000000E+00 0. -1.
         21    1    1    2  505  506 -0.38369545794E+02 -0.54126521007E+01 -0.14393566970E+03  0.14906037656E+03  0.00000000000E+00 0.  1.
         21    1    1    2  506  501 -0.89124976130E+02  0.49039886155E+02  0.16906211212E+03  0.19730729727E+03  0.00000000000E+00 0.  1.
<scales pt_clust_3="14000.00000" pt_clust_4="46.46029" pt_clust_5="38.74944" pt_clust_6="81.35987"></scales>
<clustering>
<clus scale="   38.749">  2  5  1 -1</clus>
<clus scale="   46.460">  2  4  1 -1</clus>
<clus scale="   81.360">  2  6  1 -1</clus>
<clus scale="   81.360">  1  3  2 -1</clus>
</clustering>
</event>
<event>
 6    0  0.1438923E+002  0.8882011E+02  0.7546771E-02  0.1305734E+00
         21   -1    0    0  506  501  0.00000000000E+00  0.00000000000E+00  0.36709001724E+03  0.36709001724E+03  0.00000000000E+00 0. -1.
         21   -1    0    0  505  502 -0.00000000000E+00 -0.00000000000E+00 -0.25690221710E+03  0.25690221710E+03  0.00000000000E+00 0. -1.
         21    1    1    2  503  502 -0.61745506622E+02  0.19792053015E+02  0.11544923616E+02  0.65859837624E+02  0.00000000000E+00 0.  1.
         21    1    1    2  504  501  0.87907781098E+02 -0.18053914092E+02  0.20286599329E+03  0.22182951343E+03  0.00000000000E+00 0. -1.
         21    1    1    2  505  504 -0.32139422004E+02  0.41194630685E+02 -0.21294351116E+03  0.21925984354E+03  0.00000000000E+00 0. -1.
         21    1    1    2  506  503  0.59771475270E+01 -0.42932769608E+02  0.10872039438E+03  0.11704303975E+03  0.00000000000E+00 0. -1.
<scales pt_clust_3="88.82011" pt_clust_4="14000.00000" pt_clust_5="51.78332" pt_clust_6="43.34685"></scales>
<clustering>
<clus scale="   43.347">  1  6  2 -1</clus>
<clus scale="   51.783">  2  5  1 -1</clus>
<clus scale="   88.820">  2  3  1 -1</clus>
<clus scale="   43.347">  1  3  2 -1</clus>
</clustering>
</event>
<event>
 6    0  0.1438923E+002  0.1411348E+03  0.7546771E-02  0.1211810E+00
         21   -1    0    0  503  501  0.00000000000E+00  0.00000000000E+00  0.51867114523E+03  0.51867114523E+03  0.00000000000E+00 0.  1.
         21   -1    0    0  501  502 -0.00000000000E+00 -0.00000000000E+00 -0.11094629552E+03  0.11094629552E+03  0.00000000000E+00 0.  1.
         21    1    1    2  503  505 -0.99535131175E+02 -0.20022348413E+02  0.25730731815E+03  0.27661379710E+03  0.00000000000E+00 0.  1.
         21    1    1    2  504  502  0.12641381529E+03 -0.85013248126E+02 -0.11848280491E+02  0.15280080761E+03  0.00000000000E+00 0.  1.
         21    1    1    2  505  506 -0.29543377352E+02  0.35662672846E+02  0.81152236005E+02  0.93436196351E+02  0.00000000000E+00 0.  1.
         21    1    1    2  506  504  0.26646932336E+01  0.69372923693E+02  0.81113576054E+02  0.10676663970E+03  0.00000000000E+00 0.  1.
<scales pt_clust_3="101.52899" pt_clust_4="133.87674" pt_clust_5="36.48952" pt_clust_6="36.48952"></scales>
<clustering>
<clus scale="   36.490">  5  6 -1 -1</clus>
<clus scale="  101.529">  1  3  2 -1</clus>
<clus scale="  133.877">  2  4  1 -1</clus>
<clus scale="  101.529">  1  3  2 -1</clus>
</clustering>
</event>
<event>
 6    0  0.1438923E+002  0.2439937E+03  0.7546771E-02  0.1117161E+00
         21   -1    0    0  504  501  0.00000000000E+00  0.00000000000E+00  0.57639606648E+03  0.57639606648E+03  0.00000000000E+00 0. -1.
         21   -1    0    0  505  502 -0.00000000000E+00 -0.00000000000E+00 -0.93006952243E+03  0.93006952243E+03  0.00000000000E+00 0.  1.
         21    1    1    2  503  502 -0.18646254471E+03 -0.15543221088E+03 -0.82377181016E+03  0.85879418254E+03  0.00000000000E+00 0.  1.
         21    1    1    2  504  506 -0.67444544748E+02 -0.32239251663E+01  0.91716239367E+02  0.11389042485E+03  0.00000000000E+00 0. -1.
         21    1    1    2  505  501 -0.19661338426E+02  0.60577663337E+02  0.98489117006E+01  0.64445500896E+02  0.00000000000E+00 0. -1.
         21    1    1    2  506  503  0.27356842788E+03  0.98078472707E+02  0.36853320315E+03  0.46933548061E+03  0.00000000000E+00 0. -1.
<scales pt_clust_3="243.99374" pt_clust_4="71.67788" pt_clust_5="63.68847" pt_clust_6="14000.00000"></scales>
<clustering>
<clus scale="   63.688">  1  5  2 -1</clus>
<clus scale="   71.678">  1  4  2 -1</clus>
<clus scale="  243.994">  2  3  1 -1</clus>
<clus scale="   63.688">  1  3  2 -1</clus>
</clustering>
</event>
<event>
 6    0  0.1438923E+002  0.1071950E+03  0.7546771E-02  0.1265854E+00
         21   -1    0    0  503  501  0.00000000000E+00  0.00000000000E+00  0.13509093901E+04  0.13509093901E+04  0.00000000000E+00 0. -1.
         21   -1    0    0  506  502 -0.00000000000E+00 -0.00000000000E+00 -0.18278069372E+04  0.18278069372E+04  0.00000000000E+00 0.  1.
         21    1    1    2  503  504 -0.63685770801E+02  0.44034568823E+02  0.72995638664E+03  0.73405125642E+03  0.00000000000E+00 0. -1.
         21    1    1    2  504  502  0.14728145201E+03  0.33688700067E+02  0.17599238692E+03  0.23194843149E+03  0.00000000000E+00 0.  1.
         21    1    1    2  505  501 -0.45012459371E+02 -0.21598684277E+02  0.41278541338E+03  0.41579372550E+03  0.00000000000E+00 0. -1.
         21    1    1    2  506  505 -0.38583221838E+02 -0.56124584612E+02 -0.17956317341E+04  0.17969229139E+04  0.00000000000E+00 0.  1.
<scales pt_clust_3="14000.00000" pt_clust_4="107.19496" pt_clust_5="49.92619" pt_clust_6="68.13736"></scales>
<clustering>
<clus scale="   49.926">  1  5  2 -1</clus>
<clus scale="   68.137">  2  6  1 -1</clus>
<clus scale="  107.195">  2  4  1 -1</clus>
<clus scale="   49.926">  1  3  2 -1</clus>
</clustering>
</event>
<event>
 6    0  0.1438923E+002  0.1536709E+03  0.7546771E-02  0.1196033E+00
         21   -1    0    0  505  501  0.00000000000E+00  0.00000000000E+00  0.24796707187E+03  0.24796707187E+03  0.00000000000E+00 0.  1.
         21   -1    0    0  504  502 -0.00000000000E+00 -0.00000000000E+00 -0.91765451247E+03  0.91765451247E+03  0.00000000000E+00 0. -1.
         21    1    1    2  503  501 -0.70790852441E+02  0.62307664820E+02  0.10514758404E+03  0.14124306819E+03  0.00000000000E+00 0.  1.
         21    1    1    2  504  506  0.11626055558E+03 -0.14826694399E+03 -0.82990324983E+03  0.85102233081E+03  0.00000000000E+00 0. -1.
         21    1    1    2  505  502 -0.24947141600E+02  0.34121833317E+02 -0.43158928265E+02  0.60409870650E+02  0.00000000000E+00 0. -1.
         21    1    1    2  506  503 -0.20522561541E+02  0.51837445848E+02  0.98227153457E+02  0.11294631468E+03  0.00000000000E+00 0.  1.
<scales pt_clust_3="33.37096" pt_clust_4="147.41454" pt_clust_5="42.26889" pt_clust_6="33.37096"></scales>
<clustering>
<clus scale="   33.371">  3  6 -1 -1</clus>
<clus scale="   42.269">  2  5  1 -1</clus>
<clus scale="  147.415">  2  4  1 -1</clus>
<clus scale="  153.671">  1  3  2 -1</clus>
</clustering>
</event>
<event>
 6    0  0.1438923E+002  0.1001740E+03  0.7546771E-02  0.1279930E+00
         21   -1    0    0  505  501  0.00000000000E+00  0.00000000000E+00  0.33486531068E+03  0.33486531068E+03  0.00000000000E+00 0. -1.
         21   -1    0    0  506  502 -0.00000000000E+00 -0.00000000000E+00 -0.11898905844E+03  0.11898905844E+03  0.00000000000E+00 0.  1.
         21    1    1    2  503  504  0.84549057586E+02 -0.40968303853E+02  0.13958743317E+03  0.16826050207E+03  0.00000000000E+00 0. -1.
         21    1    1    2  504  502 -0.56417370245E+02  0.98070717837E+02  0.98975365556E+02  0.15032268076E+03  0.00000000000E+00 0.  1.
         21    1    1    2  505  503 -0.16696571481E+01 -0.32708797397E+02  0.46738828131E+02  0.57071632509E+02  0.00000000000E+00 0.  1.
         21    1    1    2  506  501 -0.26462030192E+02 -0.24393616587E+02 -0.69425374616E+02  0.78199553788E+02  0.00000000000E+00 0.  1.
<scales pt_clust_3="100.17401" pt_clust_4="14000.00000" pt_clust_5="32.75138" pt_clust_6="36.35460"></scales>
<clustering>
<clus scale="   32.751">  1  5  2 -1</clus>
<clus scale="   36.355">  2  6  1 -1</clus>
<clus scale="  100.174">  1  3  2 -1</clus>
<clus scale="   32.751">  1  3  2 -1</clus>
</clustering>
</event>
<event>
 6    0  0.1438923E+002  0.1153972E+03  0.7546771E-02  0.1250889E+00
         21   -1    0    0  505  501  0.00000000000E+00  0.00000000000E+00  0.27718308430E+03  0.27718308430E+03  0.00000000000E+00 0.  1.
         21   -1    0    0  503  502 -0.00000000000E+00 -0.00000000000E+00 -0.17223988211E+03  0.17223988211E+03  0.00000000000E+00 0. -1.
         21    1    1    2  503  506 -0.96797189829E+02 -0.72014749858E+02 -0.11365492779E+03  0.16575060412E+03  0.00000000000E+00 0. -1.
         21    1    1    2  504  501  0.22591873783E+02  0.37967539650E+02  0.16807756892E+02  0.47269731540E+02  0.00000000000E+00 0.  1.
         21    1    1    2  505  502  0.22054199995E+02 -0.28367974163E+02  0.31913087899E+02  0.48058036526E+02  0.00000000000E+00 0.  1.
         21    1    1    2  506  504  0.52151116050E+02  0.62415184370E+02  0.16987728520E+03  0.18834459422E+03  0.00000000000E+00 0.  1.
<scales pt_clust_3="14000.00000" pt_clust_4="42.65113" pt_clust_5="35.93229" pt_clust_6="115.39719"></scales>
<clustering>
<clus scale="   35.932">  1  5  2 -1</clus>
<clus scale="   42.651">  1  4  2 -1</clus>
<clus scale="  115.397">  1  6  2 -1</clus>
<clus scale="   35.932">  1  3  2 -1</clus>
</clustering>
</event>
<event>
 6    0  0.1438923E+002  0.8555309E+02  0.7546771E-02  0.1313992E+00
         21   -1    0    0  504  501  0.00000000000E+00  0.00000000000E+00  0.68172291146E+03  0.68172291146E+03  0.00000000000E+00 0. -1.
         21   -1    0    0  505  502 -0.00000000000E+00 -0.00000000000E+00 -0.30574791817E+02  0.30574791817E+02  0.00000000000E+00 0. -1.
         21    1    1    2  503  506 -0.82276734625E+02 -0.60200361822E+01  0.23117626506E+03  0.24545502118E+03  0.00000000000E+00 0. -1.
         21    1    1    2  504  503  0.13668752515E+02  0.35433148509E+02  0.11118581897E+03  0.11749310256E+03  0.00000000000E+00 0. -1.
         21    1    1    2  505  501 -0.10328511062E+02  0.45468817295E+02  0.48700804525E+02  0.67422991986E+02  0.00000000000E+00 0. -1.
         21    1    1    2  506  502  0.78936493172E+02 -0.74881929622E+02  0.26008523109E+03  0.28192658756E+03  0.00000000000E+00 0. -1.
<scales pt_clust_3="85.55309" pt_clust_4="37.97819" pt_clust_5="49.90029" pt_clust_6="14000.00000"></scales>
<clustering>
<clus scale="   37.978">  1  4  2 -1</clus>
<clus scale="   49.900">  2  5  1 -1</clus>
<clus scale="   85.553">  1  3  2 -1</clus>
<clus scale="   37.978">  1  3  2 -1</clus>
</clustering>
</event>
<event>
 6    0  0.1438923E+002  0.8832205E+02  0.7546771E-02  0.1306967E+00
         21   -1    0    0  505  501  0.00000000000E+00  0.00000000000E+00  0.50530629737E+02  0.50530629737E+02  0.00000000000E+00 0.  1.
         21   -1    0    0  504  502 -0.00000000000E+00 -0.00000000000E+00 -0.15550730877E+04  0.15550730877E+04  0.00000000000E+00 0. -1.
         21    1    1    2  503  501  0.19648410838E+02  0.28929540904E+02  0.39956953855E+01  0.35198635869E+02  0.00000000000E+00 0.  1.
         21    1    1    2  504  503  0.39759838005E+02  0.15723353100E+02 -0.98283682639E+02  0.10718092565E+03  0.00000000000E+00 0. -1.
         21    1    1    2  505  506 -0.12313802152E+03 -0.99593743427E+02 -0.22590453210E+03  0.27588900612E+03  0.00000000000E+00 0. -1.
         21    1    1    2  506  502  0.63729772673E+02  0.54940849422E+02 -0.11843499386E+04  0.11873351498E+04  0.00000000000E+00 0. -1.
<scales pt_clust_3="34.97111" pt_clust_4="46.99885" pt_clust_5="88.32205" pt_clust_6="14000.00000"></scales>
<clustering>
<clus scale="   34.971">  1  3  2 -1</clus>
<clus scale="   46.999">  1  4  2 -1</clus>
<clus scale="   88.322">  1  5  2 -1</clus>
<clus scale="   34.971">  1  3  2 -1</clus>
</clustering>
</event>
<event>
 6    0  0.1438923E+002  0.1252380E+03  0.7546771E-02  0.1234698E+00
         21   -1    0    0  504  501  0.00000000000E+00  0.00000000000E+00  0.41306134844E+03  0.41306134844E+03  0.00000000000E+00 0.  1.
         21   -1    0    0  506  502 -0.00000000000E+00 -0.00000000000E+00 -0.29999766605E+03  0.29999766605E+03  0.00000000000E+00 0. -1.
         21    1    1    2  503  502  0.67097876314E+01 -0.12210131371E+03 -0.25543228167E+03  0.28319499039E+03  0.00000000000E+00 0. -1.
         21    1    1    2  504  505  0.56137796676E+01  0.46572203300E+02  0.41414058039E+02  0.62574825973E+02  0.00000000000E+00 0. -1.
         21    1    1    2  505  503  0.49072599674E+02  0.39870605379E+02  0.48182378948E+02  0.79494193833E+02  0.00000000000E+00 0.  1.
         21    1    1    2  506  501 -0.61396166973E+02  0.35658505035E+02  0.27889952707E+03  0.28779500430E+03  0.00000000000E+00 0.  1.
<scales pt_clust_3="118.28540" pt_clust_4="35.44209" pt_clust_5="35.44209" pt_clust_6="71.00013"></scales>
<clustering>
<clus scale="   35.442">  4  5 -1 -1</clus>
<clus scale="   71.000">  1  6  2 -1</clus>
<clus scale="  118.285">  2  3  1 -1</clus>
<clus scale="   71.000">  1  3  2 -1</clus>
</clustering>
</event>
<event>
 6    0  0.1438923E+002  0.1380845E+03  0.7546771E-02  0.1215930E+00
         21   -1    0    0  502  501  0.00000000000E+00  0.00000000000E+00  0.10161199082E+03  0.10161199082E+03  0.00000000000E+00 0. -1.
         21   -1    0    0  506  502 -0.00000000000E+00 -0.00000000000E+00 -0.51792173675E+03  0.51792173675E+03  0.00000000000E+00 0.  1.
         21    1    1    2  503  501 -0.56389534864E+02  0.62995372747E+01  0.59444663576E+01  0.57050858822E+02  0.00000000000E+00 0. -1.
         21    1    1    2  504  505  0.16685741040E+02  0.41511226981E+02 -0.39368514136E+01  0.44912077648E+02  0.00000000000E+00 0. -1.
         21    1    1    2  505  503 -0.35306428434E+02  0.63180488620E+02  0.59852365662E+01  0.72623281995E+02  0.00000000000E+00 0. -1.
         21    1    1    2  506  504  0.75010222258E+02 -0.11099125288E+03 -0.42430259745E+03  0.44494750911E+03  0.00000000000E+00 0.  1.
<scales pt_clust_3="56.74032" pt_clust_4="39.33696" pt_clust_5="39.33696" pt_clust_6="128.70140"></scales>
<clustering>
<clus scale="   39.337">  4  5 -1 -1</clus>
<clus scale="   56.740">  1  3  2 -1</clus>
<clus scale="  128.701">  2  6  1 -1</clus>
<clus scale="   56.740">  1  3  2 -1</clus>
</clustering>
</event>
<event>
 6    0  0.1438923E+002  0.1237785E+03  0.7546771E-02  0.1236991E+00
         21   -1    0    0  503  501  0.00000000000E+00  0.00000000000E+00  0.13553258300E+04  0.13553258300E+04  0.00000000000E+00 0.  1.
         21   -1    0    0  506  502 -0.00000000000E+00 -0.00000000000E+00 -0.16524937035E+03  0.16524937035E+03  0.00000000000E+00 0.  1.
         21    1    1    2  503  504  0.69519374513E+02 -0.98542538171E+02  0.11737753293E+04  0.11799542783E+04  0.00000000000E+00 0.  1.
         21    1    1    2  504  502 -0.30624962051E+02  0.21947482002E+01 -0.14319823955E+03  0.14645286283E+03  0.00000000000E+00 0.  1.
         21    1    1    2  505  501 -0.34529486270E+02  0.35775070712E+02  0.64977332641E+02  0.81818059520E+02  0.00000000000E+00 0.  1.
         21    1    1    2  506  505 -0.43649261918E+01  0.60572719259E+02  0.94522037318E+02  0.11234999972E+03  0.00000000000E+00 0.  1.
<scales pt_clust_3="117.70984" pt_clust_4="30.70351" pt_clust_5="36.97659" pt_clust_6="36.97659"></scales>
<clustering>
<clus scale="   30.704">  2  4  1 -1</clus>
<clus scale="   36.977">  5  6 -1 -1</clus>
<clus scale="  117.710">  1  3  2 -1</clus>
<clus scale="  117.710">  1  3  2 -1</clus>
</clustering>
</event>
<event>
 6    0  0.1438923E+002  0.1343544E+03  0.7546771E-02  0.1221134E+00
         21   -1    0    0  504  501  0.00000000000E+00  0.00000000000E+00  0.34727591268E+03  0.34727591268E+03  0.00000000000E+00 0. -1.
         21   -1    0    0  503  502 -0.00000000000E+00 -0.00000000000E+00 -0.57613901049E+03  0.57613901049E+03  0.00000000000E+00 0. -1.
         21    1    1    2  503  506  0.11438730319E+03 -0.15521775055E+03  0.12714054573E+03  0.23095827239E+03  0.00000000000E+00 0. -1.
         21    1    1    2  504  505 -0.51300563503E+02  0.85041737467E+02  0.12079736488E+03  0.15638365736E+03  0.00000000000E+00 0.  1.
         21    1    1    2  505  502 -0.23759156952E+02  0.78721393414E+02 -0.48753503870E+03  0.49442084228E+03  0.00000000000E+00 0. -1.
         21    1    1    2  506  501 -0.39327582737E+02 -0.85453803277E+01  0.10734030286E+02  0.41652151145E+02  0.00000000000E+00 0.  1.
<scales pt_clust_3="134.35440" pt_clust_4="14000.00000" pt_clust_5="82.26393" pt_clust_6="40.24528"></scales>
<clustering>
<clus scale="   40.245">  1  6  2 -1</clus>
<clus scale="   82.264">  2  5  1 -1</clus>
<clus scale="  134.354">  2  3  1 -1</clus>
<clus scale="   40.245">  1  3  2 -1</clus>
</clustering>
</event>
<event>
 6    0  0.1438923E+002  0.9706423E+02  0.7546771E-02  0.1286593E+00
         21   -1    0    0  505  501  0.00000000000E+00  0.00000000000E+00  0.70055437738E+02  0.70055437738E+02  0.00000000000E+00 0. -1.
         21   -1    0    0  504  502 -0.00000000000E+00 -0.00000000000E+00 -0.97979704617E+03  0.97979704617E+03  0.00000000000E+00 0.  1.
         21    1    1    2  503  502  0.23368216540E+02 -0.19151906490E+02 -0.64849951629E+03  0.64920296649E+03  0.00000000000E+00 0.  1.
         21    1    1    2  504  501  0.71252632590E+02 -0.57948195647E+02 -0.22355322066E+03  0.24168362273E+03  0.00000000000E+00 0.  1.
         21    1    1    2  505  506 -0.12297086022E+02  0.69961228539E+02 -0.95464311242E+01  0.71672352902E+02  0.00000000000E+00 0. -1.
         21    1    1    2  506  503 -0.82323763107E+02  0.71388735991E+01 -0.28142440357E+02  0.87293541787E+02  0.00000000000E+00 0. -1.
<scales pt_clust_3="30.21372" pt_clust_4="97.06423" pt_clust_5="68.26556" pt_clust_6="14000.00000"></scales>
<clustering>
<clus scale="   30.214">  2  3  1 -1</clus>
<clus scale="   68.266">  1  5  2 -1</clus>
<clus scale="   97.064">  2  4  1 -1</clus>
<clus scale="   68.266">  1  3  2 -1</clus>
</clustering>
</event>
<event>
 6    0  0.1438923E+002  0.1544136E+03  0.7546771E-02  0.1195152E+00
         21   -1    0    0  504  501  0.00000000000E+00  0.00000000000E+00  0.17301411719E+03  0.17301411719E+03  0.00000000000E+00 0.  1.
         21   -1    0    0  505  502 -0.00000000000E+00 -0.00000000000E+00 -0.47652397862E+03  0.47652397862E+03  0.00000000000E+00 0.  1.
         21    1    1    2  503  506  0.37706915793E+02 -0.13529942183E+02  0.29682460371E+02  0.49858994051E+02  0.00000000000E+00 0.  1.
         21    1    1    2  504  502 -0.13397488052E+03 -0.28307041512E+02 -0.42915062340E+03  0.45046732931E+03  0.00000000000E+00 0.  1.
         21    1    1    2  505  503  0.49149515321E+02  0.26959173290E+02  0.21901656052E+02  0.60184336987E+02  0.00000000000E+00 0.  1.
         21    1    1    2  506  501  0.47118449408E+02  0.14877810406E+02  0.74056645543E+02  0.89027435469E+02  0.00000000000E+00 0. -1.
<scales pt_clust_3="32.84354" pt_clust_4="136.93267" pt_clust_5="46.40355" pt_clust_6="46.40355"></scales>
<clustering>
<clus scale="   32.844">  3  6 -1 -1</clus>
<clus scale="   46.404">  3  5 -1 -1</clus>
<clus scale="  136.933">  2  4  1 -1</clus>
<clus scale="  154.414">  1  3  2 -1</clus>
</clustering>
</event>
<event>
 6    0  0.1438923E+002  0.1098938E+03  0.7546771E-02  0.1260767E+00
         21   -1    0    0  506  501  0.00000000000E+00  0.00000000000E+00  0.65452876972E+03  0.65452876972E+03  0.00000000000E+00 0. -1.
         21   -1    0    0  504  502 -0.00000000000E+00 -0.00000000000E+00 -0.17246366027E+03  0.17246366027E+03  0.00000000000E+00 0. -1.
         21    1    1    2  503  505  0.24808839168E+02 -0.32151907898E+02  0.46238120236E+02  0.61540128740E+02  0.00000000000E+00 0. -1.
         21    1    1    2  504  501 -0.39585461896E+02  0.76434127319E+02  0.37533559668E+03  0.38507920581E+03  0.00000000000E+00 0. -1.
         21    1    1    2  505  502  0.25703796919E+02  0.62216437164E+02 -0.13873474576E+03  0.15420408526E+03  0.00000000000E+00 0. -1.
         21    1    1    2  506  503 -0.10927174191E+02 -0.10649865658E+03  0.19922613829E+03  0.22616901019E+03  0.00000000000E+00 0. -1.
<scales pt_clust_3="34.33152" pt_clust_4="94.70737" pt_clust_5="67.31694" pt_clust_6="34.33152"></scales>
<clustering>
<clus scale="   34.332">  3  6 -1 -1</clus>
<clus scale="   67.317">  2  5  1 -1</clus>
<clus scale="   94.707">  1  4  2 -1</clus>
<clus scale="   94.707">  1  3  2 -1</clus>
</clustering>
</event>
<event>
 6    0  0.1438923E+002  0.9476577E+02  0.7546771E-02  0.1291705E+00
         21   -1    0    0  506  501  0.00000000000E+00  0.00000000000E+00  0.91994313923E+03  0.91994313923E+03  0.00000000000E+00 0.  1.
         21   -1    0    0  505  502 -0.00000000000E+00 -0.00000000000E+00 -0.52181720534E+02  0.52181720534E+02  0.00000000000E+00 0.  1.
         21    1    1    2  503  501  0.51614803875E+02 -0.13210517612E+02  0.42189124878E+03  0.42524208582E+03  0.00000000000E+00 0. -1.
         21    1    1    2  504  502  0.49659777848E+02 -0.34628155267E+02  0.12303619128E+03  0.13712442174E+03  0.00000000000E+00 0.  1.
         21    1    1    2  505  503 -0.81060153712E+02  0.83824035080E+02  0.39025410420E+02  0.12296422258E+03  0.00000000000E+00 0.  1.
         21    1    1    2  506  504 -0.20214428011E+02 -0.35985362201E+02  0.28380856821E+03  0.28679412962E+03  0.00000000000E+00 0.  1.
<scales pt_clust_3="53.28498" pt_clust_4="14000.00000" pt_clust_5="94.76577" pt_clust_6="41.27432"></scales>
<clustering>
<clus scale="   41.274">  1  6  2 -1</clus>
<clus scale="   53.285">  1  3  2 -1</clus>
<clus scale="   94.766">  2  5  1 -1</clus>
<clus scale="   41.274">  1  3  2 -1</clus>
</clustering>
</event>
<event>
 6    0  0.1438923E+002  0.1252348E+03  0.7546771E-02  0.1234703E+00
         21   -1    0    0  504  501  0.00000000000E+00  0.00000000000E+00  0.26289726899E+03  0.26289726899E+03  0.00000000000E+00 0.  1.
         21   -1    0    0  505  502 -0.00000000000E+00 -0.00000000000E+00 -0.19674903030E+03  0.19674903030E+03  0.00000000000E+00 0.  1.
         21    1    1    2  503  501 -0.39365039920E+02 -0.10932778246E+03  0.12449764859E+03  0.17029925099E+03  0.00000000000E+00 0.  1.
         21    1    1    2  504  506  0.51390568577E+02  0.24797693434E+02  0.39120608461E+02  0.69183366098E+02  0.00000000000E+00 0.  1.
         21    1    1    2  505  503 -0.82214115424E+02  0.36387239510E+02 -0.10069310820E+03  0.13498997745E+03  0.00000000000E+00 0.  1.
         21    1    1    2  506  502  0.70188586767E+02  0.48142849515E+02  0.32230898429E+01  0.85173704744E+02  0.00000000000E+00 0.  1.
<scales pt_clust_3="117.27086" pt_clust_4="35.98291" pt_clust_5="89.90657" pt_clust_6="35.98291"></scales>
<clustering>
<clus scale="   35.983">  4  6 -1 -1</clus>
<clus scale="   89.907">  2  5  1 -1</clus>
<clus scale="  117.271">  1  3  2 -1</clus>
<clus scale="  117.271">  1  3  2 -1</clus>
</clustering>
</event>
<event>
 6    0  0.1438923E+002  0.8589277E+02  0.7546771E-02  0.1313114E+00
         21   -1    0    0  503  501  0.00000000000E+00  0.00000000000E+00  0.26093006740E+03  0.26093006740E+03  0.00000000000E+00 0.  1.
         21   -1    0    0  506  502 -0.00000000000E+00 -0.00000000000E+00 -0.14242134303E+03  0.14242134303E+03  0.00000000000E+00 0.  1.
         21    1    1    2  503  505 -0.39481903650E+02  0.23103407372E+02  0.39758571253E+02  0.60608020394E+02  0.00000000000E+00 0.  1.
         21    1    1    2  504  501  0.36616375062E+02 -0.66980296247E+02  0.80057092451E+02  0.11061761641E+03  0.00000000000E+00 0.  1.
         21    1    1    2  505  502 -0.51452011939E+02 -0.30578439713E+02  0.86263272297E+02  0.10499382199E+03  0.00000000000E+00 0.  1.
         21    1    1    2  506  504  0.54317540527E+02  0.74455328588E+02 -0.87570211631E+02  0.12713195165E+03  0.00000000000E+00 0.  1.
<scales pt_clust_3="45.74482" pt_clust_4="59.55903" pt_clust_5="14000.00000" pt_clust_6="85.89277"></scales>
<clustering>
<clus scale="   45.745">  1  3  2 -1</clus>
<clus scale="   59.559">  1  4  2 -1</clus>
<clus scale="   85.893">  2  6  1 -1</clus>
<clus scale="   45.745">  1  3  2 -1</clus>
</clustering>
</event>
<event>
 6    0  0.1438923E+002  0.1523731E+03  0.7546771E-02  0.1197587E+00
         21   -1    0    0  504  501  0.00000000000E+00  0.00000000000E+00  0.11896260145E+04  0.11896260145E+04  0.00000000000E+00 0.  1.
         21   -1    0    0  505  502 -0.00000000000E+00 -0.00000000000E+00 -0.37742728020E+03  0.37742728020E+03  0.00000000000E+00 0.  1.
         21    1    1    2  503  506 -0.45339507037E+02 -0.39852145192E+02  0.51255973368E+03  0.51610206836E+03  0.00000000000E+00 0. -1.
         21    1    1    2  504  503 -0.58064755223E+02  0.10016021458E+02  0.55695473972E+03  0.56006287020E+03  0.00000000000E+00 0.  1.
         21    1    1    2  505  501 -0.36587781464E+02 -0.28150023202E+01  0.99582433458E+02  0.10612846482E+03  0.00000000000E+00 0.  1.
         21    1    1    2  506  502  0.13999204372E+03  0.32651126054E+02 -0.35689817259E+03  0.38475989128E+03  0.00000000000E+00 0.  1.
<scales pt_clust_3="51.03881" pt_clust_4="51.03881" pt_clust_5="36.69591" pt_clust_6="143.28440"></scales>
<clustering>
<clus scale="   36.696">  1  5  2 -1</clus>
<clus scale="   51.039">  3  4 -1 -1</clus>
<clus scale="  143.284">  2  6  1 -1</clus>
<clus scale="   36.696">  1  3  2 -1</clus>
</clustering>
</event>
<event>
 6    0  0.1438923E+002  0.2758414E+03  0.7546771E-02  0.1097982E+00
         21   -1    0    0  506  501  0.00000000000E+00  0.00000000000E+00  0.46846123870E+03  0.46846123870E+03  0.00000000000E+00 0.  1.
         21   -1    0    0  504  502 -0.00000000000E+00 -0.00000000000E+00 -0.21930456569E+03  0.21930456569E+03  0.00000000000E+00 0.  1.
         21    1    1    2  503  502 -0.49803597201E+02  0.19089726854E+01  0.76529524426E+02  0.91328038300E+02  0.00000000000E+00 0. -1.
         21    1    1    2  504  501  0.23233212016E+03  0.89401589109E+02 -0.77027041459E+02  0.26058400432E+03  0.00000000000E+00 0.  1.
         21    1    1    2  505  503 -0.75108423692E+02 -0.17318224986E+01  0.43757777468E+02  0.86942611000E+02  0.00000000000E+00 0. -1.
         21    1    1    2  506  505 -0.10742009927E+03 -0.89578739296E+02  0.20589641257E+03  0.24891115076E+03  0.00000000000E+00 0.  1.
<scales pt_clust_3="33.66476" pt_clust_4="248.93947" pt_clust_5="95.21362" pt_clust_6="95.21362"></scales>
<clustering>
<clus scale="   33.665">  3  5 -1 -1</clus>
<clus scale="   95.214">  3  6 -1 -1</clus>
<clus scale="  248.939">  2  4  1 -1</clus>
<clus scale="  275.841">  1  3  2 -1</clus>
</clustering>
</event>
<event>
 6    0  0.1438923E+002  0.2282948E+03  0.7546771E-02  0.1127846E+00
         21   -1    0    0  506  501  0.00000000000E+00  0.00000000000E+00  0.58531683868E+03  0.58531683868E+03  0.00000000000E+00 0.  1.
         21   -1    0    0  505  502 -0.00000000000E+00 -0.00000000000E+00 -0.67624818155E+03  0.67624818155E+03  0.00000000000E+00 0.  1.
         21    1    1    2  503  501 -0.61808136816E+02  0.87810368859E+02  0.21039148805E+03  0.23621067905E+03  0.00000000000E+00 0.  1.
         21    1    1    2  504  503 -0.59551189468E+02  0.77572774960E+02  0.27403106480E+03  0.29095859510E+03  0.00000000000E+00 0.  1.
         21    1    1    2  505  504  0.16751373933E+03 -0.15274566044E+03 -0.62535992713E+03  0.66518202629E+03  0.00000000000E+00 0.  1.
         21    1    1    2  506  502 -0.46154413048E+02 -0.12637483383E+02  0.50006031401E+02  0.69213719785E+02  0.00000000000E+00 0.  1.
<scales pt_clust_3="32.53876" pt_clust_4="32.53876" pt_clust_5="225.73422" pt_clust_6="47.85327"></scales>
<clustering>
<clus scale="   32.539">  3  4 -1 -1</clus>
<clus scale="   47.853">  1  6  2 -1</clus>
<clus scale="  225.734">  2  5  1 -1</clus>
<clus scale="   47.853">  1  3  2 -1</clus>
</clustering>
</event>
<event>
 6    0  0.1438923E+002  0.1183632E+03  0.7546771E-02  0.1245822E+00
         21   -1    0    0  503  501  0.00000000000E+00  0.00000000000E+00  0.64415261976E+03  0.64415261976E+03  0.00000000000E+00 0. -1.
         21   -1    0    0  506  502 -0.00000000000E+00 -0.00000000000E+00 -0.80216801084E+03  0.80216801084E+03  0.00000000000E+00 0.  1.
         21    1    1    2  503  502  0.25472796605E+02 -0.24759760675E+02  0.25757893032E+02  0.43879131361E+02  0.00000000000E+00 0. -1.
         21    1    1    2  504  501 -0.73106700813E+02  0.40839946484E+02  0.46074284860E+03  0.46829100298E+03  0.00000000000E+00 0. -1.
         21    1    1    2  505  504 -0.66413320089E+02  0.21126905332E+02  0.13154816976E+03  0.14886905717E+03  0.00000000000E+00 0.  1.
         21    1    1    2  506  505  0.11404722430E+03 -0.37207091141E+02 -0.77606430247E+03  0.78528143909E+03  0.00000000000E+00 0.  1.
<scales pt_clust_3="35.52336" pt_clust_4="58.00722" pt_clust_5="118.36324" pt_clust_6="14000.00000"></scales>
<clustering>
<clus scale="   35.523">  1  3  2 -1</clus>
<clus scale="   58.007">  1  4  2 -1</clus>
<clus scale="  118.363">  1  5  2 -1</clus>
<clus scale="   35.523">  1  3  2 -1</clus>
</clustering>
</event>
<event>
 6    0  0.1438923E+002  0.8290441E+02  0.7546771E-02  0.1321005E+00
         21   -1    0    0  505  501  0.00000000000E+00  0.00000000000E+00  0.45370494537E+03  0.45370494537E+03  0.00000000000E+00 0. -1.
         21   -1    0    0  503  502 -0.00000000000E+00 -0.00000000000E+00 -0.30960069797E+03  0.30960069797E+03  0.00000000000E+00 0. -1.
         21    1    1    2  503  506 -0.74381479363E+02  0.79589525630E+02  0.75210577646E+02  0.13237721878E+03  0.00000000000E+00 0.  1.
         21    1    1    2  504  501  0.20058285724E+02 -0.37546629505E+02  0.24782322886E+03  0.25145265355E+03  0.00000000000E+00 0. -1.
         21    1    1    2  505  502 -0.11170194067E+02 -0.30395991842E+02 -0.26708351242E+03  0.26903957360E+03  0.00000000000E+00 0. -1.
         21    1    1    2  506  504  0.65493387706E+02 -0.11646904283E+02  0.88153953312E+02  0.11043619740E+03  0.00000000000E+00 0. -1.
<scales pt_clust_3="82.90441" pt_clust_4="43.52270" pt_clust_5="32.38348" pt_clust_6="14000.00000"></scales>
<clustering>
<clus scale="   32.383">  2  5  1 -1</clus>
<clus scale="   43.523">  1  4  2 -1</clus>
<clus scale="   82.904">  2  3  1 -1</clus>
<clus scale="   43.523">  1  3  2 -1</clus>
</clustering>
</event>
<event>
 6    0  0.1438923E+002  0.1926083E+03  0.7546771E-02  0.1156130E+00
         21   -1    0    0  504  501  0.00000000000E+00  0.00000000000E+00  0.19813147898E+03  0.19813147898E+03  0.00000000000E+00 0. -1.
         21   -1    0    0  503  502 -0.00000000000E+00 -0.00000000000E+00 -0.49752270124E+03  0.49752270124E+03  0.00000000000E+00 0.  1.
         21    1    1    2  503  501 -0.54955307562E+02 -0.32737193259E+02 -0.23521973574E+01  0.64010487298E+02  0.00000000000E+00 0. -1.
         21    1    1    2  504  505 -0.55108795436E+02 -0.13240602829E+02  0.70655642360E+02  0.90578765144E+02  0.00000000000E+00 0. -1.
         21    1    1    2  505  506 -0.77704006065E+02  0.39065682603E+02  0.37279770814E+02  0.94624634360E+02  0.00000000000E+00 0. -1.
         21    1    1    2  506  502  0.18776810906E+03  0.69121134855E+01 -0.40497443807E+03  0.44644029342E+03  0.00000000000E+00 0.  1.
<scales pt_clust_3="63.96725" pt_clust_4="53.20639" pt_clust_5="53.20639" pt_clust_6="180.98030"></scales>
<clustering>
<clus scale="   53.206">  4  5 -1 -1</clus>
<clus scale="   63.967">  1  3  2 -1</clus>
<clus scale="  180.980">  2  6  1 -1</clus>
<clus scale="   63.967">  1  3  2 -1</clus>
</clustering>
</event>
<event>
 6    0  0.1438923E+002  0.7415245E+02  0.7546771E-02  0.1346516E+00
         21   -1    0    0  504  501  0.00000000000E+00  0.00000000000E+00  0.60887843998E+02  0.60887843998E+02  0.00000000000E+00 0.  1.
         21   -1    0    0  506  502 -0.00000000000E+00 -0.00000000000E+00 -0.15305952655E+04  0.15305952655E+04  0.00000000000E+00 0.  1.
         21    1    1    2  503  501  0.74661662362E+02  0.61378349558E+02 -0.17968235054E+02  0.98308306323E+02  0.00000000000E+00 0.  1.
         21    1    1    2  504  505 -0.39074208989E+02 -0.14716746977E+02 -0.32759684248E+02  0.53071398717E+02  0.00000000000E+00 0. -1.
         21    1    1    2  505  502 -0.62026353296E+02 -0.73394220915E+02 -0.21454253710E+03  0.23507973199E+03  0.00000000000E+00 0. -1.
         21    1    1    2  506  503  0.26438899923E+02  0.26732618334E+02 -0.12044369651E+04  0.12050236724E+04  0.00000000000E+00 0.  1.
<scales pt_clust_3="74.15245" pt_clust_4="37.31171" pt_clust_5="14000.00000" pt_clust_6="37.59851"></scales>
<clustering>
<clus scale="   37.599">  2  6  1 -1</clus>
<clus scale="   37.312">  1  4  2 -1</clus>
<clus scale="   74.152">  1  3  2 -1</clus>
<clus scale="   37.312">  1  3  2 -1</clus>
</clustering>
</event>
<event>
 6    0  0.1438923E+002  0.1955412E+03  0.7546771E-02  0.1153556E+00
         21   -1    0    0  503  501  0.00000000000E+00  0.00000000000E+00  0.44149917495E+03  0.44149917495E+03  0.00000000000E+00 0.  1.
         21   -1    0    0  506  502 -0.00000000000E+00 -0.00000000000E+00 -0.49973822924E+03  0.49973822924E+03  0.00000000000E+00 0.  1.
         21    1    1    2  503  502 -0.89280671044E+02  0.25891238314E+02 -0.40127417965E+03  0.41190091247E+03  0.00000000000E+00 0.  1.
         21    1    1    2  504  501 -0.92375828685E+02 -0.14750949185E+03  0.18079862224E+03  0.25095913157E+03  0.00000000000E+00 0.  1.
         21    1    1    2  505  504  0.71545176834E+02  0.71757102347E+02  0.10022955610E+03  0.14252634136E+03  0.00000000000E+00 0.  1.
         21    1    1    2  506  505  0.11011132290E+03  0.49861151192E+02  0.62006947016E+02  0.13585101879E+03  0.00000000000E+00 0.  1.
<scales pt_clust_3="92.95910" pt_clust_4="186.69007" pt_clust_5="53.25557" pt_clust_6="53.25557"></scales>
<clustering>
<clus scale="   53.256">  5  6 -1 -1</clus>
<clus scale="   92.959">  2  3  1 -1</clus>
<clus scale="  186.690">  1  4  2 -1</clus>
<clus scale="  186.690">  1  3  2 -1</clus>
</clustering>
</event>
<event>
 6    0  0.1438923E+002  0.9802822E+02  0.7546771E-02  0.1284498E+00
         21   -1    0    0  506  501  0.00000000000E+00  0.00000000000E+00  0.80594847125E+03  0.80594847125E+03  0.00000000000E+00 0. -1.
         21   -1    0    0  505  502 -0.00000000000E+00 -0.00000000000E+00 -0.49138083635E+02  0.49138083635E+02  0.00000000000E+00 0. -1.
         21    1    1    2  503  502 -0.89239965261E+02 -0.46586937995E+02  0.29874690003E+02  0.10500767255E+03  0.00000000000E+00 0. -1.
         21    1    1    2  504  501 -0.20841239431E+02  0.29356278742E+02  0.90002698808E+02  0.96936237576E+02  0.00000000000E+00 0. -1.
         21    1    1    2  505  504  0.16549680125E+02  0.35293521943E+02  0.91558583494E+02  0.99511299935E+02  0.00000000000E+00 0. -1.
         21    1    1    2  506  503  0.93531524567E+02 -0.18062862691E+02  0.54537441531E+03  0.55363134482E+03  0.00000000000E+00 0. -1.
<scales pt_clust_3="98.02822" pt_clust_4="36.00206" pt_clust_5="41.57144" pt_clust_6="14000.00000"></scales>
<clustering>
<clus scale="   36.002">  1  4  2 -1</clus>
<clus scale="   41.571">  1  5  2 -1</clus>
<clus scale="   98.028">  2  3  1 -1</clus>
<clus scale="   36.002">  1  3  2 -1</clus>
</clustering>
</event>
<event>
 6    0  0.1438923E+002  0.1688320E+03  0.7546771E-02  0.1179071E+00
         21   -1    0    0  506  501  0.00000000000E+00  0.00000000000E+00  0.63768154052E+03  0.63768154052E+03  0.00000000000E+00 0. -1.
         21   -1    0    0  503  502 -0.00000000000E+00 -0.00000000000E+00 -0.90195721801E+03  0.90195721801E+03  0.00000000000E+00 0. -1.
         21    1    1    2  503  504  0.16050597354E+03  0.12627685407E+03 -0.82472919155E+03  0.84963889436E+03  0.00000000000E+00 0. -1.
         21    1    1    2  504  501  0.50233061775E+02 -0.55731659760E+02  0.34303741765E+03  0.35114676177E+03  0.00000000000E+00 0. -1.
         21    1    1    2  505  502 -0.35782125811E+02 -0.14910418551E+02 -0.15958401671E+02  0.41920778772E+02  0.00000000000E+00 0.  1.
         21    1    1    2  506  505 -0.17495690951E+03 -0.55634775763E+02  0.23337449808E+03  0.29693232363E+03  0.00000000000E+00 0. -1.
<scales pt_clust_3="168.83202" pt_clust_4="74.96955" pt_clust_5="38.76443" pt_clust_6="14000.00000"></scales>
<clustering>
<clus scale="   38.764">  2  5  1 -1</clus>
<clus scale="   74.970">  1  4  2 -1</clus>
<clus scale="  168.832">  2  3  1 -1</clus>
<clus scale="   74.970">  1  3  2 -1</clus>
</clustering>
</event>
<event>
 6    0  0.1438923E+002  0.1180146E+03  0.7546771E-02  0.1246409E+00
         21   -1    0    0  504  501  0.00000000000E+00  0.00000000000E+00  0.41275745806E+03  0.41275745806E+03  0.00000000000E+00 0.  1.
         21   -1    0    0  503  502 -0.00000000000E+00 -0.00000000000E+00 -0.93073951787E+02  0.93073951787E+02  0.00000000000E+00 0.  1.
         21    1    1    2  503  506 -0.25165204781E+02  0.64535902548E+02 -0.61082813491E+01  0.69537625430E+02  0.00000000000E+00 0.  1.
         21    1    1    2  504  505 -0.57073316485E+02 -0.13786738414E+03  0.22272490264E+03  0.26808797310E+03  0.00000000000E+00 0.  1.
         21    1    1    2  505  502  0.36183130464E+02 -0.63910353037E+01  0.11863625425E+02  0.38611007118E+02  0.00000000000E+00 0.  1.
         21    1    1    2  506  501  0.46055390802E+02  0.79722516895E+02  0.91203259560E+02  0.12959480420E+03  0.00000000000E+00 0.  1.
<scales pt_clust_3="62.02028" pt_clust_4="118.01462" pt_clust_5="36.74322" pt_clust_6="14000.00000"></scales>
<clustering>
<clus scale="   36.743">  2  5  1 -1</clus>
<clus scale="   62.020">  2  3  1 -1</clus>
<clus scale="  118.015">  2  4  1 -1</clus>
<clus scale="  118.015">  1  3  2 -1</clus>
</clustering>
</event>
<event>
 6    0  0.1438923E+002  0.8020021E+02  0.7546771E-02  0.1328484E+00
         21   -1    0    0  504  501  0.00000000000E+00  0.00000000000E+00  0.25583890302E+04  0.25583890302E+04  0.00000000000E+00 0. -1.
         21   -1    0    0  505  502 -0.00000000000E+00 -0.00000000000E+00 -0.22622256904E+03  0.22622256904E+03  0.00000000000E+00 0.  1.
         21    1    1    2  503  501  0.52030071413E+01  0.69710196893E+02  0.11860028026E+04  0.11880611225E+04  0.00000000000E+00 0. -1.
         21    1    1    2  504  506 -0.10159741176E+02 -0.33266324159E+02  0.21557486959E+03  0.21836298464E+03  0.00000000000E+00 0. -1.
         21    1    1    2  505  503 -0.73403263018E+02 -0.18991631447E+02  0.11458953988E+04  0.11484010563E+04  0.00000000000E+00 0. -1.
         21    1    1    2  506  502  0.78359997053E+02 -0.17452241287E+02 -0.21530660985E+03  0.22978643586E+03  0.00000000000E+00 0.  1.
<scales pt_clust_3="52.84516" pt_clust_4="34.78317" pt_clust_5="80.20021" pt_clust_6="14000.00000"></scales>
<clustering>
<clus scale="   34.783">  1  4  2 -1</clus>
<clus scale="   52.845">  1  3  2 -1</clus>
<clus scale="   80.200">  1  5  2 -1</clus>
<clus scale="   34.783">  1  3  2 -1</clus>
</clustering>
</event>
<event>
 6    0  0.1438923E+002  0.1500036E+03  0.7546771E-02  0.1200469E+00
         21   -1    0    0  505  501  0.00000000000E+00  0.00000000000E+00  0.29675098898E+03  0.29675098898E+03  0.00000000000E+00 0. -1.
         21   -1    0    0  504  502 -0.00000000000E+00 -0.00000000000E+00 -0.16369443098E+04  0.16369443098E+04  0.00000000000E+00 0. -1.
         21    1    1    2  503  502  0.14653650232E+03 -0.10537179762E+03 -0.59554866978E+02  0.19006037047E+03  0.00000000000E+00 0. -1.
         21    1    1    2  504  501  0.20470759965E+02  0.13525076257E+03 -0.14406920566E+04  0.14471715250E+04  0.00000000000E+00 0. -1.
         21    1    1    2  505  506 -0.41958812980E+02  0.34023102985E+02 -0.28723965914E+02  0.61181531047E+02  0.00000000000E+00 0. -1.
         21    1    1    2  506  503 -0.12504844930E+03 -0.63902067940E+02  0.18877756870E+03  0.23528187224E+03  0.00000000000E+00 0. -1.
<scales pt_clust_3="14000.00000" pt_clust_4="137.10820" pt_clust_5="54.01957" pt_clust_6="150.00362"></scales>
<clustering>
<clus scale="   54.020">  1  5  2 -1</clus>
<clus scale="  137.108">  2  4  1 -1</clus>
<clus scale="  150.004">  1  6  2 -1</clus>
<clus scale="   54.020">  1  3  2 -1</clus>
</clustering>
</event>
<event>
 6    0  0.1438923E+002  0.2274460E+03  0.7546771E-02  0.1128450E+00
         21   -1    0    0  506  501  0.00000000000E+00  0.00000000000E+00  0.62926216119E+02  0.62926216119E+02  0.00000000000E+00 0.  1.
         21   -1    0    0  505  502 -0.00000000000E+00 -0.00000000000E+00 -0.23949369926E+04  0.23949369926E+04  0.00000000000E+00 0.  1.
         21    1    1    2  503  504  0.86491077165E+02 -0.18788133915E+03 -0.10461182674E+04  0.10663693232E+04  0.00000000000E+00 0.  1.
         21    1    1    2  504  502  0.41972406690E+02 -0.33018549418E+02 -0.95728552043E+03  0.95877394372E+03  0.00000000000E+00 0.  1.
         21    1    1    2  505  501 -0.64961549140E+02  0.35900403896E+02 -0.15216621500E+03  0.16930268413E+03  0.00000000000E+00 0.  1.
         21    1    1    2  506  503 -0.63501934715E+02  0.18499948467E+03 -0.17644077365E+03  0.26341725769E+03  0.00000000000E+00 0.  1.
<scales pt_clust_3="227.44596" pt_clust_4="53.40325" pt_clust_5="68.33250" pt_clust_6="14000.00000"></scales>
<clustering>
<clus scale="   53.403">  2  4  1 -1</clus>
<clus scale="   68.332">  1  5  2 -1</clus>
<clus scale="  227.446">  2  3  1 -1</clus>
<clus scale="   68.332">  1  3  2 -1</clus>
</clustering>
</event>
<event>
 6    0  0.1438923E+002  0.1072267E+03  0.7546771E-02  0.1265794E+00
         21   -1    0    0  504  501  0.00000000000E+00  0.00000000000E+00  0.25415308086E+03  0.25415308086E+03  0.00000000000E+00 0. -1.
         21   -1    0    0  505  502 -0.00000000000E+00 -0.00000000000E+00 -0.67692753057E+03  0.67692753057E+03  0.00000000000E+00 0. -1.
         21    1    1    2  503  501  0.18564447479E+02 -0.92029525460E+02  0.82259056699E+02  0.12482237250E+03  0.00000000000E+00 0. -1.
         21    1    1    2  504  506 -0.88207713085E+01  0.40589754406E+02  0.61999450768E+01  0.41997303344E+02  0.00000000000E+00 0. -1.
         21    1    1    2  505  503 -0.93087918705E+02  0.55769446536E+02 -0.61872829009E+03  0.62817218080E+03  0.00000000000E+00 0. -1.
         21    1    1    2  506  502  0.83344242535E+02 -0.43296754823E+01  0.10749483860E+03  0.13608875479E+03  0.00000000000E+00 0. -1.
<scales pt_clust_3="75.19125" pt_clust_4="41.53714" pt_clust_5="14000.00000" pt_clust_6="107.22667"></scales>
<clustering>
<clus scale="   41.537">  1  4  2 -1</clus>
<clus scale="   75.191">  1  3  2 -1</clus>
<clus scale="  107.227">  1  6  2 -1</clus>
<clus scale="   41.537">  1  3  2 -1</clus>
</clustering>
</event>
<event>
 6    0  0.1438923E+002  0.1133270E+03  0.7546771E-02  0.1254530E+00
         21   -1    0    0  504  501  0.00000000000E+00  0.00000000000E+00  0.96586903017E+02  0.96586903017E+02  0.00000000000E+00 0.  1.
         21   -1    0    0  506  502 -0.00000000000E+00 -0.00000000000E+00 -0.69615708267E+03  0.69615708267E+03  0.00000000000E+00 0. -1.
         21    1    1    2  503  505 -0.72252238395E+02 -0.16744363784E+02  0.46685288840E+02  0.87637183122E+02  0.00000000000E+00 0.  1.
         21    1    1    2  504  502 -0.32614304428E+02  0.28506442679E+02 -0.15061034274E+02  0.45860057576E+02  0.00000000000E+00 0.  1.
         21    1    1    2  505  501 -0.83897713421E+01 -0.39728256180E+02 -0.41261015600E+02  0.57889498276E+02  0.00000000000E+00 0. -1.
         21    1    1    2  506  503  0.11325631416E+03  0.27966177285E+02 -0.58993341862E+03  0.60135724672E+03  0.00000000000E+00 0. -1.
<scales pt_clust_3="113.32697" pt_clust_4="40.33381" pt_clust_5="40.60447" pt_clust_6="14000.00000"></scales>
<clustering>
<clus scale="   40.604">  1  5  2 -1</clus>
<clus scale="   40.334">  1  4  2 -1</clus>
<clus scale="  113.327">  1  3  2 -1</clus>
<clus scale="   40.604">  1  3  2 -1</clus>
</clustering>
</event>
<event>
 6    0  0.1438923E+002  0.1332366E+03  0.7546771E-02  0.1222731E+00
         21   -1    0    0  505  501  0.00000000000E+00  0.00000000000E+00  0.10781127722E+04  0.10781127722E+04  0.00000000000E+00 0.  1.
         21   -1    0    0  504  502 -0.00000000000E+00 -0.00000000000E+00 -0.24234439277E+03  0.24234439277E+03  0.00000000000E+00 0. -1.
         21    1    1    2  503  502  0.79288846989E+01  0.31455023411E+02 -0.19573185283E+03  0.19840172359E+03  0.00000000000E+00 0. -1.
         21    1    1    2  504  501 -0.49608833187E+02  0.13202718184E+03  0.77604477507E+03  0.78875706399E+03  0.00000000000E+00 0.  1.
         21    1    1    2  505  506  0.57077467307E+02 -0.80310348661E+02  0.48691675469E+02  0.10990208659E+03  0.00000000000E+00 0. -1.
         21    1    1    2  506  503 -0.15397518819E+02 -0.83171856593E+02  0.20676378173E+03  0.22339629081E+03  0.00000000000E+00 0.  1.
<scales pt_clust_3="32.43895" pt_clust_4="133.23661" pt_clust_5="14000.00000" pt_clust_6="78.64003"></scales>
<clustering>
<clus scale="   32.439">  2  3  1 -1</clus>
<clus scale="   78.640">  2  6  1 -1</clus>
<clus scale="  133.237">  1  4  2 -1</clus>
<clus scale="  133.237">  1  3  2 -1</clus>
</clustering>
</event>
<event>
 6    0  0.1438923E+002  0.9496552E+02  0.7546771E-02  0.1291254E+00
         21   -1    0    0  504  501  0.00000000000E+00  0.00000000000E+00  0.12950814392E+04  0.12950814392E+04  0.00000000000E+00 0. -1.
         21   -1    0    0  505  502 -0.00000000000E+00 -0.00000000000E+00 -0.62049450446E+03  0.62049450446E+03  0.00000000000E+00 0.  1.
         21    1    1    2  503  501 -0.11487378537E+03 -0.41778608592E+02  0.26078893793E+03  0.28801442472E+03  0.00000000000E+00 0.  1.
         21    1    1    2  504  506  0.38203737675E+02 -0.37225284737E+02  0.75163037880E+03  0.75352071884E+03  0.00000000000E+00 0. -1.
         21    1    1    2  505  503  0.64744138860E+01  0.60707906105E+02 -0.59945073358E+03  0.60255169894E+03  0.00000000000E+00 0.  1.
         21    1    1    2  506  502  0.70195633812E+02  0.18295987224E+02  0.26161835163E+03  0.27148910119E+03  0.00000000000E+00 0.  1.
<scales pt_clust_3="94.96552" pt_clust_4="53.34086" pt_clust_5="60.95808" pt_clust_6="14000.00000"></scales>
<clustering>
<clus scale="   53.341">  1  4  2 -1</clus>
<clus scale="   60.958">  2  5  1 -1</clus>
<clus scale="   94.966">  2  3  1 -1</clus>
<clus scale="   53.341">  1  3  2 -1</clus>
</clustering>
</event>
<event>
 6    0  0.1438923E+002  0.1392844E+03  0.7546771E-02  0.1214295E+00
         21   -1    0    0  505  501  0.00000000000E+00  0.00000000000E+00  0.81181450995E+03  0.81181450995E+03  0.00000000000E+00 0.  1.
         21   -1    0    0  503  502 -0.00000000000E+00 -0.00000000000E+00 -0.11776396345E+03  0.11776396345E+03  0.00000000000E+00 0. -1.
         21    1    1    2  503  506  0.54116321021E+02  0.30125014429E+02 -0.77254913166E+02  0.99017242455E+02  0.00000000000E+00 0. -1.
         21    1    1    2  504  502 -0.57905437627E+02 -0.29741093587E+02  0.26928289162E+03  0.27703943415E+03  0.00000000000E+00 0. -1.
         21    1    1    2  505  504 -0.89984253119E+02  0.61086256413E+01  0.41743615990E+03  0.42706841221E+03  0.00000000000E+00 0.  1.
         21    1    1    2  506  501  0.93773369725E+02 -0.64925464832E+01  0.84586408148E+02  0.12645338458E+03  0.00000000000E+00 0.  1.
<scales pt_clust_3="61.93620" pt_clust_4="35.59009" pt_clust_5="35.59009" pt_clust_6="132.83526"></scales>
<clustering>
<clus scale="   35.590">  4  5 -1 -1</clus>
<clus scale="   61.936">  2  3  1 -1</clus>
<clus scale="  132.835">  2  6  1 -1</clus>
<clus scale="  139.284">  1  3  2 -1</clus>
</clustering>
</event>
<event>
 6    0  0.1438923E+002  0.1153237E+03  0.7546771E-02  0.1251017E+00
         21   -1    0    0  504  501  0.00000000000E+00  0.00000000000E+00  0.18066705984E+03  0.18066705984E+03  0.00000000000E+00 0.  1.
         21   -1    0    0  505  502 -0.00000000000E+00 -0.00000000000E+00 -0.44319096271E+03  0.44319096271E+03  0.00000000000E+00 0. -1.
         21    1    1    2  503  502  0.53059174888E+02  0.73906903078E+02 -0.20872736176E+02  0.93344402499E+02  0.00000000000E+00 0.  1.
         21    1    1    2  504  503  0.40650698968E+02  0.33527667771E+02  0.92314294211E+02  0.10629446245E+03  0.00000000000E+00 0.  1.
         21    1    1    2  505  506 -0.10398896341E+03 -0.67275845943E+02 -0.35624298749E+03  0.37715886585E+03  0.00000000000E+00 0. -1.
         21    1    1    2  506  501  0.10279089554E+02 -0.40158724906E+02  0.22277526590E+02  0.47060291744E+02  0.00000000000E+00 0.  1.
<scales pt_clust_3="115.32370" pt_clust_4="48.04565" pt_clust_5="14000.00000" pt_clust_6="41.45338"></scales>
<clustering>
<clus scale="   41.453">  1  6  2 -1</clus>
<clus scale="   48.046">  1  4  2 -1</clus>
<clus scale="  115.324">  1  3  2 -1</clus>
<clus scale="   41.453">  1  3  2 -1</clus>
</clustering>
</event>
<event>
 6    0  0.1438923E+002  0.8375939E+02  0.7546771E-02  0.1318709E+00
         21   -1    0    0  504  501  0.00000000000E+00  0.00000000000E+00  0.18951138075E+03  0.18951138075E+03  0.00000000000E+00 0.  1.
         21   -1    0    0  503  502 -0.00000000000E+00 -0.00000000000E+00 -0.23386022725E+03  0.23386022725E+03  0.00000000000E+00 0.  1.
         21    1    1    2  503  501 -0.26355497261E+02 -0.24681044942E+02 -0.87894619215E+01  0.37162088964E+02  0.00000000000E+00 0.  1.
         21    1    1    2  504  506 -0.49881019823E+02 -0.10981923621E+02  0.85784723439E+02  0.99838557484E+02  0.00000000000E+00 0.  1.
         21    1    1    2  505  502  0.17231918515E+02 -0.60452298826E+02 -0.15616058488E+03  0.16833760043E+03  0.00000000000E+00 0.  1.
         21    1    1    2  506  505  0.59004598569E+02  0.96115267388E+02  0.34816476854E+02  0.11803336112E+03  0.00000000000E+00 0.  1.
<scales pt_clust_3="36.10770" pt_clust_4="52.11372" pt_clust_5="14000.00000" pt_clust_6="83.75939"></scales>
<clustering>
<clus scale="   36.108">  2  3  1 -1</clus>
<clus scale="   52.114">  1  4  2 -1</clus>
<clus scale="   83.759">  1  6  2 -1</clus>
<clus scale="   52.114">  1  3  2 -1</clus>
</clustering>
</event>
<event>
 6    0  0.1438923E+002  0.4718234E+03  0.7546771E-02  0.1021407E+00
         21   -1    0    0  503  501  0.00000000000E+00  0.00000000000E+00  0.20707061598E+03  0.20707061598E+03  0.00000000000E+00 0.  1.
         21   -1    0    0  505  502 -0.00000000000E+00 -0.00000000000E+00 -0.14857557510E+04  0.14857557510E+04  0.00000000000E+00 0.  1.
         21    1    1    2  503  502  0.35127512555E+03  0.34044519367E+03 -0.86061694084E+03  0.98992861489E+03  0.00000000000E+00 0.  1.
         21    1    1    2  504  501 -0.23608587835E+03 -0.30860357912E+03 -0.18288272632E+03  0.42944010361E+03  0.00000000000E+00 0.  1.
         21    1    1    2  505  506 -0.58271925348E+02  0.56312201659E+01 -0.16739141197E+03  0.17733361984E+03  0.00000000000E+00 0.  1.
         21    1    1    2  506  504 -0.56917321851E+02 -0.37472834717E+02 -0.67794055911E+02  0.96124028657E+02  0.00000000000E+00 0.  1.
<scales pt_clust_3="463.52804" pt_clust_4="36.88908" pt_clust_5="58.54338" pt_clust_6="36.88908"></scales>
<clustering>
<clus scale="   36.889">  4  6 -1 -1</clus>
<clus scale="   58.543">  2  5  1 -1</clus>
<clus scale="  463.528">  2  3  1 -1</clus>
<clus scale="  471.823">  1  3  2 -1</clus>
</clustering>
</event>
<event>
 6    0  0.1438923E+002  0.1007008E+03  0.7546771E-02  0.1278829E+00
         21   -1    0    0  504  501  0.00000000000E+00  0.00000000000E+00  0.11018003710E+04  0.11018003710E+04  0.00000000000E+00 0. -1.
         21   -1    0    0  505  502 -0.00000000000E+00 -0.00000000000E+00 -0.11942100955E+03  0.11942100955E+03  0.00000000000E+00 0.  1.
         21    1    1    2  503  502 -0.12393428704E+02  0.56314741066E+02  0.13457517818E+03  0.14640842093E+03  0.00000000000E+00 0. -1.
         21    1    1    2  504  506 -0.47388454444E+02 -0.64146446661E+02  0.69296069586E+03  0.69753491542E+03  0.00000000000E+00 0. -1.
         21    1    1    2  505  501  0.26035521880E+02 -0.47897362295E+02 -0.10018618143E+03  0.11405821611E+03  0.00000000000E+00 0.  1.
         21    1    1    2  506  503  0.33746361268E+02  0.55729067891E+02  0.25502966880E+03  0.26321982805E+03  0.00000000000E+00 0. -1.
<scales pt_clust_3="51.47371" pt_clust_4="84.54024" pt_clust_5="54.51611" pt_clust_6="51.47371"></scales>
<clustering>
<clus scale="   51.474">  3  6 -1 -1</clus>
<clus scale="   54.516">  2  5  1 -1</clus>
<clus scale="   84.540">  1  4  2 -1</clus>
<clus scale="   84.540">  1  3  2 -1</clus>
</clustering>
</event>
<event>
 6    0  0.1438923E+002  0.1439389E+03  0.7546771E-02  0.1208125E+00
         21   -1    0    0  506  501  0.00000000000E+00  0.00000000000E+00  0.66077693743E+02  0.66077693743E+02  0.00000000000E+00 0.  1.
         21   -1    0    0  503  502 -0.00000000000E+00 -0.00000000000E+00 -0.69775439696E+03  0.69775439696E+03  0.00000000000E+00 0.  1.
         21    1    1    2  503  504 -0.61727197605E+01  0.95754304059E+02 -0.40745113232E+03  0.41859695943E+03  0.00000000000E+00 0.  1.
         21    1    1    2  504  505 -0.70174084651E+02 -0.54547140068E+02 -0.49424736186E+02  0.10169856043E+03  0.00000000000E+00 0.  1.
         21    1    1    2  505  501  0.71539442925E+00 -0.64428478679E+02 -0.16415513673E+02  0.66490674107E+02  0.00000000000E+00 0.  1.
         21    1    1    2  506  502  0.75631409982E+02  0.23221314688E+02 -0.15838532104E+03  0.17704589674E+03  0.00000000000E+00 0.  1.
<scales pt_clust_3="125.48081" pt_clust_4="60.04218" pt_clust_5="60.04218" pt_clust_6="79.11599"></scales>
<clustering>
<clus scale="   60.042">  4  5 -1 -1</clus>
<clus scale="   79.116">  2  6  1 -1</clus>
<clus scale="  125.481">  2  3  1 -1</clus>
<clus scale="  143.939">  1  3  2 -1</clus>
</clustering>
</event>
<event>
 6    0  0.1438923E+002  0.2424704E+03  0.7546771E-02  0.1118158E+00
         21   -1    0    0  503  501  0.00000000000E+00  0.00000000000E+00  0.55641736681E+03  0.55641736681E+03  0.00000000000E+00 0. -1.
         21   -1    0    0  504  502 -0.00000000000E+00 -0.00000000000E+00 -0.33955283836E+03  0.33955283836E+03  0.00000000000E+00 0.  1.
         21    1    1    2  503  505 -0.17721417644E+02 -0.88693926481E+02  0.24131794557E+03  0.25771110200E+03  0.00000000000E+00 0. -1.
         21    1    1    2  504  501  0.12389530261E+03  0.17988063140E+03  0.45072237823E+01  0.21846602168E+03  0.00000000000E+00 0. -1.
         21    1    1    2  505  506 -0.76112357530E+02 -0.11874887119E+03  0.16759598995E+03  0.21904976883E+03  0.00000000000E+00 0. -1.
         21    1    1    2  506  502 -0.30061527431E+02  0.27562166268E+02 -0.19655663086E+03  0.20074331266E+03  0.00000000000E+00 0.  1.
<scales pt_clust_3="72.54007" pt_clust_4="224.80850" pt_clust_5="72.54007" pt_clust_6="40.78441"></scales>
<clustering>
<clus scale="   40.784">  2  6  1 -1</clus>
<clus scale="   72.540">  3  5 -1 -1</clus>
<clus scale="  224.808">  2  4  1 -1</clus>
<clus scale="  242.470">  1  3  2 -1</clus>
</clustering>
</event>
<event>
 6    0  0.1438923E+002  0.8936647E+02  0.7546771E-02  0.1304393E+00
         21   -1    0    0  504  501  0.00000000000E+00  0.00000000000E+00  0.81780775759E+02  0.81780775759E+02  0.00000000000E+00 0.  1.
         21   -1    0    0  505  502 -0.00000000000E+00 -0.00000000000E+00 -0.30861645883E+03  0.30861645883E+03  0.00000000000E+00 0.  1.
         21    1    1    2  503  501 -0.17763892765E+02  0.96430500272E+02 -0.31847832685E+02  0.10309549804E+03  0.00000000000E+00 0.  1.
         21    1    1    2  504  506  0.22105835322E+02 -0.58993423228E+02 -0.73220144193E+01  0.63423212112E+02  0.00000000000E+00 0.  1.
         21    1    1    2  505  503  0.23177140545E+02  0.23697461987E+02 -0.11008888299E+02  0.34927713496E+02  0.00000000000E+00 0.  1.
         21    1    1    2  506  502 -0.27519083102E+02 -0.61134539032E+02 -0.17665694767E+03  0.18895081094E+03  0.00000000000E+00 0.  1.
<scales pt_clust_3="30.51060" pt_clust_4="62.99914" pt_clust_5="30.51060" pt_clust_6="72.33733"></scales>
<clustering>
<clus scale="   30.511">  3  5 -1 -1</clus>
<clus scale="   62.999">  1  4  2 -1</clus>
<clus scale="   72.337">  2  6  1 -1</clus>
<clus scale="   62.999">  1  3  2 -1</clus>
</clustering>
</event>
<event>
 6    0  0.1438923E+002  0.1108831E+03  0.7546771E-02  0.1258943E+00
         21   -1    0    0  505  501  0.00000000000E+00  0.00000000000E+00  0.14044095752E+03  0.14044095752E+03  0.00000000000E+00 0.  1.
         21   -1    0    0  506  502 -0.00000000000E+00 -0.00000000000E+00 -0.10744849816E+04  0.10744849816E+04  0.00000000000E+00 0. -1.
         21    1    1    2  503  501  0.43004062852E+02 -0.76438171362E+01  0.11454529248E+03  0.12259038050E+03  0.00000000000E+00 0.  1.
         21    1    1    2  504  503  0.70450563787E+02  0.14626410643E+02 -0.11099599431E+03  0.13227745303E+03  0.00000000000E+00 0.  1.
         21    1    1    2  505  502  0.14180920980E+02 -0.26703656308E+02 -0.27576537174E+02  0.40922477718E+02  0.00000000000E+00 0.  1.
         21    1    1    2  506  504 -0.12763554762E+03  0.19721062802E+02 -0.91001678508E+03  0.91913562789E+03  0.00000000000E+00 0. -1.
<scales pt_clust_3="63.78821" pt_clust_4="110.88311" pt_clust_5="30.23547" pt_clust_6="14000.00000"></scales>
<clustering>
<clus scale="   30.235">  1  5  2 -1</clus>
<clus scale="   63.788">  1  3  2 -1</clus>
<clus scale="  110.883">  1  4  2 -1</clus>
<clus scale="   30.235">  1  3  2 -1</clus>
</clustering>
</event>
<event>
 6    0  0.1438923E+002  0.9159747E+02  0.7546771E-02  0.1299029E+00
         21   -1    0    0  506  501  0.00000000000E+00  0.00000000000E+00  0.16581487708E+04  0.16581487708E+04  0.00000000000E+00 0. -1.
         21   -1    0    0  504  502 -0.00000000000E+00 -0.00000000000E+00 -0.66622717798E+02  0.66622717798E+02  0.00000000000E+00 0. -1.
         21    1    1    2  503  501  0.18723296722E+02  0.41588570015E+02  0.57404265551E+03  0.57585166609E+03  0.00000000000E+00 0. -1.
         21    1    1    2  504  505 -0.94948499600E+02 -0.81853803007E+02  0.25200731620E+03  0.28146571738E+03  0.00000000000E+00 0. -1.
         21    1    1    2  505  503  0.66860049621E+02 -0.72606430141E+00  0.80617067856E+03  0.80893878407E+03  0.00000000000E+00 0.  1.
         21    1    1    2  506  502  0.93651532572E+01  0.40991297294E+02 -0.40694597277E+02  0.58515321044E+02  0.00000000000E+00 0. -1.
<scales pt_clust_3="47.80193" pt_clust_4="91.59747" pt_clust_5="14000.00000" pt_clust_6="42.04750"></scales>
<clustering>
<clus scale="   42.048">  2  6  1 -1</clus>
<clus scale="   47.802">  1  3  2 -1</clus>
<clus scale="   91.597">  2  4  1 -1</clus>
<clus scale="   47.802">  1  3  2 -1</clus>
</clustering>
</event>
<event>
 6    0  0.1438923E+002  0.1698210E+03  0.7546771E-02  0.1178035E+00
         21   -1    0    0  503  501  0.00000000000E+00  0.00000000000E+00  0.39356438710E+03  0.39356438710E+03  0.00000000000E+00 0. -1.
         21   -1    0    0  504  502 -0.00000000000E+00 -0.00000000000E+00 -0.10071284085E+04  0.10071284085E+04  0.00000000000E+00 0.  1.
         21    1    1    2  503  505  0.97448880896E+02 -0.12445448228E+03  0.33098141329E+03  0.36678862918E+03  0.00000000000E+00 0. -1.
         21    1    1    2  504  506 -0.30316290947E+02 -0.29488573504E+02 -0.33080796138E+02  0.53693505540E+02  0.00000000000E+00 0. -1.
         21    1    1    2  505  502 -0.48830121746E+02  0.18017181572E+03 -0.92632285821E+03  0.94494460240E+03  0.00000000000E+00 0.  1.
         21    1    1    2  506  501 -0.18302468203E+02 -0.26228759937E+02  0.14858219645E+02  0.35266058486E+02  0.00000000000E+00 0. -1.
<scales pt_clust_3="14000.00000" pt_clust_4="43.17122" pt_clust_5="169.82096" pt_clust_6="31.98325"></scales>
<clustering>
<clus scale="   31.983">  1  6  2 -1</clus>
<clus scale="   43.171">  2  4  1 -1</clus>
<clus scale="  169.821">  2  5  1 -1</clus>
<clus scale="   31.983">  1  3  2 -1</clus>
</clustering>
</event>
<event>
 6    0  0.1438923E+002  0.6235977E+02  0.7546771E-02  0.1388187E+00
         21   -1    0    0  504  501  0.00000000000E+00  0.00000000000E+00  0.56651015633E+03  0.56651015633E+03  0.00000000000E+00 0. -1.
         21   -1    0    0  503  502 -0.00000000000E+00 -0.00000000000E+00 -0.32246550199E+03  0.32246550199E+03  0.00000000000E+00 0. -1.
         21    1    1    2  503  501 -0.27049921769E+02 -0.73475851226E+02  0.86576075867E+02  0.11672967015E+03  0.00000000000E+00 0.  1.
         21    1    1    2  504  505 -0.39938115457E+02 -0.25013908074E+02  0.38356139093E+03  0.38644545446E+03  0.00000000000E+00 0. -1.
         21    1    1    2  505  506  0.51646113469E+02  0.38563029198E+02  0.63019953623E+02  0.90144011515E+02  0.00000000000E+00 0.  1.
         21    1    1    2  506  502  0.15341923757E+02  0.59926730102E+02 -0.28911276607E+03  0.29565652219E+03  0.00000000000E+00 0. -1.
<scales pt_clust_3="14000.00000" pt_clust_4="47.12482" pt_clust_5="44.66788" pt_clust_6="62.35977"></scales>
<clustering>
<clus scale="   47.125">  1  4  2 -1</clus>
<clus scale="   44.668">  1  5  2 -1</clus>
<clus scale="   62.360">  2  6  1 -1</clus>
<clus scale="   47.125">  1  3  2 -1</clus>
</clustering>
</event>
<event>
 6    0  0.1438923E+002  0.1044877E+03  0.7546771E-02  0.1271132E+00
         21   -1    0    0  503  501  0.00000000000E+00  0.00000000000E+00  0.14930145662E+03  0.14930145662E+03  0.00000000000E+00 0. -1.
         21   -1    0    0  505  502 -0.00000000000E+00 -0.00000000000E+00 -0.25970309268E+03  0.25970309268E+03  0.00000000000E+00 0. -1.
         21    1    1    2  503  504  0.38264081117E+02 -0.10426915339E+02  0.28386591753E+02  0.48771498424E+02  0.00000000000E+00 0. -1.
         21    1    1    2  504  506  0.84938261752E+02  0.50110726445E+02  0.55772642806E+01  0.98776004633E+02  0.00000000000E+00 0. -1.
         21    1    1    2  505  501 -0.67382939597E+02 -0.41946144906E+01  0.30808500957E+02  0.74210639875E+02  0.00000000000E+00 0. -1.
         21    1    1    2  506  502 -0.55819403272E+02 -0.35489196616E+02 -0.17517399305E+03  0.18724640637E+03  0.00000000000E+00 0. -1.
<scales pt_clust_3="39.41500" pt_clust_4="39.41500" pt_clust_5="83.99151" pt_clust_6="66.14597"></scales>
<clustering>
<clus scale="   39.415">  3  4 -1 -1</clus>
<clus scale="   66.146">  2  6  1 -1</clus>
<clus scale="   83.992">  1  5  2 -1</clus>
<clus scale="   83.992">  1  3  2 -1</clus>
</clustering>
</event>
<event>
 6    0  0.1438923E+002  0.4835987E+03  0.7546771E-02  0.1018151E+00
         21   -1    0    0  504  501  0.00000000000E+00  0.00000000000E+00  0.15884666510E+04  0.15884666510E+04  0.00000000000E+00 0. -1.
         21   -1    0    0  503  502 -0.00000000000E+00 -0.00000000000E+00 -0.60857172030E+03  0.60857172030E+03  0.00000000000E+00 0.  1.
         21    1    1    2  503  505 -0.22072481706E+03 -0.19443627092E+02  0.31913219271E+03  0.38851364960E+03  0.00000000000E+00 0. -1.
         21    1    1    2  504  502  0.50267509912E+03 -0.15222197411E+03 -0.39984173086E+03  0.66009635237E+03  0.00000000000E+00 0.  1.
         21    1    1    2  505  506 -0.98593376744E+02 -0.60577108441E+02  0.14107477828E+03  0.18246186745E+03  0.00000000000E+00 0. -1.
         21    1    1    2  506  501 -0.18335690531E+03  0.23224270964E+03  0.91952969053E+03  0.96596650184E+03  0.00000000000E+00 0. -1.
<scales pt_clust_3="55.29700" pt_clust_4="477.50658" pt_clust_5="55.29700" pt_clust_6="295.89936"></scales>
<clustering>
<clus scale="   55.297">  3  5 -1 -1</clus>
<clus scale="  295.899">  1  6  2 -1</clus>
<clus scale="  477.507">  2  4  1 -1</clus>
<clus scale="  295.899">  1  3  2 -1</clus>
</clustering>
</event>
<event>
 6    0  0.1438923E+002  0.1227064E+03  0.7546771E-02  0.1238698E+00
         21   -1    0    0  504  501  0.00000000000E+00  0.00000000000E+00  0.14764338901E+04  0.14764338901E+04  0.00000000000E+00 0.  1.
         21   -1    0    0  506  502 -0.00000000000E+00 -0.00000000000E+00 -0.11028242570E+04  0.11028242570E+04  0.00000000000E+00 0.  1.
         21    1    1    2  503  505  0.53446413785E+02 -0.13232897142E+02  0.43157157095E+03  0.43506970655E+03  0.00000000000E+00 0.  1.
         21    1    1    2  504  503  0.24264306932E+02 -0.50563715513E+02  0.76657899634E+03  0.76862787065E+03  0.00000000000E+00 0.  1.
         21    1    1    2  505  502 -0.59560282114E+02  0.91113244325E+02 -0.10963698103E+04  0.11017603240E+04  0.00000000000E+00 0.  1.
         21    1    1    2  506  501 -0.18150438603E+02 -0.27316631670E+02  0.27182887615E+03  0.27380024598E+03  0.00000000000E+00 0. -1.
<scales pt_clust_3="49.29014" pt_clust_4="49.29014" pt_clust_5="108.82440" pt_clust_6="32.79690"></scales>
<clustering>
<clus scale="   32.797">  1  6  2 -1</clus>
<clus scale="   49.290">  3  4 -1 -1</clus>
<clus scale="  108.824">  2  5  1 -1</clus>
<clus scale="   32.797">  1  3  2 -1</clus>
</clustering>
</event>
<event>
 6    0  0.1438923E+002  0.1645972E+03  0.7546771E-02  0.1183602E+00
         21   -1    0    0  504  501  0.00000000000E+00  0.00000000000E+00  0.31036197905E+03  0.31036197905E+03  0.00000000000E+00 0.  1.
         21   -1    0    0  506  502 -0.00000000000E+00 -0.00000000000E+00 -0.38229561218E+03  0.38229561218E+03  0.00000000000E+00 0. -1.
         21    1    1    2  503  502 -0.92926298806E+01  0.10826467725E+03 -0.20049583721E+03  0.22804862212E+03  0.00000000000E+00 0. -1.
         21    1    1    2  504  503 -0.40829627256E+01  0.11896836412E+03  0.94483016479E+02  0.15197757285E+03  0.00000000000E+00 0. -1.
         21    1    1    2  505  501  0.53562293805E+02  0.22080638534E+02  0.11748028303E+02  0.59114212206E+02  0.00000000000E+00 0. -1.
         21    1    1    2  506  505 -0.40186701199E+02 -0.24931367991E+03  0.22331159298E+02  0.25351718407E+03  0.00000000000E+00 0.  1.
<scales pt_clust_3="109.57059" pt_clust_4="164.59725" pt_clust_5="57.93508" pt_clust_6="14000.00000"></scales>
<clustering>
<clus scale="   57.935">  1  5  2 -1</clus>
<clus scale="  109.571">  2  3  1 -1</clus>
<clus scale="  164.597">  1  4  2 -1</clus>
<clus scale="   57.935">  1  3  2 -1</clus>
</clustering>
</event>
<event>
 6    0  0.1438923E+002  0.1798689E+03  0.7546771E-02  0.1167930E+00
         21   -1    0    0  502  501  0.00000000000E+00  0.00000000000E+00  0.15569869525E+03  0.15569869525E+03  0.00000000000E+00 0.  1.
         21   -1    0    0  504  502 -0.00000000000E+00 -0.00000000000E+00 -0.35035064645E+04  0.35035064645E+04  0.00000000000E+00 0. -1.
         21    1    1    2  503  505  0.20079811815E+01  0.59099642400E+02 -0.37761348501E+02  0.70162092050E+02  0.00000000000E+00 0. -1.
         21    1    1    2  504  503  0.46758082914E+02 -0.17205814250E+03 -0.33152151652E+04  0.33200063124E+04  0.00000000000E+00 0. -1.
         21    1    1    2  505  506 -0.16156662691E+02  0.85871353800E+02 -0.11337614488E+03  0.14314006211E+03  0.00000000000E+00 0. -1.
         21    1    1    2  506  501 -0.32609401404E+02  0.27087146304E+02  0.11854488937E+03  0.12589669317E+03  0.00000000000E+00 0.  1.
<scales pt_clust_3="31.20112" pt_clust_4="175.82469" pt_clust_5="31.20112" pt_clust_6="42.39206"></scales>
<clustering>
<clus scale="   31.201">  3  5 -1 -1</clus>
<clus scale="   42.392">  1  6  2 -1</clus>
<clus scale="  175.825">  2  4  1 -1</clus>
<clus scale="   42.392">  1  3  2 -1</clus>
</clustering>
</event>
<event>
 6    0  0.1438923E+002  0.1011375E+03  0.7546771E-02  0.1277922E+00
         21   -1    0    0  504  501  0.00000000000E+00  0.00000000000E+00  0.68064711174E+03  0.68064711174E+03  0.00000000000E+00 0.  1.
         21   -1    0    0  505  502 -0.00000000000E+00 -0.00000000000E+00 -0.76824402172E+03  0.76824402172E+03  0.00000000000E+00 0.  1.
         21    1    1    2  503  506  0.61308205838E+02  0.20408512425E+02  0.49823773763E+03  0.50241023744E+03  0.00000000000E+00 0.  1.
         21    1    1    2  504  502 -0.29491499101E+02  0.28898280500E+02 -0.71271577017E+03  0.71391079848E+03  0.00000000000E+00 0.  1.
         21    1    1    2  505  503 -0.62166139941E+02 -0.84928308368E+02  0.88743136354E+01  0.10562291399E+03  0.00000000000E+00 0.  1.
         21    1    1    2  506  501  0.30349433204E+02  0.35621515443E+02  0.11800680892E+03  0.12694718354E+03  0.00000000000E+00 0.  1.
<scales pt_clust_3="101.13747" pt_clust_4="41.28994" pt_clust_5="14000.00000" pt_clust_6="47.15016"></scales>
<clustering>
<clus scale="   41.290">  2  4  1 -1</clus>
<clus scale="   47.150">  1  6  2 -1</clus>
<clus scale="  101.137">  1  3  2 -1</clus>
<clus scale="   47.150">  1  3  2 -1</clus>
</clustering>
</event>
<event>
 6    0  0.1438923E+002  0.7987979E+02  0.7546771E-02  0.1329393E+00
         21   -1    0    0  504  501  0.00000000000E+00  0.00000000000E+00  0.66772436672E+03  0.66772436672E+03  0.00000000000E+00 0. -1.
         21   -1    0    0  503  502 -0.00000000000E+00 -0.00000000000E+00 -0.32460989083E+02  0.32460989083E+02  0.00000000000E+00 0. -1.
         21    1    1    2  503  506  0.15574386539E+02 -0.37724780973E+02  0.41498231193E+02  0.58205015314E+02  0.00000000000E+00 0. -1.
         21    1    1    2  504  505  0.71776534738E+02 -0.15745011618E+02  0.37704389504E+03  0.38413783348E+03  0.00000000000E+00 0. -1.
         21    1    1    2  505  502  0.16609794536E+02  0.27475866261E+02  0.41818944458E+02  0.52722221282E+02  0.00000000000E+00 0. -1.
         21    1    1    2  506  501 -0.10396071581E+03  0.25993926329E+02  0.17490230694E+03  0.20512028572E+03  0.00000000000E+00 0. -1.
<scales pt_clust_3="35.82160" pt_clust_4="14000.00000" pt_clust_5="32.10621" pt_clust_6="79.87979"></scales>
<clustering>
<clus scale="   32.106">  2  5  1 -1</clus>
<clus scale="   35.822">  2  3  1 -1</clus>
<clus scale="   79.880">  2  6  1 -1</clus>
<clus scale="   79.880">  1  3  2 -1</clus>
</clustering>
</event>
<event>
 6    0  0.1438923E+002  0.2048781E+03  0.7546771E-02  0.1145687E+00
         21   -1    0    0  505  501  0.00000000000E+00  0.00000000000E+00  0.41423891990E+03  0.41423891990E+03  0.00000000000E+00 0. -1.
         21   -1    0    0  503  502 -0.00000000000E+00 -0.00000000000E+00 -0.24183274067E+03  0.24183274067E+03  0.00000000000E+00 0. -1.
         21    1    1    2  503  504 -0.24937586634E+02  0.23679109671E+02 -0.68105243986E+02  0.76294873486E+02  0.00000000000E+00 0. -1.
         21    1    1    2  504  501  0.21273548175E+03  0.83317449921E+02 -0.85718436340E+01  0.22862996120E+03  0.00000000000E+00 0. -1.
         21    1    1    2  505  506 -0.15855447281E+03 -0.12167773910E+03  0.24786080970E+03  0.31840222051E+03  0.00000000000E+00 0. -1.
         21    1    1    2  506  502 -0.29243422297E+02  0.14681179512E+02  0.12224571487E+01  0.32744605372E+02  0.00000000000E+00 0. -1.
<scales pt_clust_3="44.49321" pt_clust_4="204.87813" pt_clust_5="14000.00000" pt_clust_6="32.72178"></scales>
<clustering>
<clus scale="   32.722">  2  6  1 -1</clus>
<clus scale="   44.493">  2  3  1 -1</clus>
<clus scale="  204.878">  2  4  1 -1</clus>
<clus scale="  204.878">  1  3  2 -1</clus>
</clustering>
</event>
<event>
 6    0  0.1438923E+002  0.8927680E+02  0.7546771E-02  0.1304613E+00
         21   -1    0    0  502  501  0.00000000000E+00  0.00000000000E+00  0.18906785414E+04  0.18906785414E+04  0.00000000000E+00 0. -1.
         21   -1    0    0  506  502 -0.00000000000E+00 -0.00000000000E+00 -0.35056108277E+02  0.35056108277E+02  0.00000000000E+00 0. -1.
         21    1    1    2  503  505  0.63321019838E+02 -0.31419185799E+02  0.84094624233E+03  0.84391190256E+03  0.00000000000E+00 0. -1.
         21    1    1    2  504  503  0.16172468034E+02  0.81979213435E+02  0.75325190536E+03  0.75787239894E+03  0.00000000000E+00 0. -1.
         21    1    1    2  505  501 -0.26244090253E+02  0.22547826129E+02  0.22302291026E+03  0.22569088425E+03  0.00000000000E+00 0. -1.
         21    1    1    2  506  504 -0.53249397620E+02 -0.73107853765E+02  0.38401375135E+02  0.98259463876E+02  0.00000000000E+00 0. -1.
<scales pt_clust_3="53.90824" pt_clust_4="89.27680" pt_clust_5="34.59995" pt_clust_6="14000.00000"></scales>
<clustering>
<clus scale="   34.600">  1  5  2 -1</clus>
<clus scale="   53.908">  1  3  2 -1</clus>
<clus scale="   89.277">  1  4  2 -1</clus>
<clus scale="   34.600">  1  3  2 -1</clus>
</clustering>
</event>
<event>
 6    0  0.1438923E+002  0.1131046E+03  0.7546771E-02  0.1254926E+00
         21   -1    0    0  504  501  0.00000000000E+00  0.00000000000E+00  0.87380546563E+02  0.87380546563E+02  0.00000000000E+00 0.  1.
         21   -1    0    0  506  502 -0.00000000000E+00 -0.00000000000E+00 -0.41908576622E+03  0.41908576622E+03  0.00000000000E+00 0. -1.
         21    1    1    2  503  501 -0.84959368559E+02 -0.12687899957E+02 -0.23353541696E+02  0.89019464282E+02  0.00000000000E+00 0.  1.
         21    1    1    2  504  505  0.72003682932E+02 -0.33049918552E+02 -0.33016716894E+01  0.79295198518E+02  0.00000000000E+00 0.  1.
         21    1    1    2  505  502  0.47908794983E+02  0.14545592991E+02 -0.28397699405E+02  0.57560891616E+02  0.00000000000E+00 0.  1.
         21    1    1    2  506  503 -0.34953109355E+02  0.31192225518E+02 -0.27665230687E+03  0.28059075837E+03  0.00000000000E+00 0. -1.
<scales pt_clust_3="98.94104" pt_clust_4="43.56597" pt_clust_5="43.56597" pt_clust_6="46.84736"></scales>
<clustering>
<clus scale="   43.566">  4  5 -1 -1</clus>
<clus scale="   46.847">  2  6  1 -1</clus>
<clus scale="   98.941">  1  3  2 -1</clus>
<clus scale="   98.941">  1  3  2 -1</clus>
</clustering>
</event>
<event>
 6    0  0.1468446E+002  0.2162037E+03  0.7546771E-02  0.1136745E+00
         21   -1    0    0  506  501  0.00000000000E+00  0.00000000000E+00  0.12043069696E+04  0.12043069696E+04  0.00000000000E+00 0. -1.
         21   -1    0    0  505  502 -0.00000000000E+00 -0.00000000000E+00 -0.11720019540E+04  0.11720019540E+04  0.00000000000E+00 0. -1.
         21    1    1    2  503  502 -0.10441565954E+03 -0.22034016900E+03 -0.10964235899E+04  0.11232083994E+04  0.00000000000E+00 0. -1.
         21    1    1    2  504  501  0.85984689545E+02  0.15662160055E+03  0.11270543733E+04  0.11411289379E+04  0.00000000000E+00 0. -1.
         21    1    1    2  505  504  0.38885858430E+02  0.14029656277E+02 -0.28625817208E+02  0.50282985710E+02  0.00000000000E+00 0. -1.
         21    1    1    2  506  503 -0.20454888433E+02  0.49688912179E+02  0.30300049379E+02  0.61688600622E+02  0.00000000000E+00 0. -1.
<scales pt_clust_3="14000.00000" pt_clust_4="216.20369" pt_clust_5="41.33934" pt_clust_6="53.71215"></scales>
<clustering>
<clus scale="   41.339">  2  5  1 -1</clus>
<clus scale="   53.712">  1  6  2 -1</clus>
<clus scale="  216.204">  1  4  2 -1</clus>
<clus scale="   53.712">  1  3  2 -1</clus>
</clustering>
</event>
<event>
 6    0  0.1438923E+002  0.1604328E+03  0.7546771E-02  0.1188209E+00
         21   -1    0    0  503  501  0.00000000000E+00  0.00000000000E+00  0.18195943905E+03  0.18195943905E+03  0.00000000000E+00 0.  1.
         21   -1    0    0  505  502 -0.00000000000E+00 -0.00000000000E+00 -0.39235932516E+03  0.39235932516E+03  0.00000000000E+00 0.  1.
         21    1    1    2  503  502  0.17098341581E+02 -0.25463466365E+02 -0.18562695938E+03  0.18814385309E+03  0.00000000000E+00 0.  1.
         21    1    1    2  504  501 -0.17646920716E+01  0.38927098801E+02  0.13961415989E+02  0.41392684083E+02  0.00000000000E+00 0. -1.
         21    1    1    2  505  506 -0.98463781546E+02 -0.10297667517E+03 -0.12954591278E+03  0.19256545750E+03  0.00000000000E+00 0.  1.
         21    1    1    2  506  504  0.83130132037E+02  0.89513042733E+02  0.90811570067E+02  0.15221676954E+03  0.00000000000E+00 0.  1.
<scales pt_clust_3="30.67151" pt_clust_4="32.27190" pt_clust_5="149.49463" pt_clust_6="32.27190"></scales>
<clustering>
<clus scale="   30.672">  2  3  1 -1</clus>
<clus scale="   32.272">  4  6 -1 -1</clus>
<clus scale="  149.495">  2  5  1 -1</clus>
<clus scale="  160.433">  1  3  2 -1</clus>
</clustering>
</event>
<event>
 6    0  0.1438923E+002  0.1119742E+03  0.7546771E-02  0.1256957E+00
         21   -1    0    0  505  501  0.00000000000E+00  0.00000000000E+00  0.69547857536E+02  0.69547857536E+02  0.00000000000E+00 0.  1.
         21   -1    0    0  504  502 -0.00000000000E+00 -0.00000000000E+00 -0.12144832876E+04  0.12144832876E+04  0.00000000000E+00 0.  1.
         21    1    1    2  503  502  0.64533901395E+02 -0.85280627822E+02 -0.86609902593E+03  0.87267687756E+03  0.00000000000E+00 0.  1.
         21    1    1    2  504  501 -0.16501397906E+03  0.83438120816E+02 -0.19414089273E+03  0.26810859651E+03  0.00000000000E+00 0.  1.
         21    1    1    2  505  506  0.41041480745E+02 -0.42277709657E+01 -0.21087514849E+01  0.41312516528E+02  0.00000000000E+00 0.  1.
         21    1    1    2  506  503  0.59438596924E+02  0.60702779715E+01 -0.82586759880E+02  0.10193315450E+03  0.00000000000E+00 0.  1.
<scales pt_clust_3="111.97416" pt_clust_4="14000.00000" pt_clust_5="41.25866" pt_clust_6="67.59155"></scales>
<clustering>
<clus scale="   41.259">  1  5  2 -1</clus>
<clus scale="   67.592">  1  6  2 -1</clus>
<clus scale="  111.974">  2  3  1 -1</clus>
<clus scale="   41.259">  1  3  2 -1</clus>
</clustering>
</event>
<event>
 6    0  0.1438923E+002  0.1857786E+03  0.7546771E-02  0.1162325E+00
         21   -1    0    0  504  501  0.00000000000E+00  0.00000000000E+00  0.16734311165E+03  0.16734311165E+03  0.00000000000E+00 0.  1.
         21   -1    0    0  506  502 -0.00000000000E+00 -0.00000000000E+00 -0.34555862321E+03  0.34555862321E+03  0.00000000000E+00 0.  1.
         21    1    1    2  503  501 -0.57478559057E+02  0.11144893717E+03  0.49751609950E+02  0.13490690509E+03  0.00000000000E+00 0.  1.
         21    1    1    2  504  505  0.11091742664E+03 -0.11759176167E+03 -0.79804046472E+02  0.18027529997E+03  0.00000000000E+00 0.  1.
         21    1    1    2  505  502 -0.77805386728E+01 -0.31730952717E+02 -0.13235452120E+03  0.13632721454E+03  0.00000000000E+00 0.  1.
         21    1    1    2  506  503 -0.45658328910E+02  0.37873777217E+02 -0.15808553835E+02  0.61392315267E+02  0.00000000000E+00 0.  1.
<scales pt_clust_3="45.84862" pt_clust_4="173.39816" pt_clust_5="32.67094" pt_clust_6="45.84862"></scales>
<clustering>
<clus scale="   32.671">  2  5  1 -1</clus>
<clus scale="   45.849">  3  6 -1 -1</clus>
<clus scale="  173.398">  2  4  1 -1</clus>
<clus scale="  185.779">  1  3  2 -1</clus>
</clustering>
</event>
<event>
 6    0  0.1438923E+002  0.1444743E+03  0.7546771E-02  0.1207432E+00
         21   -1    0    0  504  501  0.00000000000E+00  0.00000000000E+00  0.91055952567E+03  0.91055952567E+03  0.00000000000E+00 0.  1.
         21   -1    0    0  503  502 -0.00000000000E+00 -0.00000000000E+00 -0.17630341912E+03  0.17630341912E+03  0.00000000000E+00 0.  1.
         21    1    1    2  503  501  0.16727555386E+03  0.55626373845E+02  0.39644941570E+03  0.43387503224E+03  0.00000000000E+00 0.  1.
         21    1    1    2  504  505 -0.12731456337E+03 -0.14731379966E+02  0.38908839348E+03  0.40965325526E+03  0.00000000000E+00 0.  1.
         21    1    1    2  505  506 -0.74066728580E+02 -0.83911153267E+01  0.76701405497E+02  0.10695511537E+03  0.00000000000E+00 0.  1.
         21    1    1    2  506  502  0.34105738087E+02 -0.32503878552E+02 -0.12798310812E+03  0.13637954193E+03  0.00000000000E+00 0.  1.
<scales pt_clust_3="14000.00000" pt_clust_4="144.47430" pt_clust_5="65.36138" pt_clust_6="47.11373"></scales>
<clustering>
<clus scale="   47.114">  2  6  1 -1</clus>
<clus scale="   65.361">  2  5  1 -1</clus>
<clus scale="  144.474">  1  4  2 -1</clus>
<clus scale="  144.474">  1  3  2 -1</clus>
</clustering>
</event>
<event>
 6    0  0.1438923E+002  0.1070675E+03  0.7546771E-02  0.1266099E+00
         21   -1    0    0  506  501  0.00000000000E+00  0.00000000000E+00  0.38721602183E+03  0.38721602183E+03  0.00000000000E+00 0.  1.
         21   -1    0    0  505  502 -0.00000000000E+00 -0.00000000000E+00 -0.34472845500E+03  0.34472845500E+03  0.00000000000E+00 0. -1.
         21    1    1    2  503  504 -0.73633173370E+02 -0.16700105996E+02  0.51330092567E+02  0.91299047989E+02  0.00000000000E+00 0.  1.
         21    1    1    2  504  501  0.16021385357E+01 -0.30254928395E+02  0.40870129938E+01  0.30571738833E+02  0.00000000000E+00 0. -1.
         21    1    1    2  505  503  0.10737704910E+03 -0.35853203092E+02 -0.29394313032E+03  0.31498864536E+03  0.00000000000E+00 0. -1.
         21    1    1    2  506  502 -0.35346014263E+02  0.82808237482E+02  0.28101359159E+03  0.29508504465E+03  0.00000000000E+00 0.  1.
<scales pt_clust_3="14000.00000" pt_clust_4="30.29732" pt_clust_5="107.06746" pt_clust_6="68.35882"></scales>
<clustering>
<clus scale="   30.297">  1  4  2 -1</clus>
<clus scale="   68.359">  1  6  2 -1</clus>
<clus scale="  107.067">  2  5  1 -1</clus>
<clus scale="   30.297">  1  3  2 -1</clus>
</clustering>
</event>
<event>
 6    0  0.1438923E+002  0.1491484E+03  0.7546771E-02  0.1201523E+00
         21   -1    0    0  503  501  0.00000000000E+00  0.00000000000E+00  0.90141241679E+03  0.90141241679E+03  0.00000000000E+00 0. -1.
         21   -1    0    0  504  502 -0.00000000000E+00 -0.00000000000E+00 -0.15145400143E+03  0.15145400143E+03  0.00000000000E+00 0. -1.
         21    1    1    2  503  506  0.10807821426E+03  0.29870727253E+02  0.65807994027E+03  0.66756450514E+03  0.00000000000E+00 0. -1.
         21    1    1    2  504  505  0.14330193785E+02  0.53099874387E+02  0.60967095987E+02  0.82109304631E+02  0.00000000000E+00 0. -1.
         21    1    1    2  505  501 -0.15649484124E+02  0.25946638878E+02  0.12189316644E+03  0.12560286002E+03  0.00000000000E+00 0. -1.
         21    1    1    2  506  502 -0.10675892392E+03 -0.10891724052E+03 -0.90981787337E+02  0.17758974842E+03  0.00000000000E+00 0. -1.
<scales pt_clust_3="14000.00000" pt_clust_4="56.96442" pt_clust_5="30.30073" pt_clust_6="149.14837"></scales>
<clustering>
<clus scale="   30.301">  1  5  2 -1</clus>
<clus scale="   56.964">  1  4  2 -1</clus>
<clus scale="  149.148">  2  6  1 -1</clus>
<clus scale="   30.301">  1  3  2 -1</clus>
</clustering>
</event>
<event>
 6    0  0.1438923E+002  0.2040020E+03  0.7546771E-02  0.1146406E+00
         21   -1    0    0  503  501  0.00000000000E+00  0.00000000000E+00  0.31841130318E+03  0.31841130318E+03  0.00000000000E+00 0. -1.
         21   -1    0    0  504  502 -0.00000000000E+00 -0.00000000000E+00 -0.45949737449E+03  0.45949737449E+03  0.00000000000E+00 0. -1.
         21    1    1    2  503  505 -0.49461197529E+02  0.77090104422E+02  0.94445060928E+02  0.13156429529E+03  0.00000000000E+00 0. -1.
         21    1    1    2  504  501 -0.18956119063E+02  0.29694651366E+02 -0.36778608402E+01  0.35420805045E+02  0.00000000000E+00 0. -1.
         21    1    1    2  505  506 -0.20151989164E+02  0.71664928996E+02  0.15714049575E+03  0.17388243189E+03  0.00000000000E+00 0.  1.
         21    1    1    2  506  502  0.88569305756E+02 -0.17844968478E+03 -0.38899376716E+03  0.43704114544E+03  0.00000000000E+00 0. -1.
<scales pt_clust_3="51.86798" pt_clust_4="35.22935" pt_clust_5="51.86798" pt_clust_6="196.43943"></scales>
<clustering>
<clus scale="   35.229">  1  4  2 -1</clus>
<clus scale="   51.868">  3  5 -1 -1</clus>
<clus scale="  196.439">  2  6  1 -1</clus>
<clus scale="   35.229">  1  3  2 -1</clus>
</clustering>
</event>
<event>
 6    0  0.1438923E+002  0.1379217E+03  0.7546771E-02  0.1216153E+00
         21   -1    0    0  503  501  0.00000000000E+00  0.00000000000E+00  0.66988535654E+03  0.66988535654E+03  0.00000000000E+00 0. -1.
         21   -1    0    0  505  502 -0.00000000000E+00 -0.00000000000E+00 -0.59013844035E+02  0.59013844035E+02  0.00000000000E+00 0. -1.
         21    1    1    2  503  502  0.14659727265E+03  0.62646227914E+01  0.35429907415E+03  0.38348121179E+03  0.00000000000E+00 0. -1.
         21    1    1    2  504  506 -0.52154962290E+02 -0.17424108515E+01  0.73649976100E+02  0.90263475817E+02  0.00000000000E+00 0. -1.
         21    1    1    2  505  504 -0.32972920579E+02  0.15364721722E+02 -0.20474655085E+02  0.41743258928E+02  0.00000000000E+00 0. -1.
         21    1    1    2  506  501 -0.61469389784E+02 -0.19886933661E+02  0.20339711733E+03  0.21341125404E+03  0.00000000000E+00 0.  1.
<scales pt_clust_3="130.14406" pt_clust_4="43.13014" pt_clust_5="36.37703" pt_clust_6="43.13014"></scales>
<clustering>
<clus scale="   36.377">  2  5  1 -1</clus>
<clus scale="   43.130">  4  6 -1 -1</clus>
<clus scale="  130.144">  2  3  1 -1</clus>
<clus scale="  137.922">  1  3  2 -1</clus>
</clustering>
</event>
<event>
 6    0  0.1438923E+002  0.6379064E+02  0.7546771E-02  0.1382579E+00
         21   -1    0    0  504  501  0.00000000000E+00  0.00000000000E+00  0.11502203964E+03  0.11502203964E+03  0.00000000000E+00 0. -1.
         21   -1    0    0  506  502 -0.00000000000E+00 -0.00000000000E+00 -0.64904277937E+03  0.64904277937E+03  0.00000000000E+00 0. -1.
         21    1    1    2  503  501  0.25529701300E+02  0.43494986738E+02  0.10995612679E+02  0.51618630532E+02  0.00000000000E+00 0. -1.
         21    1    1    2  504  505 -0.54968154094E+01 -0.70895912823E+02 -0.45556724202E+02  0.84450343722E+02  0.00000000000E+00 0. -1.
         21    1    1    2  505  502  0.32278714728E+02 -0.53875485045E+02 -0.52442135553E+03  0.52816876228E+03  0.00000000000E+00 0. -1.
         21    1    1    2  506  503 -0.52311600619E+02  0.81276411130E+02  0.24961727313E+02  0.99827082478E+02  0.00000000000E+00 0. -1.
<scales pt_clust_3="50.43391" pt_clust_4="60.79366" pt_clust_5="63.79064" pt_clust_6="14000.00000"></scales>
<clustering>
<clus scale="   50.434">  1  3  2 -1</clus>
<clus scale="   60.794">  1  4  2 -1</clus>
<clus scale="   63.791">  2  5  1 -1</clus>
<clus scale="   50.434">  1  3  2 -1</clus>
</clustering>
</event>
<event>
 6    0  0.1438923E+002  0.1068134E+03  0.7546771E-02  0.1266587E+00
         21   -1    0    0  503  501  0.00000000000E+00  0.00000000000E+00  0.17746115423E+04  0.17746115423E+04  0.00000000000E+00 0.  1.
         21   -1    0    0  506  502 -0.00000000000E+00 -0.00000000000E+00 -0.28551906398E+02  0.28551906398E+02  0.00000000000E+00 0.  1.
         21    1    1    2  503  505 -0.22355959689E+02  0.24840330470E+02  0.80225985511E+03  0.80295560654E+03  0.00000000000E+00 0.  1.
         21    1    1    2  504  501 -0.34713702278E+02  0.27758489458E+02  0.17560458042E+03  0.18114232948E+03  0.00000000000E+00 0.  1.
         21    1    1    2  505  502  0.11453251792E+03  0.15299677796E+02  0.12687981188E+03  0.17161079355E+03  0.00000000000E+00 0.  1.
         21    1    1    2  506  504 -0.57462855954E+02 -0.67898497724E+02  0.64131538852E+03  0.64745471916E+03  0.00000000000E+00 0.  1.
<scales pt_clust_3="33.41902" pt_clust_4="50.50831" pt_clust_5="14000.00000" pt_clust_6="106.81340"></scales>
<clustering>
<clus scale="   33.419">  1  3  2 -1</clus>
<clus scale="   50.508">  1  4  2 -1</clus>
<clus scale="  106.813">  1  6  2 -1</clus>
<clus scale="   33.419">  1  3  2 -1</clus>
</clustering>
</event>
<event>
 6    0  0.1438923E+002  0.8469866E+02  0.7546771E-02  0.1316222E+00
         21   -1    0    0  503  501  0.00000000000E+00  0.00000000000E+00  0.53317907452E+03  0.53317907452E+03  0.00000000000E+00 0.  1.
         21   -1    0    0  506  502 -0.00000000000E+00 -0.00000000000E+00 -0.70779436821E+02  0.70779436821E+02  0.00000000000E+00 0.  1.
         21    1    1    2  503  504 -0.33753126958E+02  0.19001206403E+02  0.78499813563E+02  0.87535936356E+02  0.00000000000E+00 0. -1.
         21    1    1    2  504  505  0.71996470580E+02 -0.46394943946E+02  0.29109247971E+03  0.30343172929E+03  0.00000000000E+00 0.  1.
         21    1    1    2  505  502 -0.73468690351E+02 -0.49413108661E+02  0.14566277175E+01  0.88551824000E+02  0.00000000000E+00 0.  1.
         21    1    1    2  506  501  0.35225346729E+02  0.76806846204E+02  0.91350716714E+02  0.12443902169E+03  0.00000000000E+00 0.  1.
<scales pt_clust_3="38.73396" pt_clust_4="60.13748" pt_clust_5="84.69866" pt_clust_6="14000.00000"></scales>
<clustering>
<clus scale="   38.734">  1  3  2 -1</clus>
<clus scale="   60.137">  1  4  2 -1</clus>
<clus scale="   84.699">  2  5  1 -1</clus>
<clus scale="   38.734">  1  3  2 -1</clus>
</clustering>
</event>
<event>
 6    0  0.1438923E+002  0.8767360E+02  0.7546771E-02  0.1308585E+00
         21   -1    0    0  504  501  0.00000000000E+00  0.00000000000E+00  0.10434727245E+04  0.10434727245E+04  0.00000000000E+00 0. -1.
         21   -1    0    0  506  502 -0.00000000000E+00 -0.00000000000E+00 -0.48133898081E+02  0.48133898081E+02  0.00000000000E+00 0. -1.
         21    1    1    2  503  502  0.30215904051E+01  0.36454027265E+02  0.71777862023E+02  0.80561079865E+02  0.00000000000E+00 0. -1.
         21    1    1    2  504  503 -0.16138601613E+02  0.62472020240E+02  0.47386137339E+03  0.47823405250E+03  0.00000000000E+00 0. -1.
         21    1    1    2  505  501  0.78936611123E+02  0.42337366724E+01  0.38761562481E+03  0.39559421848E+03  0.00000000000E+00 0. -1.
         21    1    1    2  506  505 -0.65819599915E+02 -0.10315978418E+03  0.62083966199E+02  0.13721727174E+03  0.00000000000E+00 0. -1.
<scales pt_clust_3="36.57904" pt_clust_4="66.25202" pt_clust_5="87.67360" pt_clust_6="14000.00000"></scales>
<clustering>
<clus scale="   36.579">  2  3  1 -1</clus>
<clus scale="   66.252">  1  4  2 -1</clus>
<clus scale="   87.674">  1  5  2 -1</clus>
<clus scale="   66.252">  1  3  2 -1</clus>
</clustering>
</event>
<event>
 6    0  0.1438923E+002  0.1593701E+03  0.7546771E-02  0.1189410E+00
         21   -1    0    0  504  501  0.00000000000E+00  0.00000000000E+00  0.22011176015E+04  0.22011176015E+04  0.00000000000E+00 0.  1.
         21   -1    0    0  505  502 -0.00000000000E+00 -0.00000000000E+00 -0.32630999822E+02  0.32630999822E+02  0.00000000000E+00 0. -1.
         21    1    1    2  503  502 -0.15057337331E+03 -0.60756960688E+02  0.35732845164E+03  0.39248868949E+03  0.00000000000E+00 0. -1.
         21    1    1    2  504  503 -0.49058332042E+02 -0.57075252993E+02  0.57419058634E+03  0.57910200646E+03  0.00000000000E+00 0. -1.
         21    1    1    2  505  506  0.35387940496E+02 -0.52903001895E+01  0.87965892728E+02  0.94964687606E+02  0.00000000000E+00 0.  1.
         21    1    1    2  506  501  0.16424376486E+03  0.12312251387E+03  0.11490016710E+04  0.11671932178E+04  0.00000000000E+00 0.  1.
<scales pt_clust_3="14000.00000" pt_clust_4="73.69950" pt_clust_5="35.78119" pt_clust_6="159.37014"></scales>
<clustering>
<clus scale="   35.781">  2  5  1 -1</clus>
<clus scale="   73.700">  1  4  2 -1</clus>
<clus scale="  159.370">  1  6  2 -1</clus>
<clus scale="   73.700">  1  3  2 -1</clus>
</clustering>
</event>
<event>
 6    0  0.1438923E+002  0.1014147E+03  0.7546771E-02  0.1277349E+00
         21   -1    0    0  503  501  0.00000000000E+00  0.00000000000E+00  0.81242011669E+02  0.81242011669E+02  0.00000000000E+00 0. -1.
         21   -1    0    0  505  502 -0.00000000000E+00 -0.00000000000E+00 -0.51495588207E+03  0.51495588207E+03  0.00000000000E+00 0.  1.
         21    1    1    2  503  504  0.68672031429E+01 -0.45252234388E+02  0.26106486980E+02  0.52692237175E+02  0.00000000000E+00 0. -1.
         21    1    1    2  504  502 -0.76219843857E+00 -0.62104056716E+02 -0.37842742678E+02  0.72729416198E+02  0.00000000000E+00 0. -1.
         21    1    1    2  505  506 -0.51524900127E+02  0.11450757328E+03 -0.40106992955E+03  0.42026644889E+03  0.00000000000E+00 0.  1.
         21    1    1    2  506  501  0.45419895422E+02 -0.71512821770E+01 -0.20907685157E+02  0.50509791482E+02  0.00000000000E+00 0. -1.
<scales pt_clust_3="45.77033" pt_clust_4="101.41474" pt_clust_5="14000.00000" pt_clust_6="53.15866"></scales>
<clustering>
<clus scale="   45.770">  1  3  2 -1</clus>
<clus scale="   53.159">  1  6  2 -1</clus>
<clus scale="  101.415">  1  4  2 -1</clus>
<clus scale="   45.770">  1  3  2 -1</clus>
</clustering>
</event>
<event>
 6    0  0.1438923E+002  0.1237545E+03  0.7546771E-02  0.1237029E+00
         21   -1    0    0  506  501  0.00000000000E+00  0.00000000000E+00  0.21678190431E+03  0.21678190431E+03  0.00000000000E+00 0.  1.
         21   -1    0    0  504  502 -0.00000000000E+00 -0.00000000000E+00 -0.46064829393E+03  0.46064829393E+03  0.00000000000E+00 0. -1.
         21    1    1    2  503  501  0.12687356652E+02  0.28033662663E+02  0.41298311149E+02  0.51501512258E+02  0.00000000000E+00 0.  1.
         21    1    1    2  504  503 -0.91416051457E+02  0.98828907041E+02 -0.37905967828E+03  0.40225649408E+03  0.00000000000E+00 0. -1.
         21    1    1    2  505  502  0.11303943690E+02 -0.96941951770E+02 -0.79471607676E+01  0.97921797983E+02  0.00000000000E+00 0.  1.
         21    1    1    2  506  505  0.67424751115E+02 -0.29920617934E+02  0.10184213828E+03  0.12575039391E+03  0.00000000000E+00 0.  1.
<scales pt_clust_3="30.77101" pt_clust_4="14000.00000" pt_clust_5="123.75447" pt_clust_6="76.72001"></scales>
<clustering>
<clus scale="   30.771">  1  3  2 -1</clus>
<clus scale="   76.720">  1  6  2 -1</clus>
<clus scale="  123.754">  1  5  2 -1</clus>
<clus scale="   30.771">  1  3  2 -1</clus>
</clustering>
</event>
<event>
 6    0  0.1438923E+002  0.1728195E+03  0.7546771E-02  0.1174939E+00
         21   -1    0    0  505  501  0.00000000000E+00  0.00000000000E+00  0.97667909536E+03  0.97667909536E+03  0.00000000000E+00 0.  1.
         21   -1    0    0  506  502 -0.00000000000E+00 -0.00000000000E+00 -0.11989571283E+03  0.11989571283E+03  0.00000000000E+00 0. -1.
         21    1    1    2  503  501  0.15292063092E+03 -0.54850742756E+02  0.45323311995E+03  0.48147023206E+03  0.00000000000E+00 0.  1.
         21    1    1    2  504  502 -0.15509797841E+03  0.12788114919E+03  0.23170779365E+03  0.30675311386E+03  0.00000000000E+00 0.  1.
         21    1    1    2  505  504 -0.34701036752E+02 -0.60140649930E+02  0.22890125325E+03  0.23920042530E+03  0.00000000000E+00 0.  1.
         21    1    1    2  506  503  0.36878384237E+02 -0.12889756509E+02 -0.57058784308E+02  0.69151036966E+02  0.00000000000E+00 0. -1.
<scales pt_clust_3="172.81952" pt_clust_4="14000.00000" pt_clust_5="68.86299" pt_clust_6="39.06611"></scales>
<clustering>
<clus scale="   39.066">  2  6  1 -1</clus>
<clus scale="   68.863">  1  5  2 -1</clus>
<clus scale="  172.820">  1  3  2 -1</clus>
<clus scale="   68.863">  1  3  2 -1</clus>
</clustering>
</event>
<event>
 6    0  0.1438923E+002  0.9373623E+02  0.7546771E-02  0.1294048E+00
         21   -1    0    0  504  501  0.00000000000E+00  0.00000000000E+00  0.74854836346E+03  0.74854836346E+03  0.00000000000E+00 0.  1.
         21   -1    0    0  506  502 -0.00000000000E+00 -0.00000000000E+00 -0.34540658946E+03  0.34540658946E+03  0.00000000000E+00 0. -1.
         21    1    1    2  503  501  0.14268497581E+02 -0.70810446483E+02  0.28318266874E+03  0.29225012101E+03  0.00000000000E+00 0.  1.
         21    1    1    2  504  505 -0.93199903205E+01  0.42565796105E+02  0.34380210742E+03  0.34655244666E+03  0.00000000000E+00 0. -1.
         21    1    1    2  505  502  0.70004348718E+02  0.63692245088E+02 -0.31677431301E+03  0.33061046007E+03  0.00000000000E+00 0. -1.
         21    1    1    2  506  503 -0.74952855979E+02 -0.35447594710E+02  0.92931310867E+02  0.12454192519E+03  0.00000000000E+00 0.  1.
<scales pt_clust_3="41.16075" pt_clust_4="43.57418" pt_clust_5="93.73623" pt_clust_6="14000.00000"></scales>
<clustering>
<clus scale="   43.574">  1  4  2 -1</clus>
<clus scale="   41.161">  1  3  2 -1</clus>
<clus scale="   93.736">  2  5  1 -1</clus>
<clus scale="   43.574">  1  3  2 -1</clus>
</clustering>
</event>
<event>
 6    0  0.1438923E+002  0.4597751E+03  0.7546771E-02  0.1024846E+00
         21   -1    0    0  503  501  0.00000000000E+00  0.00000000000E+00  0.32314974698E+03  0.32314974698E+03  0.00000000000E+00 0. -1.
         21   -1    0    0  506  502 -0.00000000000E+00 -0.00000000000E+00 -0.10861662828E+04  0.10861662828E+04  0.00000000000E+00 0. -1.
         21    1    1    2  503  502  0.40192785293E+03 -0.24963996074E+03 -0.75251582997E+03  0.88890167247E+03  0.00000000000E+00 0. -1.
         21    1    1    2  504  505 -0.15985300434E+03  0.15647355713E+03 -0.68316153031E+02  0.23388897760E+03  0.00000000000E+00 0. -1.
         21    1    1    2  505  501 -0.81658083284E+02  0.33177103888E+01  0.62049221591E+02  0.10261167413E+03  0.00000000000E+00 0.  1.
         21    1    1    2  506  504 -0.16041676531E+03  0.89848693218E+02 -0.42337744480E+01  0.18391370561E+03  0.00000000000E+00 0. -1.
<scales pt_clust_3="453.15000" pt_clust_4="70.50832" pt_clust_5="81.72545" pt_clust_6="70.50832"></scales>
<clustering>
<clus scale="   70.508">  4  6 -1 -1</clus>
<clus scale="   81.725">  1  5  2 -1</clus>
<clus scale="  453.150">  2  3  1 -1</clus>
<clus scale="   81.725">  1  3  2 -1</clus>
</clustering>
</event>
<event>
 6    0  0.1438923E+002  0.1554971E+03  0.7546771E-02  0.1193876E+00
         21   -1    0    0  503  501  0.00000000000E+00  0.00000000000E+00  0.77131524172E+02  0.77131524172E+02  0.00000000000E+00 0.  1.
         21   -1    0    0  506  502 -0.00000000000E+00 -0.00000000000E+00 -0.15453499667E+04  0.15453499667E+04  0.00000000000E+00 0.  1.
         21    1    1    2  503  504  0.62697690201E+02  0.23348874879E+02  0.11572036797E+02  0.67897587220E+02  0.00000000000E+00 0.  1.
         21    1    1    2  504  502 -0.94892021279E+02 -0.14383922992E+03 -0.13131103605E+04  0.13243689209E+04  0.00000000000E+00 0.  1.
         21    1    1    2  505  501  0.44291274507E+02  0.77672124900E+01 -0.39643165702E+02  0.59946869595E+02  0.00000000000E+00 0. -1.
         21    1    1    2  506  505 -0.12096943429E+02  0.11272314255E+03 -0.12703695316E+03  0.17026811320E+03  0.00000000000E+00 0.  1.
<scales pt_clust_3="93.26175" pt_clust_4="14000.00000" pt_clust_5="44.96717" pt_clust_6="155.49713"></scales>
<clustering>
<clus scale="   44.967">  1  5  2 -1</clus>
<clus scale="   93.262">  1  3  2 -1</clus>
<clus scale="  155.497">  1  6  2 -1</clus>
<clus scale="   44.967">  1  3  2 -1</clus>
</clustering>
</event>
<event>
 6    0  0.1438923E+002  0.1454050E+03  0.7546771E-02  0.1206236E+00
         21   -1    0    0  505  501  0.00000000000E+00  0.00000000000E+00  0.29917733390E+03  0.29917733390E+03  0.00000000000E+00 0. -1.
         21   -1    0    0  506  502 -0.00000000000E+00 -0.00000000000E+00 -0.20031128243E+03  0.20031128243E+03  0.00000000000E+00 0. -1.
         21    1    1    2  503  504  0.81110468846E+02  0.72102088601E+01  0.10170871382E+03  0.13029028258E+03  0.00000000000E+00 0. -1.
         21    1    1    2  504  502  0.83746113492E+02 -0.23697650920E+02  0.74445177587E+02  0.11452979809E+03  0.00000000000E+00 0.  1.
         21    1    1    2  505  503 -0.28655765910E+02  0.32984437997E+02  0.50777853536E+02  0.66988928037E+02  0.00000000000E+00 0. -1.
         21    1    1    2  506  501 -0.13620081643E+03 -0.16496995937E+02 -0.12806569347E+03  0.18767960762E+03  0.00000000000E+00 0. -1.
<scales pt_clust_3="36.92323" pt_clust_4="36.92323" pt_clust_5="43.69355" pt_clust_6="140.30489"></scales>
<clustering>
<clus scale="   36.923">  3  4 -1 -1</clus>
<clus scale="   43.694">  1  5  2 -1</clus>
<clus scale="  140.305">  2  6  1 -1</clus>
<clus scale="   43.694">  1  3  2 -1</clus>
</clustering>
</event>
<event>
 6    0  0.1438923E+002  0.2025662E+03  0.7546771E-02  0.1147592E+00
         21   -1    0    0  505  501  0.00000000000E+00  0.00000000000E+00  0.64013811239E+03  0.64013811239E+03  0.00000000000E+00 0. -1.
         21   -1    0    0  506  502 -0.00000000000E+00 -0.00000000000E+00 -0.20640175355E+03  0.20640175355E+03  0.00000000000E+00 0.  1.
         21    1    1    2  503  501 -0.98340041305E+01 -0.34007315338E+02  0.15787051695E+03  0.16179093070E+03  0.00000000000E+00 0. -1.
         21    1    1    2  504  503 -0.14115512719E+03  0.66522313866E+02  0.36343917955E+03  0.39552247143E+03  0.00000000000E+00 0. -1.
         21    1    1    2  505  502  0.18618085504E+03 -0.53509692271E+02 -0.12758154025E+03  0.23195613241E+03  0.00000000000E+00 0.  1.
         21    1    1    2  506  504 -0.35191723718E+02  0.20994693743E+02  0.40008202586E+02  0.57270331392E+02  0.00000000000E+00 0.  1.
<scales pt_clust_3="35.40064" pt_clust_4="30.29148" pt_clust_5="193.74974" pt_clust_6="30.29148"></scales>
<clustering>
<clus scale="   30.291">  4  6 -1 -1</clus>
<clus scale="   35.401">  1  3  2 -1</clus>
<clus scale="  193.750">  2  5  1 -1</clus>
<clus scale="   35.401">  1  3  2 -1</clus>
</clustering>
</event>
<event>
 6    0  0.1438923E+002  0.1866386E+03  0.7546771E-02  0.1161528E+00
         21   -1    0    0  505  501  0.00000000000E+00  0.00000000000E+00  0.15484407343E+03  0.15484407343E+03  0.00000000000E+00 0. -1.
         21   -1    0    0  503  502 -0.00000000000E+00 -0.00000000000E+00 -0.50688227421E+03  0.50688227421E+03  0.00000000000E+00 0. -1.
         21    1    1    2  503  504 -0.49155376541E+02 -0.23443991557E+02 -0.13317564269E+03  0.14388058795E+03  0.00000000000E+00 0. -1.
         21    1    1    2  504  506  0.15414215577E+03  0.31907886162E+02 -0.19440943396E+03  0.25014584825E+03  0.00000000000E+00 0. -1.
         21    1    1    2  505  502 -0.15875293118E+03 -0.54312862520E+02  0.39524424367E+02  0.17237911798E+03  0.00000000000E+00 0. -1.
         21    1    1    2  506  501  0.53766151952E+02  0.45848967915E+02 -0.63977548497E+02  0.95320793463E+02  0.00000000000E+00 0. -1.
<scales pt_clust_3="54.45982" pt_clust_4="38.55465" pt_clust_5="177.54604" pt_clust_6="38.55465"></scales>
<clustering>
<clus scale="   38.555">  4  6 -1 -1</clus>
<clus scale="   54.460">  2  3  1 -1</clus>
<clus scale="  177.546">  1  5  2 -1</clus>
<clus scale="  177.546">  1  3  2 -1</clus>
</clustering>
</event>
<event>
 6    0  0.1438923E+002  0.8851514E+02  0.7546771E-02  0.1306488E+00
         21   -1    0    0  503  501  0.00000000000E+00  0.00000000000E+00  0.29456198679E+03  0.29456198679E+03  0.00000000000E+00 0. -1.
         21   -1    0    0  506  502 -0.00000000000E+00 -0.00000000000E+00 -0.17974938067E+03  0.17974938067E+03  0.00000000000E+00 0.  1.
         21    1    1    2  503  504  0.27084285830E+02 -0.13070914441E+03  0.68069488302E+02  0.14983956156E+03  0.00000000000E+00 0. -1.
         21    1    1    2  504  502 -0.26280230155E+02  0.61039435841E+02 -0.12163883106E+03  0.13860904893E+03  0.00000000000E+00 0.  1.
         21    1    1    2  505  501  0.12940794721E+02  0.30972955507E+02  0.10591143080E+03  0.11110364222E+03  0.00000000000E+00 0. -1.
         21    1    1    2  506  505 -0.13744850395E+02  0.38696753060E+02  0.62470518080E+02  0.74759114755E+02  0.00000000000E+00 0. -1.
<scales pt_clust_3="80.60372" pt_clust_4="66.45648" pt_clust_5="33.07090" pt_clust_6="33.07090"></scales>
<clustering>
<clus scale="   33.071">  5  6 -1 -1</clus>
<clus scale="   66.456">  2  4  1 -1</clus>
<clus scale="   80.604">  2  3  1 -1</clus>
<clus scale="   88.515">  1  3  2 -1</clus>
</clustering>
</event>
<event>
 6    0  0.1438923E+002  0.1178883E+03  0.7546771E-02  0.1246622E+00
         21   -1    0    0  503  501  0.00000000000E+00  0.00000000000E+00  0.32637540129E+02  0.32637540129E+02  0.00000000000E+00 0.  1.
         21   -1    0    0  506  502 -0.00000000000E+00 -0.00000000000E+00 -0.15949967631E+04  0.15949967631E+04  0.00000000000E+00 0.  1.
         21    1    1    2  503  505 -0.19592455829E+02 -0.97528647587E+02 -0.13488920358E+03  0.16760309863E+03  0.00000000000E+00 0.  1.
         21    1    1    2  504  502  0.23856079365E+02  0.45652926924E+02 -0.11790003013E+04  0.11801249988E+04  0.00000000000E+00 0.  1.
         21    1    1    2  505  504 -0.30664185452E+02 -0.18899298593E+02 -0.24557007674E+02  0.43594981163E+02  0.00000000000E+00 0.  1.
         21    1    1    2  506  501  0.26400561915E+02  0.70775019256E+02 -0.22391271041E+03  0.23631122466E+03  0.00000000000E+00 0. -1.
<scales pt_clust_3="33.50562" pt_clust_4="51.51022" pt_clust_5="33.50562" pt_clust_6="103.91017"></scales>
<clustering>
<clus scale="   33.506">  3  5 -1 -1</clus>
<clus scale="   51.510">  2  4  1 -1</clus>
<clus scale="  103.910">  2  6  1 -1</clus>
<clus scale="  117.888">  1  3  2 -1</clus>
</clustering>
</event>
<event>
 6    0  0.1453494E+002  0.1438434E+03  0.7546771E-02  0.1208249E+00
         21   -1    0    0  503  501  0.00000000000E+00  0.00000000000E+00  0.15072307914E+04  0.15072307914E+04  0.00000000000E+00 0.  1.
         21   -1    0    0  505  502 -0.00000000000E+00 -0.00000000000E+00 -0.10263532154E+04  0.10263532154E+04  0.00000000000E+00 0. -1.
         21    1    1    2  503  502  0.32797399498E+02 -0.22784272200E+01  0.50297352209E+02  0.60088969734E+02  0.00000000000E+00 0.  1.
         21    1    1    2  504  501  0.29020154063E+02  0.66095635961E+02  0.10229867129E+04  0.10255304078E+04  0.00000000000E+00 0.  1.
         21    1    1    2  505  506 -0.10261577928E+03 -0.90393274340E+02 -0.10141959862E+04  0.10233740473E+04  0.00000000000E+00 0. -1.
         21    1    1    2  506  504  0.40798225716E+02  0.26576065599E+02  0.42178949714E+03  0.42459058206E+03  0.00000000000E+00 0.  1.
<scales pt_clust_3="32.87645" pt_clust_4="37.04625" pt_clust_5="136.67839" pt_clust_6="37.04625"></scales>
<clustering>
<clus scale="   32.876">  1  3  2 -1</clus>
<clus scale="   37.046">  4  6 -1 -1</clus>
<clus scale="  136.678">  2  5  1 -1</clus>
<clus scale="   32.876">  1  3  2 -1</clus>
</clustering>
</event>
<event>
 6    0  0.1438923E+002  0.3261550E+03  0.7546771E-02  0.1072851E+00
         21   -1    0    0  505  501  0.00000000000E+00  0.00000000000E+00  0.90709506341E+02  0.90709506341E+02  0.00000000000E+00 0. -1.
         21   -1    0    0  503  502 -0.00000000000E+00 -0.00000000000E+00 -0.13647646152E+04  0.13647646152E+04  0.00000000000E+00 0. -1.
         21    1    1    2  503  506 -0.29009042127E+03  0.15540256866E+03 -0.77543121964E+03  0.84237520575E+03  0.00000000000E+00 0. -1.
         21    1    1    2  504  502  0.15972712615E+03 -0.57275500439E+02 -0.28876905265E+03  0.33493402864E+03  0.00000000000E+00 0. -1.
         21    1    1    2  505  504  0.13189728504E+03 -0.63164492253E+02 -0.18175053634E+03  0.23328074147E+03  0.00000000000E+00 0. -1.
         21    1    1    2  506  501 -0.15339899185E+01 -0.34962575968E+02 -0.28104300283E+02  0.44884145728E+02  0.00000000000E+00 0. -1.
<scales pt_clust_3="323.18466" pt_clust_4="41.03129" pt_clust_5="41.03129" pt_clust_6="34.99621"></scales>
<clustering>
<clus scale="   34.996">  1  6  2 -1</clus>
<clus scale="   41.031">  4  5 -1 -1</clus>
<clus scale="  323.185">  2  3  1 -1</clus>
<clus scale="   34.996">  1  3  2 -1</clus>
</clustering>
</event>
<event>
 6    0  0.1438923E+002  0.2077689E+03  0.7546771E-02  0.1143345E+00
         21   -1    0    0  506  501  0.00000000000E+00  0.00000000000E+00  0.86556585428E+02  0.86556585428E+02  0.00000000000E+00 0. -1.
         21   -1    0    0  503  502 -0.00000000000E+00 -0.00000000000E+00 -0.69128317495E+03  0.69128317495E+03  0.00000000000E+00 0. -1.
         21    1    1    2  503  501 -0.11397608961E+03 -0.16935509840E+03 -0.30488072996E+03  0.36691137603E+03  0.00000000000E+00 0. -1.
         21    1    1    2  504  505  0.36299943530E+02  0.73624426123E+01 -0.51084476027E+02  0.63099248430E+02  0.00000000000E+00 0. -1.
         21    1    1    2  505  502 -0.12858838617E+02  0.29843164379E+02 -0.16284460112E+03  0.16605519656E+03  0.00000000000E+00 0. -1.
         21    1    1    2  506  504  0.90534984693E+02  0.13214949141E+03 -0.85916782420E+02  0.18177393937E+03  0.00000000000E+00 0. -1.
<scales pt_clust_3="193.71391" pt_clust_4="35.34830" pt_clust_5="32.49560" pt_clust_6="35.34830"></scales>
<clustering>
<clus scale="   32.496">  2  5  1 -1</clus>
<clus scale="   35.348">  4  6 -1 -1</clus>
<clus scale="  193.714">  2  3  1 -1</clus>
<clus scale="  207.769">  1  3  2 -1</clus>
</clustering>
</event>
<event>
 6    0  0.1438923E+002  0.1099955E+03  0.7546771E-02  0.1260578E+00
         21   -1    0    0  505  501  0.00000000000E+00  0.00000000000E+00  0.31809369551E+03  0.31809369551E+03  0.00000000000E+00 0. -1.
         21   -1    0    0  504  502 -0.00000000000E+00 -0.00000000000E+00 -0.17449001148E+03  0.17449001148E+03  0.00000000000E+00 0.  1.
         21    1    1    2  503  502  0.34648314890E+02  0.11137425188E+02 -0.44847740999E+02  0.57756972196E+02  0.00000000000E+00 0.  1.
         21    1    1    2  504  501  0.97295491878E+02 -0.85966942304E+02 -0.49682599046E+02  0.13901470626E+03  0.00000000000E+00 0.  1.
         21    1    1    2  505  506 -0.10282726265E+03  0.34591215171E+02  0.21542057160E+03  0.24119705799E+03  0.00000000000E+00 0. -1.
         21    1    1    2  506  503 -0.29116544113E+02  0.40238301946E+02  0.22713452470E+02  0.54614970545E+02  0.00000000000E+00 0. -1.
<scales pt_clust_3="36.39434" pt_clust_4="109.99551" pt_clust_5="14000.00000" pt_clust_6="48.41386"></scales>
<clustering>
<clus scale="   36.394">  2  3  1 -1</clus>
<clus scale="   48.414">  2  6  1 -1</clus>
<clus scale="  109.996">  2  4  1 -1</clus>
<clus scale="  109.996">  1  3  2 -1</clus>
</clustering>
</event>
<event>
 6    0  0.1438923E+002  0.3076953E+03  0.7546771E-02  0.1081456E+00
         21   -1    0    0  504  501  0.00000000000E+00  0.00000000000E+00  0.86102795785E+03  0.86102795785E+03  0.00000000000E+00 0.  1.
         21   -1    0    0  506  502 -0.00000000000E+00 -0.00000000000E+00 -0.74866617093E+03  0.74866617093E+03  0.00000000000E+00 0.  1.
         21    1    1    2  503  501  0.14894137294E+03  0.24288416306E+02 -0.28730346820E+03  0.32452541130E+03  0.00000000000E+00 0. -1.
         21    1    1    2  504  505 -0.20182640683E+03 -0.97177530625E+02  0.61980306872E+03  0.65903961562E+03  0.00000000000E+00 0.  1.
         21    1    1    2  505  502 -0.78397079030E+02 -0.69439698949E+01  0.18056789864E+03  0.19697483783E+03  0.00000000000E+00 0.  1.
         21    1    1    2  506  503  0.13128211292E+03  0.79833084213E+02 -0.40070571224E+03  0.42915426402E+03  0.00000000000E+00 0.  1.
<scales pt_clust_3="72.21634" pt_clust_4="303.59028" pt_clust_5="31.36857" pt_clust_6="72.21634"></scales>
<clustering>
<clus scale="   31.369">  4  5 -1 -1</clus>
<clus scale="   72.216">  3  6 -1 -1</clus>
<clus scale="  303.590">  1  4  2 -1</clus>
<clus scale="  303.590">  1  3  2 -1</clus>
</clustering>
</event>
<event>
 6    0  0.1438923E+002  0.1268095E+03  0.7546771E-02  0.1232268E+00
         21   -1    0    0  503  501  0.00000000000E+00  0.00000000000E+00  0.35778875190E+03  0.35778875190E+03  0.00000000000E+00 0.  1.
         21   -1    0    0  505  502 -0.00000000000E+00 -0.00000000000E+00 -0.24924799257E+03  0.24924799257E+03  0.00000000000E+00 0. -1.
         21    1    1    2  503  506 -0.31214443871E+02  0.24607012700E+02  0.13536381460E+03  0.14107873293E+03  0.00000000000E+00 0.  1.
         21    1    1    2  504  501  0.18363786752E+02  0.33073252680E+02  0.96863874465E+01  0.39049901517E+02  0.00000000000E+00 0. -1.
         21    1    1    2  505  504  0.10306353169E+03 -0.44697043788E+02 -0.20590105600E+03  0.23455311158E+03  0.00000000000E+00 0. -1.
         21    1    1    2  506  502 -0.90212874568E+02 -0.12983221592E+02  0.16939161328E+03  0.19235499846E+03  0.00000000000E+00 0.  1.
<scales pt_clust_3="43.76763" pt_clust_4="37.82947" pt_clust_5="112.50852" pt_clust_6="43.76763"></scales>
<clustering>
<clus scale="   37.829">  1  4  2 -1</clus>
<clus scale="   43.768">  3  6 -1 -1</clus>
<clus scale="  112.509">  2  5  1 -1</clus>
<clus scale="   37.829">  1  3  2 -1</clus>
</clustering>
</event>
<event>
 6    0  0.1438923E+002  0.7584954E+02  0.7546771E-02  0.1341260E+00
         21   -1    0    0  503  501  0.00000000000E+00  0.00000000000E+00  0.56009495555E+03  0.56009495555E+03  0.00000000000E+00 0. -1.
         21   -1    0    0  504  502 -0.00000000000E+00 -0.00000000000E+00 -0.63284350727E+03  0.63284350727E+03  0.00000000000E+00 0.  1.
         21    1    1    2  503  506  0.29258030190E+02  0.34344694977E+02  0.89286418076E+02  0.10003826696E+03  0.00000000000E+00 0. -1.
         21    1    1    2  504  505  0.57766261142E+02  0.49261912546E+02 -0.61386601284E+03  0.61854277028E+03  0.00000000000E+00 0.  1.
         21    1    1    2  505  501 -0.61644909626E+02 -0.69887347024E+01  0.23293489531E+03  0.24105518610E+03  0.00000000000E+00 0. -1.
         21    1    1    2  506  502 -0.25379381706E+02 -0.76617872820E+02  0.21889614774E+03  0.23330223948E+03  0.00000000000E+00 0. -1.
<scales pt_clust_3="45.11752" pt_clust_4="75.84954" pt_clust_5="47.91149" pt_clust_6="14000.00000"></scales>
<clustering>
<clus scale="   45.118">  1  3  2 -1</clus>
<clus scale="   47.911">  1  5  2 -1</clus>
<clus scale="   75.850">  2  4  1 -1</clus>
<clus scale="   45.118">  1  3  2 -1</clus>
</clustering>
</event>
<event>
 6    0  0.1438923E+002  0.1030904E+03  0.7546771E-02  0.1273928E+00
         21   -1    0    0  505  501  0.00000000000E+00  0.00000000000E+00  0.37743845317E+03  0.37743845317E+03  0.00000000000E+00 0.  1.
         21   -1    0    0  506  502 -0.00000000000E+00 -0.00000000000E+00 -0.27927287603E+03  0.27927287603E+03  0.00000000000E+00 0. -1.
         21    1    1    2  503  504  0.26984125029E+02 -0.99496804700E+02  0.27106290335E+03  0.29000492189E+03  0.00000000000E+00 0.  1.
         21    1    1    2  504  501  0.76974111781E+01 -0.45950776746E+02  0.24340115730E+02  0.52565818325E+02  0.00000000000E+00 0.  1.
         21    1    1    2  505  502  0.88305923385E+01  0.51927518156E+02  0.32790078454E+02  0.62045432934E+02  0.00000000000E+00 0.  1.
         21    1    1    2  506  503 -0.43512128546E+02  0.93520063289E+02 -0.23002752039E+03  0.25209515605E+03  0.00000000000E+00 0. -1.
<scales pt_clust_3="14000.00000" pt_clust_4="46.59103" pt_clust_5="46.56600" pt_clust_6="103.09036"></scales>
<clustering>
<clus scale="   46.591">  1  4  2 -1</clus>
<clus scale="   46.566">  1  5  2 -1</clus>
<clus scale="  103.090">  2  6  1 -1</clus>
<clus scale="   46.591">  1  3  2 -1</clus>
</clustering>
</event>
<event>
 6    0  0.1438923E+002  0.1381488E+03  0.7546771E-02  0.1215842E+00
         21   -1    0    0  505  501  0.00000000000E+00  0.00000000000E+00  0.10062713793E+04  0.10062713793E+04  0.00000000000E+00 0. -1.
         21   -1    0    0  506  502 -0.00000000000E+00 -0.00000000000E+00 -0.30465425429E+03  0.30465425429E+03  0.00000000000E+00 0.  1.
         21    1    1    2  503  502 -0.12728375665E+03  0.42622357832E+02 -0.26926483564E+03  0.30086769817E+03  0.00000000000E+00 0.  1.
         21    1    1    2  504  503  0.70800365105E+02  0.16964374783E+02  0.35843365654E+03  0.36575287812E+03  0.00000000000E+00 0. -1.
         21    1    1    2  505  504  0.55048452810E+02  0.48003842167E+02  0.39494279048E+03  0.40163977489E+03  0.00000000000E+00 0. -1.
         21    1    1    2  506  501  0.14349387361E+01 -0.10759057478E+03  0.21750551360E+03  0.24266528239E+03  0.00000000000E+00 0.  1.
<scales pt_clust_3="133.52329" pt_clust_4="35.39184" pt_clust_5="35.39184" pt_clust_6="107.60014"></scales>
<clustering>
<clus scale="   35.392">  4  5 -1 -1</clus>
<clus scale="  107.600">  1  6  2 -1</clus>
<clus scale="  133.523">  2  3  1 -1</clus>
<clus scale="  107.600">  1  3  2 -1</clus>
</clustering>
</event>
<event>
 6    0  0.1438923E+002  0.3223867E+03  0.7546771E-02  0.1074556E+00
         21   -1    0    0  505  501  0.00000000000E+00  0.00000000000E+00  0.66069100168E+03  0.66069100168E+03  0.00000000000E+00 0. -1.
         21   -1    0    0  503  502 -0.00000000000E+00 -0.00000000000E+00 -0.98104679369E+03  0.98104679369E+03  0.00000000000E+00 0. -1.
         21    1    1    2  503  506 -0.31549505178E+03 -0.28447232875E+01 -0.78865845607E+03  0.84942767819E+03  0.00000000000E+00 0. -1.
         21    1    1    2  504  502  0.40133896536E+03  0.10113964393E+03  0.23810462365E+03  0.47748927160E+03  0.00000000000E+00 0. -1.
         21    1    1    2  505  504 -0.11737265431E+02  0.29380984946E+02  0.13616378786E+03  0.13979121146E+03  0.00000000000E+00 0. -1.
         21    1    1    2  506  501 -0.74106648152E+02 -0.12767590558E+03  0.94034252556E+02  0.17502963412E+03  0.00000000000E+00 0. -1.
<scales pt_clust_3="322.38672" pt_clust_4="14000.00000" pt_clust_5="31.63867" pt_clust_6="142.74466"></scales>
<clustering>
<clus scale="   31.639">  1  5  2 -1</clus>
<clus scale="  142.745">  1  6  2 -1</clus>
<clus scale="  322.387">  2  3  1 -1</clus>
<clus scale="   31.639">  1  3  2 -1</clus>
</clustering>
</event>
<event>
 6    0  0.1438923E+002  0.1224312E+03  0.7546771E-02  0.1239139E+00
         21   -1    0    0  505  501  0.00000000000E+00  0.00000000000E+00  0.15676893576E+03  0.15676893576E+03  0.00000000000E+00 0.  1.
         21   -1    0    0  506  502 -0.00000000000E+00 -0.00000000000E+00 -0.12029666224E+04  0.12029666224E+04  0.00000000000E+00 0.  1.
         21    1    1    2  503  504  0.20208655133E+02  0.43672957060E+02 -0.53888252479E+02  0.72247219157E+02  0.00000000000E+00 0.  1.
         21    1    1    2  504  501  0.17681708401E+02  0.26549532916E+02  0.91138410794E+02  0.96559465782E+02  0.00000000000E+00 0.  1.
         21    1    1    2  505  502  0.33316368388E+02  0.35893211115E+02  0.38147456401E+02  0.62076818835E+02  0.00000000000E+00 0. -1.
         21    1    1    2  506  503 -0.71206731922E+02 -0.10611570109E+03 -0.11215953014E+04  0.11288520544E+04  0.00000000000E+00 0.  1.
<scales pt_clust_3="52.72529" pt_clust_4="31.89860" pt_clust_5="14000.00000" pt_clust_6="122.43125"></scales>
<clustering>
<clus scale="   31.899">  1  4  2 -1</clus>
<clus scale="   52.725">  1  3  2 -1</clus>
<clus scale="  122.431">  2  6  1 -1</clus>
<clus scale="   31.899">  1  3  2 -1</clus>
</clustering>
</event>
<event>
 6    0  0.1438923E+002  0.1226702E+03  0.7546771E-02  0.1238756E+00
         21   -1    0    0  505  501  0.00000000000E+00  0.00000000000E+00  0.12970842838E+03  0.12970842838E+03  0.00000000000E+00 0. -1.
         21   -1    0    0  506  502 -0.00000000000E+00 -0.00000000000E+00 -0.24222129577E+03  0.24222129577E+03  0.00000000000E+00 0. -1.
         21    1    1    2  503  504 -0.32583120599E+02 -0.18644742338E+02 -0.26165693816E+02  0.45759476589E+02  0.00000000000E+00 0. -1.
         21    1    1    2  504  502 -0.68332917931E-01 -0.72661566947E+02 -0.31261867298E+02  0.79101278925E+02  0.00000000000E+00 0. -1.
         21    1    1    2  505  503  0.58364003615E+01  0.11673482074E+03  0.56285451346E+02  0.12972715204E+03  0.00000000000E+00 0. -1.
         21    1    1    2  506  501  0.26815053155E+02 -0.25428511455E+02 -0.11137075762E+03  0.11734181660E+03  0.00000000000E+00 0. -1.
<scales pt_clust_3="35.07745" pt_clust_4="35.07745" pt_clust_5="110.26628" pt_clust_6="36.95479"></scales>
<clustering>
<clus scale="   36.955">  2  6  1 -1</clus>
<clus scale="   35.077">  3  4 -1 -1</clus>
<clus scale="  110.266">  1  5  2 -1</clus>
<clus scale="  110.266">  1  3  2 -1</clus>
</clustering>
</event>
<event>
 6    0  0.1438923E+002  0.2754437E+03  0.7546771E-02  0.1098204E+00
         21   -1    0    0  503  501  0.00000000000E+00  0.00000000000E+00  0.11455400368E+03  0.11455400368E+03  0.00000000000E+00 0.  1.
         21   -1    0    0  505  502 -0.00000000000E+00 -0.00000000000E+00 -0.38563708215E+04  0.38563708215E+04  0.00000000000E+00 0.  1.
         21    1    1    2  503  506  0.20468568166E+02 -0.63032794863E+02 -0.55947661660E+02  0.86730827024E+02  0.00000000000E+00 0.  1.
         21    1    1    2  504  502 -0.23749313905E+02 -0.18915329283E+02 -0.15897152884E+04  0.15900051943E+04  0.00000000000E+00 0.  1.
         21    1    1    2  505  501 -0.12424537040E+03  0.23242016222E+03 -0.20796216330E+04  0.20962543215E+04  0.00000000000E+00 0.  1.
         21    1    1    2  506  504  0.12752611614E+03 -0.15047203807E+03 -0.16532234746E+02  0.19793448241E+03  0.00000000000E+00 0.  1.
<scales pt_clust_3="52.93152" pt_clust_4="30.36148" pt_clust_5="259.95190" pt_clust_6="52.93152"></scales>
<clustering>
<clus scale="   30.361">  2  4  1 -1</clus>
<clus scale="   52.932">  3  6 -1 -1</clus>
<clus scale="  259.952">  2  5  1 -1</clus>
<clus scale="  275.444">  1  3  2 -1</clus>
</clustering>
</event>
<event>
 6    0  0.1438923E+002  0.1704228E+03  0.7546771E-02  0.1177408E+00
         21   -1    0    0  506  501  0.00000000000E+00  0.00000000000E+00  0.92843785994E+02  0.92843785994E+02  0.00000000000E+00 0. -1.
         21   -1    0    0  504  502 -0.00000000000E+00 -0.00000000000E+00 -0.12404083251E+04  0.12404083251E+04  0.00000000000E+00 0. -1.
         21    1    1    2  503  502  0.49027555212E+02 -0.22962740498E+01 -0.76412146407E+03  0.76569614463E+03  0.00000000000E+00 0. -1.
         21    1    1    2  504  505 -0.50364304737E+02 -0.28569536827E+01 -0.26973642430E+02  0.57204044979E+02  0.00000000000E+00 0.  1.
         21    1    1    2  505  501 -0.12338280816E+03  0.76350286741E+01  0.92290659722E+01  0.12396284392E+03  0.00000000000E+00 0. -1.
         21    1    1    2  506  503  0.12471955769E+03 -0.24818009417E+01 -0.36569849860E+03  0.38638907759E+03  0.00000000000E+00 0.  1.
<scales pt_clust_3="49.08130" pt_clust_4="30.60722" pt_clust_5="30.60722" pt_clust_6="163.54896"></scales>
<clustering>
<clus scale="   30.607">  4  5 -1 -1</clus>
<clus scale="   49.081">  2  3  1 -1</clus>
<clus scale="  163.549">  2  6  1 -1</clus>
<clus scale="  170.423">  1  3  2 -1</clus>
</clustering>
</event>
<event>
 6    0  0.1438923E+002  0.1122978E+03  0.7546771E-02  0.1256373E+00
         21   -1    0    0  503  501  0.00000000000E+00  0.00000000000E+00  0.31993158596E+03  0.31993158596E+03  0.00000000000E+00 0.  1.
         21   -1    0    0  505  502 -0.00000000000E+00 -0.00000000000E+00 -0.23252808535E+03  0.23252808535E+03  0.00000000000E+00 0.  1.
         21    1    1    2  503  504  0.40802274401E+02  0.51110814082E+01  0.12609024916E+03  0.13262616515E+03  0.00000000000E+00 0.  1.
         21    1    1    2  504  502  0.32479086004E+02  0.98260980302E+02 -0.19122609792E+03  0.21743397114E+03  0.00000000000E+00 0.  1.
         21    1    1    2  505  506 -0.44053602684E+02 -0.64808915942E+02  0.62709530237E+02  0.10036633239E+03  0.00000000000E+00 0.  1.
         21    1    1    2  506  501 -0.29227757720E+02 -0.38563145768E+02  0.89829819141E+02  0.10203320263E+03  0.00000000000E+00 0.  1.
<scales pt_clust_3="41.12115" pt_clust_4="104.73499" pt_clust_5="31.83566" pt_clust_6="31.83566"></scales>
<clustering>
<clus scale="   31.836">  5  6 -1 -1</clus>
<clus scale="   41.121">  1  3  2 -1</clus>
<clus scale="  104.735">  2  4  1 -1</clus>
<clus scale="   41.121">  1  3  2 -1</clus>
</clustering>
</event>
<event>
 6    0  0.1438923E+002  0.9844379E+02  0.7546771E-02  0.1283603E+00
         21   -1    0    0  504  501  0.00000000000E+00  0.00000000000E+00  0.76836957880E+02  0.76836957880E+02  0.00000000000E+00 0. -1.
         21   -1    0    0  506  502 -0.00000000000E+00 -0.00000000000E+00 -0.84364595177E+03  0.84364595177E+03  0.00000000000E+00 0. -1.
         21    1    1    2  503  502  0.42341943817E+02 -0.41205437609E+02 -0.56489993620E+03  0.56798121995E+03  0.00000000000E+00 0. -1.
         21    1    1    2  504  505 -0.26293168663E+02  0.20633453434E+02  0.28781877133E+02  0.44107443479E+02  0.00000000000E+00 0. -1.
         21    1    1    2  505  503  0.47639332263E+02 -0.49302349108E+02 -0.19607000096E+03  0.20771055073E+03  0.00000000000E+00 0. -1.
         21    1    1    2  506  501 -0.63688107416E+02  0.69874333283E+02 -0.34620933866E+02  0.10068369550E+03  0.00000000000E+00 0. -1.
<scales pt_clust_3="57.81495" pt_clust_4="33.42260" pt_clust_5="98.44379" pt_clust_6="14000.00000"></scales>
<clustering>
<clus scale="   33.423">  1  4  2 -1</clus>
<clus scale="   57.815">  2  3  1 -1</clus>
<clus scale="   98.444">  2  5  1 -1</clus>
<clus scale="   33.423">  1  3  2 -1</clus>
</clustering>
</event>
<event>
 6    0  0.1438923E+002  0.2321498E+03  0.7546771E-02  0.1125136E+00
         21   -1    0    0  506  501  0.00000000000E+00  0.00000000000E+00  0.29016736262E+03  0.29016736262E+03  0.00000000000E+00 0.  1.
         21   -1    0    0  505  502 -0.00000000000E+00 -0.00000000000E+00 -0.14375400537E+04  0.14375400537E+04  0.00000000000E+00 0. -1.
         21    1    1    2  503  502  0.27368454928E+02 -0.21764364085E+03 -0.13614099699E+04  0.13789687788E+04  0.00000000000E+00 0. -1.
         21    1    1    2  504  503 -0.62596108437E+02  0.79621190613E+02  0.10936377442E+03  0.14905784763E+03  0.00000000000E+00 0.  1.
         21    1    1    2  505  501  0.25735620033E+02  0.26758714596E+02 -0.11178686798E+02  0.38772593205E+02  0.00000000000E+00 0. -1.
         21    1    1    2  506  504  0.94920334761E+01  0.11126373564E+03  0.11585219118E+03  0.16090819671E+03  0.00000000000E+00 0.  1.
<scales pt_clust_3="218.61820" pt_clust_4="71.14296" pt_clust_5="37.12615" pt_clust_6="71.14296"></scales>
<clustering>
<clus scale="   37.126">  1  5  2 -1</clus>
<clus scale="   71.143">  4  6 -1 -1</clus>
<clus scale="  218.618">  2  3  1 -1</clus>
<clus scale="   37.126">  1  3  2 -1</clus>
</clustering>
</event>
<event>
 6    0  0.1438923E+002  0.1292516E+03  0.7546771E-02  0.1228570E+00
         21   -1    0    0  504  501  0.00000000000E+00  0.00000000000E+00  0.53182129490E+02  0.53182129490E+02  0.00000000000E+00 0.  1.
         21   -1    0    0  506  502 -0.00000000000E+00 -0.00000000000E+00 -0.90188069439E+03  0.90188069439E+03  0.00000000000E+00 0.  1.
         21    1    1    2  503  505  0.92061117827E+02 -0.32509888622E+02 -0.55411346180E+02  0.11226112221E+03  0.00000000000E+00 0.  1.
         21    1    1    2  504  503  0.31878182978E+02  0.27893959490E+02 -0.86009616715E+02  0.95874635298E+02  0.00000000000E+00 0.  1.
         21    1    1    2  505  502 -0.13123512267E+03  0.38087509539E+02 -0.69825575091E+03  0.71150151756E+03  0.00000000000E+00 0.  1.
         21    1    1    2  506  501  0.72958218607E+01 -0.33471580407E+02 -0.90218510859E+01  0.35425548811E+02  0.00000000000E+00 0. -1.
<scales pt_clust_3="129.25159" pt_clust_4="40.48661" pt_clust_5="14000.00000" pt_clust_6="34.25749"></scales>
<clustering>
<clus scale="   34.257">  1  6  2 -1</clus>
<clus scale="   40.487">  1  4  2 -1</clus>
<clus scale="  129.252">  1  3  2 -1</clus>
<clus scale="   34.257">  1  3  2 -1</clus>
</clustering>
</event>
<event>
 6    0  0.1438923E+002  0.2475343E+03  0.7546771E-02  0.1114873E+00
         21   -1    0    0  504  501  0.00000000000E+00  0.00000000000E+00  0.40704244709E+03  0.40704244709E+03  0.00000000000E+00 0.  1.
         21   -1    0    0  505  502 -0.00000000000E+00 -0.00000000000E+00 -0.14875050614E+03  0.14875050614E+03  0.00000000000E+00 0.  1.
         21    1    1    2  503  502 -0.10195870414E+03 -0.49739042199E+02  0.64270001792E+02  0.13038474910E+03  0.00000000000E+00 0.  1.
         21    1    1    2  504  506 -0.40168018359E+02  0.10356463323E+02  0.74996715525E+02  0.85704336944E+02  0.00000000000E+00 0.  1.
         21    1    1    2  505  501  0.22375029561E+03  0.49352115055E+02  0.55394375765E+02  0.23572942734E+03  0.00000000000E+00 0.  1.
         21    1    1    2  506  503 -0.81623573114E+02 -0.99695361787E+01  0.63630847866E+02  0.10397443984E+03  0.00000000000E+00 0.  1.
<scales pt_clust_3="39.04507" pt_clust_4="39.04507" pt_clust_5="229.12841" pt_clust_6="30.67383"></scales>
<clustering>
<clus scale="   30.674">  3  6 -1 -1</clus>
<clus scale="   39.045">  3  4 -1 -1</clus>
<clus scale="  229.128">  2  5  1 -1</clus>
<clus scale="  247.534">  1  3  2 -1</clus>
</clustering>
</event>
<event>
 6    0  0.1438923E+002  0.9751016E+02  0.7546771E-02  0.1285621E+00
         21   -1    0    0  504  501  0.00000000000E+00  0.00000000000E+00  0.44979320219E+03  0.44979320219E+03  0.00000000000E+00 0. -1.
         21   -1    0    0  505  502 -0.00000000000E+00 -0.00000000000E+00 -0.22386367583E+03  0.22386367583E+03  0.00000000000E+00 0. -1.
         21    1    1    2  503  501 -0.77315766093E+02  0.75998326022E+02  0.34626009655E+03  0.36283540030E+03  0.00000000000E+00 0. -1.
         21    1    1    2  504  502  0.56341694065E+02 -0.43599517183E+02  0.42345409492E+02  0.82876040529E+02  0.00000000000E+00 0. -1.
         21    1    1    2  505  506  0.11022608180E+02  0.35895439045E+02 -0.15385219956E+03  0.15836817781E+03  0.00000000000E+00 0. -1.
         21    1    1    2  506  503  0.99514638473E+01 -0.68294247884E+02 -0.88237801305E+01  0.69577259378E+02  0.00000000000E+00 0. -1.
<scales pt_clust_3="97.51016" pt_clust_4="14000.00000" pt_clust_5="37.54971" pt_clust_6="50.25291"></scales>
<clustering>
<clus scale="   37.550">  2  5  1 -1</clus>
<clus scale="   50.253">  2  6  1 -1</clus>
<clus scale="   97.510">  1  3  2 -1</clus>
<clus scale="   97.510">  1  3  2 -1</clus>
</clustering>
</event>
<event>
 6    0  0.1438923E+002  0.1793617E+03  0.7546771E-02  0.1168422E+00
         21   -1    0    0  503  501  0.00000000000E+00  0.00000000000E+00  0.10898807744E+04  0.10898807744E+04  0.00000000000E+00 0.  1.
         21   -1    0    0  504  502 -0.00000000000E+00 -0.00000000000E+00 -0.28506675608E+03  0.28506675608E+03  0.00000000000E+00 0. -1.
         21    1    1    2  503  502 -0.32544971127E+02 -0.37222387277E+02  0.43908645771E+02  0.66126019340E+02  0.00000000000E+00 0. -1.
         21    1    1    2  504  505 -0.16732579548E+03 -0.29599974317E+02 -0.23467411920E+03  0.28973439999E+03  0.00000000000E+00 0. -1.
         21    1    1    2  505  506  0.97713631833E+02  0.52792131148E+01  0.48344582458E+03  0.49325012847E+03  0.00000000000E+00 0.  1.
         21    1    1    2  506  501  0.10215713477E+03  0.61543148479E+02  0.51213366721E+03  0.52583698273E+03  0.00000000000E+00 0.  1.
<scales pt_clust_3="49.44372" pt_clust_4="170.95077" pt_clust_5="49.16907" pt_clust_6="49.16907"></scales>
<clustering>
<clus scale="   49.169">  5  6 -1 -1</clus>
<clus scale="   49.444">  1  3  2 -1</clus>
<clus scale="  170.951">  2  4  1 -1</clus>
<clus scale="   49.444">  1  3  2 -1</clus>
</clustering>
</event>
<event>
 6    0  0.1438923E+002  0.2122487E+03  0.7546771E-02  0.1139798E+00
         21   -1    0    0  504  501  0.00000000000E+00  0.00000000000E+00  0.14011516029E+04  0.14011516029E+04  0.00000000000E+00 0. -1.
         21   -1    0    0  503  502 -0.00000000000E+00 -0.00000000000E+00 -0.89543867600E+02  0.89543867600E+02  0.00000000000E+00 0. -1.
         21    1    1    2  503  506  0.12153954684E+03 -0.15186129605E+03  0.82145117270E+02  0.21114339908E+03  0.00000000000E+00 0. -1.
         21    1    1    2  504  502 -0.70275435845E+02 -0.76285394031E+02  0.28175971462E+03  0.30024429222E+03  0.00000000000E+00 0. -1.
         21    1    1    2  505  501 -0.42843866143E+02  0.15475128158E+03  0.77512444488E+03  0.79158161997E+03  0.00000000000E+00 0. -1.
         21    1    1    2  506  505 -0.84202448535E+01  0.73395408506E+02  0.17257845857E+03  0.18772615927E+03  0.00000000000E+00 0. -1.
<scales pt_clust_3="197.04188" pt_clust_4="103.72125" pt_clust_5="53.51230" pt_clust_6="53.51230"></scales>
<clustering>
<clus scale="   53.512">  5  6 -1 -1</clus>
<clus scale="  103.721">  1  4  2 -1</clus>
<clus scale="  197.042">  2  3  1 -1</clus>
<clus scale="  103.721">  1  3  2 -1</clus>
</clustering>
</event>
<event>
 6    0  0.1438923E+002  0.1429518E+03  0.7546771E-02  0.1209411E+00
         21   -1    0    0  506  501  0.00000000000E+00  0.00000000000E+00  0.21728808782E+03  0.21728808782E+03  0.00000000000E+00 0.  1.
         21   -1    0    0  501  502 -0.00000000000E+00 -0.00000000000E+00 -0.46354486553E+03  0.46354486553E+03  0.00000000000E+00 0.  1.
         21    1    1    2  503  504  0.43677845014E+02 -0.19419167479E+02  0.44788275735E+02  0.65504563612E+02  0.00000000000E+00 0.  1.
         21    1    1    2  504  502 -0.25491650346E+02  0.13243965349E+03 -0.39956551201E+03  0.42171398417E+03  0.00000000000E+00 0.  1.
         21    1    1    2  505  503  0.37836035864E+02 -0.74792340653E+02  0.28077310772E+02  0.88395674161E+02  0.00000000000E+00 0.  1.
         21    1    1    2  506  505 -0.56022230532E+02 -0.38228145360E+02  0.80443147793E+02  0.10521873140E+03  0.00000000000E+00 0.  1.
<scales pt_clust_3="40.35454" pt_clust_4="132.58827" pt_clust_5="40.35454" pt_clust_6="67.82243"></scales>
<clustering>
<clus scale="   40.355">  3  5 -1 -1</clus>
<clus scale="   67.822">  1  6  2 -1</clus>
<clus scale="  132.588">  2  4  1 -1</clus>
<clus scale="   67.822">  1  3  2 -1</clus>
</clustering>
</event>
<event>
 6    0  0.1438923E+002  0.1208167E+03  0.7546771E-02  0.1241756E+00
         21   -1    0    0  503  501  0.00000000000E+00  0.00000000000E+00  0.26033276933E+03  0.26033276933E+03  0.00000000000E+00 0. -1.
         21   -1    0    0  505  502 -0.00000000000E+00 -0.00000000000E+00 -0.13942823791E+03  0.13942823791E+03  0.00000000000E+00 0. -1.
         21    1    1    2  503  506 -0.33737597938E+02  0.95423380039E+00  0.97233187533E+02  0.10292438406E+03  0.00000000000E+00 0. -1.
         21    1    1    2  504  501 -0.48149279263E+02 -0.60234774565E+02  0.40170135715E+02  0.86949531130E+02  0.00000000000E+00 0. -1.
         21    1    1    2  505  504  0.12137920092E+03  0.40424068208E+02 -0.65883715942E+02  0.14390163214E+03  0.00000000000E+00 0. -1.
         21    1    1    2  506  502 -0.39492323720E+02  0.18856472557E+02  0.49384924114E+02  0.65985459912E+02  0.00000000000E+00 0.  1.
<scales pt_clust_3="31.40173" pt_clust_4="77.11408" pt_clust_5="115.40408" pt_clust_6="31.40173"></scales>
<clustering>
<clus scale="   31.402">  3  6 -1 -1</clus>
<clus scale="   77.114">  1  4  2 -1</clus>
<clus scale="  115.404">  2  5  1 -1</clus>
<clus scale="   77.114">  1  3  2 -1</clus>
</clustering>
</event>
<event>
 6    0  0.1438923E+002  0.1249401E+03  0.7546771E-02  0.1235163E+00
         21   -1    0    0  506  501  0.00000000000E+00  0.00000000000E+00  0.80304499766E+03  0.80304499766E+03  0.00000000000E+00 0.  1.
         21   -1    0    0  505  502 -0.00000000000E+00 -0.00000000000E+00 -0.20271510247E+03  0.20271510247E+03  0.00000000000E+00 0. -1.
         21    1    1    2  503  502  0.33766296294E+02 -0.95911484237E+02  0.37377419965E+03  0.38735813907E+03  0.00000000000E+00 0. -1.
         21    1    1    2  504  501 -0.67359130243E+02  0.86881314900E+02  0.36633239780E+02  0.11587756281E+03  0.00000000000E+00 0.  1.
         21    1    1    2  505  504 -0.13912382363E+02  0.28699930838E+02 -0.15273566176E+03  0.15603019831E+03  0.00000000000E+00 0. -1.
         21    1    1    2  506  503  0.47505216311E+02 -0.19669761500E+02  0.34265811751E+03  0.34649419994E+03  0.00000000000E+00 0.  1.
<scales pt_clust_3="124.94005" pt_clust_4="14000.00000" pt_clust_5="31.89421" pt_clust_6="50.47758"></scales>
<clustering>
<clus scale="   31.894">  2  5  1 -1</clus>
<clus scale="   50.478">  1  6  2 -1</clus>
<clus scale="  124.940">  1  3  2 -1</clus>
<clus scale="   50.478">  1  3  2 -1</clus>
</clustering>
</event>
<event>
 6    0  0.1438923E+002  0.3627117E+03  0.7546771E-02  0.1057515E+00
         21   -1    0    0  505  501  0.00000000000E+00  0.00000000000E+00  0.84141002186E+03  0.84141002186E+03  0.00000000000E+00 0.  1.
         21   -1    0    0  504  502 -0.00000000000E+00 -0.00000000000E+00 -0.22749099006E+03  0.22749099006E+03  0.00000000000E+00 0.  1.
         21    1    1    2  503  502  0.28253455094E+03  0.90080300516E+02  0.30741034705E+03  0.42713154237E+03  0.00000000000E+00 0.  1.
         21    1    1    2  504  506 -0.25178344226E+02 -0.67437181139E+02 -0.46832161751E+02  0.85877667599E+02  0.00000000000E+00 0.  1.
         21    1    1    2  505  503  0.67584209491E+02  0.40626926372E+02  0.14410173390E+03  0.16426649760E+03  0.00000000000E+00 0.  1.
         21    1    1    2  506  501 -0.32494041620E+03 -0.63270045749E+02  0.20923911259E+03  0.39162530435E+03  0.00000000000E+00 0.  1.
<scales pt_clust_3="40.67217" pt_clust_4="71.98418" pt_clust_5="40.67217" pt_clust_6="354.03228"></scales>
<clustering>
<clus scale="   40.672">  3  5 -1 -1</clus>
<clus scale="   71.984">  2  4  1 -1</clus>
<clus scale="  354.032">  2  6  1 -1</clus>
<clus scale="  362.712">  1  3  2 -1</clus>
</clustering>
</event>
<event>
 6    0  0.1438923E+002  0.2417084E+03  0.7546771E-02  0.1118660E+00
         21   -1    0    0  505  501  0.00000000000E+00  0.00000000000E+00  0.18199573663E+03  0.18199573663E+03  0.00000000000E+00 0.  1.
         21   -1    0    0  504  502 -0.00000000000E+00 -0.00000000000E+00 -0.30218095586E+03  0.30218095586E+03  0.00000000000E+00 0.  1.
         21    1    1    2  503  506  0.44215412820E+02  0.11526942366E+01 -0.24995269364E+02  0.50804477415E+02  0.00000000000E+00 0. -1.
         21    1    1    2  504  501 -0.19783739694E+03  0.76572702716E+02 -0.11738824926E+03  0.24245208907E+03  0.00000000000E+00 0.  1.
         21    1    1    2  505  503  0.12490458491E+03 -0.30242214276E+02  0.36535512454E+02  0.13360610213E+03  0.00000000000E+00 0.  1.
         21    1    1    2  506  502  0.28717399211E+02 -0.47483182677E+02 -0.14337213059E+02  0.57314023876E+02  0.00000000000E+00 0.  1.
<scales pt_clust_3="39.03076" pt_clust_4="212.13914" pt_clust_5="49.84474" pt_clust_6="49.84474"></scales>
<clustering>
<clus scale="   39.031">  3  5 -1 -1</clus>
<clus scale="   49.845">  3  6 -1 -1</clus>
<clus scale="  212.139">  2  4  1 -1</clus>
<clus scale="  241.708">  1  3  2 -1</clus>
</clustering>
</event>
<event>
 6    0  0.1438923E+002  0.1241007E+03  0.7546771E-02  0.1236482E+00
         21   -1    0    0  503  501  0.00000000000E+00  0.00000000000E+00  0.24468469123E+03  0.24468469123E+03  0.00000000000E+00 0.  1.
         21   -1    0    0  504  502 -0.00000000000E+00 -0.00000000000E+00 -0.66334854835E+03  0.66334854835E+03  0.00000000000E+00 0. -1.
         21    1    1    2  503  502  0.12252785525E+03  0.22214576511E+02 -0.31219627385E+03  0.33611467705E+03  0.00000000000E+00 0. -1.
         21    1    1    2  504  506 -0.51924463410E+01 -0.29828205092E+02 -0.32193032427E+03  0.32335091929E+03  0.00000000000E+00 0. -1.
         21    1    1    2  505  501 -0.42964299013E+02  0.12726642194E+02  0.50323298140E+02  0.67381991265E+02  0.00000000000E+00 0.  1.
         21    1    1    2  506  505 -0.74371109901E+02 -0.51130136124E+01  0.16513944286E+03  0.18118565198E+03  0.00000000000E+00 0.  1.
<scales pt_clust_3="117.74915" pt_clust_4="30.27678" pt_clust_5="30.32392" pt_clust_6="30.32392"></scales>
<clustering>
<clus scale="   30.277">  2  4  1 -1</clus>
<clus scale="   30.324">  5  6 -1 -1</clus>
<clus scale="  117.749">  2  3  1 -1</clus>
<clus scale="  124.101">  1  3  2 -1</clus>
</clustering>
</event>
<event>
 6    0  0.1438923E+002  0.1518268E+03  0.7546771E-02  0.1198246E+00
         21   -1    0    0  504  501  0.00000000000E+00  0.00000000000E+00  0.65580697638E+03  0.65580697638E+03  0.00000000000E+00 0. -1.
         21   -1    0    0  505  502 -0.00000000000E+00 -0.00000000000E+00 -0.55279023828E+03  0.55279023828E+03  0.00000000000E+00 0. -1.
         21    1    1    2  503  502  0.14526611230E+03  0.19349604233E+02 -0.52108679509E+03  0.54130222481E+03  0.00000000000E+00 0. -1.
         21    1    1    2  504  503 -0.18915436167E+02 -0.80352582368E+02  0.30726624956E+03  0.31816171885E+03  0.00000000000E+00 0. -1.
         21    1    1    2  505  506 -0.67630650806E+02  0.92482488293E+01  0.14045056544E+03  0.15615952218E+03  0.00000000000E+00 0. -1.
         21    1    1    2  506  501 -0.58720025329E+02  0.51754729306E+02  0.17638671820E+03  0.19297374883E+03  0.00000000000E+00 0. -1.
<scales pt_clust_3="145.70193" pt_clust_4="82.54896" pt_clust_5="39.86492" pt_clust_6="39.86492"></scales>
<clustering>
<clus scale="   39.865">  5  6 -1 -1</clus>
<clus scale="   82.549">  1  4  2 -1</clus>
<clus scale="  145.702">  2  3  1 -1</clus>
<clus scale="   82.549">  1  3  2 -1</clus>
</clustering>
</event>
<event>
 6    0  0.1438923E+002  0.1444304E+03  0.7546771E-02  0.1207489E+00
         21   -1    0    0  506  501  0.00000000000E+00  0.00000000000E+00  0.19606374041E+03  0.19606374041E+03  0.00000000000E+00 0.  1.
         21   -1    0    0  503  502 -0.00000000000E+00 -0.00000000000E+00 -0.45296408735E+03  0.45296408735E+03  0.00000000000E+00 0.  1.
         21    1    1    2  503  501  0.22185520504E+02  0.71990324918E+02  0.68786708630E+02  0.10201183993E+03  0.00000000000E+00 0.  1.
         21    1    1    2  504  502  0.58407817922E+02 -0.13422324347E+03 -0.39312520383E+03  0.41949347810E+03  0.00000000000E+00 0.  1.
         21    1    1    2  505  504 -0.42999940766E+02  0.40946151751E+02  0.18385914466E+02  0.62158057401E+02  0.00000000000E+00 0.  1.
         21    1    1    2  506  505 -0.37593397659E+02  0.21286766799E+02  0.49052233799E+02  0.65364452334E+02  0.00000000000E+00 0.  1.
<scales pt_clust_3="75.33130" pt_clust_4="139.69352" pt_clust_5="31.29274" pt_clust_6="31.29274"></scales>
<clustering>
<clus scale="   31.293">  5  6 -1 -1</clus>
<clus scale="   75.331">  1  3  2 -1</clus>
<clus scale="  139.694">  2  4  1 -1</clus>
<clus scale="   75.331">  1  3  2 -1</clus>
</clustering>
</event>
<event>
 6    0  0.1438923E+002  0.3695183E+03  0.7546771E-02  0.1054877E+00
         21   -1    0    0  503  501  0.00000000000E+00  0.00000000000E+00  0.27989072585E+03  0.27989072585E+03  0.00000000000E+00 0.  1.
         21   -1    0    0  506  502 -0.00000000000E+00 -0.00000000000E+00 -0.88437522066E+03  0.88437522066E+03  0.00000000000E+00 0.  1.
         21    1    1    2  503  502  0.36899136858E+03  0.12989643006E+03 -0.13882599795E+03  0.41509079770E+03  0.00000000000E+00 0.  1.
         21    1    1    2  504  505  0.88959870925E+01 -0.14962122675E+03 -0.89116297564E+02  0.17437707582E+03  0.00000000000E+00 0.  1.
         21    1    1    2  505  501 -0.36342891973E+03  0.60403764638E+02 -0.26112268360E+03  0.45156865521E+03  0.00000000000E+00 0.  1.
         21    1    1    2  506  504 -0.14458435944E+02 -0.40678967946E+02 -0.11541951570E+03  0.12322941778E+03  0.00000000000E+00 0.  1.
<scales pt_clust_3="369.51831" pt_clust_4="156.75736" pt_clust_5="14000.00000" pt_clust_6="43.17204"></scales>
<clustering>
<clus scale="   43.172">  2  6  1 -1</clus>
<clus scale="  156.757">  2  4  1 -1</clus>
<clus scale="  369.518">  1  3  2 -1</clus>
<clus scale="  369.518">  1  3  2 -1</clus>
</clustering>
</event>
<event>
 6    0  0.1438923E+002  0.1821344E+03  0.7546771E-02  0.1165753E+00
         21   -1    0    0  505  501  0.00000000000E+00  0.00000000000E+00  0.27117809430E+04  0.27117809430E+04  0.00000000000E+00 0.  1.
         21   -1    0    0  503  502 -0.00000000000E+00 -0.00000000000E+00 -0.17568299301E+02  0.17568299301E+02  0.00000000000E+00 0.  1.
         21    1    1    2  503  504 -0.17522545124E+02  0.40311815038E+02  0.21237357272E+03  0.21687465598E+03  0.00000000000E+00 0.  1.
         21    1    1    2  504  501 -0.15571503488E+03 -0.44608886535E+02  0.60157430333E+03  0.62299981322E+03  0.00000000000E+00 0.  1.
         21    1    1    2  505  506  0.13218058857E+03  0.23830593855E+02  0.11543428016E+04  0.11621303321E+04  0.00000000000E+00 0.  1.
         21    1    1    2  506  502  0.41056991434E+02 -0.19533522358E+02  0.72592196606E+03  0.72734444100E+03  0.00000000000E+00 0.  1.
<scales pt_clust_3="43.95545" pt_clust_4="168.77003" pt_clust_5="39.84359" pt_clust_6="39.84359"></scales>
<clustering>
<clus scale="   39.844">  5  6 -1 -1</clus>
<clus scale="   43.955">  2  3  1 -1</clus>
<clus scale="  168.770">  2  4  1 -1</clus>
<clus scale="  182.134">  1  3  2 -1</clus>
</clustering>
</event>
<event>
 6    0  0.1438923E+002  0.1644453E+03  0.7546771E-02  0.1183767E+00
         21   -1    0    0  505  501  0.00000000000E+00  0.00000000000E+00  0.53975176035E+03  0.53975176035E+03  0.00000000000E+00 0. -1.
         21   -1    0    0  501  502 -0.00000000000E+00 -0.00000000000E+00 -0.12824110110E+03  0.12824110110E+03  0.00000000000E+00 0. -1.
         21    1    1    2  503  502 -0.35883627346E+02  0.16772631104E+03 -0.13078650458E+02  0.17201976987E+03  0.00000000000E+00 0. -1.
         21    1    1    2  504  506  0.31428169885E+02 -0.41696516813E+02  0.15080518736E+03  0.15958863967E+03  0.00000000000E+00 0. -1.
         21    1    1    2  505  504  0.34242585227E+02  0.22109322852E+02  0.34584505925E+02  0.53455260266E+02  0.00000000000E+00 0.  1.
         21    1    1    2  506  503 -0.29787127766E+02 -0.14813911708E+03  0.23919961643E+03  0.28292919165E+03  0.00000000000E+00 0. -1.
<scales pt_clust_3="164.44534" pt_clust_4="54.64224" pt_clust_5="40.75999" pt_clust_6="14000.00000"></scales>
<clustering>
<clus scale="   40.760">  1  5  2 -1</clus>
<clus scale="   54.642">  1  4  2 -1</clus>
<clus scale="  164.445">  2  3  1 -1</clus>
<clus scale="   40.760">  1  3  2 -1</clus>
</clustering>
</event>
<event>
 6    0  0.1438923E+002  0.9236134E+02  0.7546771E-02  0.1297232E+00
         21   -1    0    0  505  501  0.00000000000E+00  0.00000000000E+00  0.23916512278E+04  0.23916512278E+04  0.00000000000E+00 0. -1.
         21   -1    0    0  504  502 -0.00000000000E+00 -0.00000000000E+00 -0.18839811465E+03  0.18839811465E+03  0.00000000000E+00 0.  1.
         21    1    1    2  503  502  0.11546482886E+02 -0.32624731980E+02 -0.17118559394E+03  0.17464879609E+03  0.00000000000E+00 0.  1.
         21    1    1    2  504  506  0.76918708939E+02  0.61902951123E+02  0.16729774270E+03  0.19426012935E+03  0.00000000000E+00 0. -1.
         21    1    1    2  505  503 -0.21671297142E+02  0.27681884994E+02  0.31333576481E+03  0.31530181317E+03  0.00000000000E+00 0. -1.
         21    1    1    2  506  501 -0.66793894683E+02 -0.56960104138E+02  0.18938051996E+04  0.18958386038E+04  0.00000000000E+00 0. -1.
<scales pt_clust_3="34.60772" pt_clust_4="14000.00000" pt_clust_5="33.08004" pt_clust_6="92.36134"></scales>
<clustering>
<clus scale="   34.608">  2  3  1 -1</clus>
<clus scale="   33.080">  1  5  2 -1</clus>
<clus scale="   92.361">  1  6  2 -1</clus>
<clus scale="   33.080">  1  3  2 -1</clus>
</clustering>
</event>
<event>
 6    0  0.1438923E+002  0.2379007E+03  0.7546771E-02  0.1121199E+00
         21   -1    0    0  502  501  0.00000000000E+00  0.00000000000E+00  0.98150493401E+02  0.98150493401E+02  0.00000000000E+00 0.  1.
         21   -1    0    0  503  502 -0.00000000000E+00 -0.00000000000E+00 -0.16314730877E+04  0.16314730877E+04  0.00000000000E+00 0.  1.
         21    1    1    2  503  505  0.18271217013E+03 -0.14705460615E+03 -0.13810667957E+04  0.14008405650E+04  0.00000000000E+00 0.  1.
         21    1    1    2  504  501 -0.70544211585E+00  0.55029994351E+02  0.15289282047E+02  0.57118824150E+02  0.00000000000E+00 0.  1.
         21    1    1    2  505  506 -0.94815863781E+02  0.12207359427E+02 -0.72310195323E+02  0.11986589171E+03  0.00000000000E+00 0.  1.
         21    1    1    2  506  504 -0.87190864232E+02  0.79817252370E+02 -0.95234885341E+02  0.15179830028E+03  0.00000000000E+00 0.  1.
<scales pt_clust_3="229.04507" pt_clust_4="55.03452" pt_clust_5="55.21946" pt_clust_6="55.21946"></scales>
<clustering>
<clus scale="   55.035">  1  4  2 -1</clus>
<clus scale="   55.219">  5  6 -1 -1</clus>
<clus scale="  229.045">  2  3  1 -1</clus>
<clus scale="   55.035">  1  3  2 -1</clus>
</clustering>
</event>
<event>
 6    0  0.1438923E+002  0.7722818E+02  0.7546771E-02  0.1337107E+00
         21   -1    0    0  506  501  0.00000000000E+00  0.00000000000E+00  0.65618913694E+02  0.65618913694E+02  0.00000000000E+00 0.  1.
         21   -1    0    0  503  502 -0.00000000000E+00 -0.00000000000E+00 -0.10134766034E+04  0.10134766034E+04  0.00000000000E+00 0.  1.
         21    1    1    2  503  501  0.57503212211E+02 -0.10627463911E+03 -0.72901313977E+02  0.14112235795E+03  0.00000000000E+00 0.  1.
         21    1    1    2  504  502 -0.23371924556E+02  0.44121245791E+02 -0.80030292106E+03  0.80185890071E+03  0.00000000000E+00 0.  1.
         21    1    1    2  505  504  0.13872367555E+02  0.52890524872E+02 -0.67239645961E+02  0.86666142130E+02  0.00000000000E+00 0.  1.
         21    1    1    2  506  505 -0.48003655209E+02  0.92628684497E+01 -0.74138086905E+01  0.49448116291E+02  0.00000000000E+00 0.  1.
<scales pt_clust_3="77.22818" pt_clust_4="50.46837" pt_clust_5="14000.00000" pt_clust_6="48.88918"></scales>
<clustering>
<clus scale="   48.889">  1  6  2 -1</clus>
<clus scale="   50.468">  2  4  1 -1</clus>
<clus scale="   77.228">  1  3  2 -1</clus>
<clus scale="   48.889">  1  3  2 -1</clus>
</clustering>
</event>
<event>
 6    0  0.1438923E+002  0.2205527E+03  0.7546771E-02  0.1133472E+00
         21   -1    0    0  505  501  0.00000000000E+00  0.00000000000E+00  0.72230575799E+03  0.72230575799E+03  0.00000000000E+00 0. -1.
         21   -1    0    0  506  502 -0.00000000000E+00 -0.00000000000E+00 -0.10152810980E+03  0.10152810980E+03  0.00000000000E+00 0. -1.
         21    1    1    2  503  502 -0.29663188321E+02 -0.28625307021E+02 -0.21326006995E+02  0.46412406938E+02  0.00000000000E+00 0. -1.
         21    1    1    2  504  503  0.96474530220E+02 -0.54552314453E+02  0.18197796440E+03  0.21307104336E+03  0.00000000000E+00 0. -1.
         21    1    1    2  505  504  0.11535481572E+03 -0.16507333467E+02  0.13243649799E+03  0.17640479462E+03  0.00000000000E+00 0. -1.
         21    1    1    2  506  501 -0.18216615761E+03  0.99684954941E+02  0.32768919280E+03  0.38794562287E+03  0.00000000000E+00 0. -1.
<scales pt_clust_3="41.22272" pt_clust_4="53.90391" pt_clust_5="53.90391" pt_clust_6="213.84495"></scales>
<clustering>
<clus scale="   41.223">  2  3  1 -1</clus>
<clus scale="   53.904">  4  5 -1 -1</clus>
<clus scale="  213.845">  1  6  2 -1</clus>
<clus scale="  213.845">  1  3  2 -1</clus>
</clustering>
</event>
<event>
 6    0  0.1438923E+002  0.7960294E+02  0.7546771E-02  0.1330182E+00
         21   -1    0    0  503  501  0.00000000000E+00  0.00000000000E+00  0.47635076431E+03  0.47635076431E+03  0.00000000000E+00 0.  1.
         21   -1    0    0  506  502 -0.00000000000E+00 -0.00000000000E+00 -0.88056859849E+02  0.88056859849E+02  0.00000000000E+00 0.  1.
         21    1    1    2  503  504  0.63854812034E+01 -0.52516361411E+02  0.87488744849E+02  0.10224002671E+03  0.00000000000E+00 0.  1.
         21    1    1    2  504  502 -0.40815867145E+01  0.34083015054E+02 -0.55621130597E+02  0.65360702522E+02  0.00000000000E+00 0.  1.
         21    1    1    2  505  501  0.66885140836E+02 -0.36502026528E+02  0.23210223541E+03  0.24428972080E+03  0.00000000000E+00 0.  1.
         21    1    1    2  506  505 -0.69189035325E+02  0.54935372886E+02  0.12432405481E+03  0.15251717414E+03  0.00000000000E+00 0.  1.
<scales pt_clust_3="43.71863" pt_clust_4="34.32654" pt_clust_5="14000.00000" pt_clust_6="79.60294"></scales>
<clustering>
<clus scale="   34.327">  2  4  1 -1</clus>
<clus scale="   43.719">  2  3  1 -1</clus>
<clus scale="   79.603">  2  6  1 -1</clus>
<clus scale="   79.603">  1  3  2 -1</clus>
</clustering>
</event>
<event>
 6    0  0.1438923E+002  0.1208004E+03  0.7546771E-02  0.1241782E+00
         21   -1    0    0  504  501  0.00000000000E+00  0.00000000000E+00  0.18310666605E+04  0.18310666605E+04  0.00000000000E+00 0. -1.
         21   -1    0    0  505  502 -0.00000000000E+00 -0.00000000000E+00 -0.23188079156E+03  0.23188079156E+03  0.00000000000E+00 0. -1.
         21    1    1    2  503  501  0.12378277432E+03 -0.70519615992E+02  0.31285410802E+03  0.34376283156E+03  0.00000000000E+00 0. -1.
         21    1    1    2  504  506 -0.75641969278E+02  0.91383151946E+02  0.14515702808E+04  0.14564095811E+04  0.00000000000E+00 0. -1.
         21    1    1    2  505  503 -0.50472493130E+02  0.20723039539E+02 -0.20075459212E+03  0.20803683132E+03  0.00000000000E+00 0. -1.
         21    1    1    2  506  502  0.23316880904E+01 -0.41586575493E+02  0.35516072260E+02  0.54738208039E+02  0.00000000000E+00 0.  1.
<scales pt_clust_3="14000.00000" pt_clust_4="120.80045" pt_clust_5="51.40576" pt_clust_6="41.65189"></scales>
<clustering>
<clus scale="   41.652">  2  6  1 -1</clus>
<clus scale="   51.406">  2  5  1 -1</clus>
<clus scale="  120.800">  1  4  2 -1</clus>
<clus scale="  120.800">  1  3  2 -1</clus>
</clustering>
</event>
<event>
 6    0  0.1438923E+002  0.1425943E+03  0.7546771E-02  0.1209880E+00
         21   -1    0    0  506  501  0.00000000000E+00  0.00000000000E+00  0.16688166739E+04  0.16688166739E+04  0.00000000000E+00 0.  1.
         21   -1    0    0  503  502 -0.00000000000E+00 -0.00000000000E+00 -0.12897300048E+03  0.12897300048E+03  0.00000000000E+00 0.  1.
         21    1    1    2  503  504  0.13467199078E+03  0.64034267929E+02 -0.66438536577E+02  0.16325137584E+03  0.00000000000E+00 0.  1.
         21    1    1    2  504  501  0.50690623379E+02 -0.70876701549E+01  0.87262510031E+02  0.10116580462E+03  0.00000000000E+00 0.  1.
         21    1    1    2  505  502 -0.83130958692E+02 -0.27342258567E+02  0.40874661040E+03  0.41800974500E+03  0.00000000000E+00 0.  1.
         21    1    1    2  506  505 -0.10223165547E+03 -0.29604339208E+02  0.11102730896E+04  0.11153627490E+04  0.00000000000E+00 0.  1.
<scales pt_clust_3="14000.00000" pt_clust_4="51.18373" pt_clust_5="142.59429" pt_clust_6="74.88652"></scales>
<clustering>
<clus scale="   51.184">  1  4  2 -1</clus>
<clus scale="   74.887">  1  6  2 -1</clus>
<clus scale="  142.594">  1  5  2 -1</clus>
<clus scale="   51.184">  1  3  2 -1</clus>
</clustering>
</event>
<event>
 6    0  0.1438923E+002  0.1471693E+03  0.7546771E-02  0.1203995E+00
         21   -1    0    0  505  501  0.00000000000E+00  0.00000000000E+00  0.48421242038E+03  0.48421242038E+03  0.00000000000E+00 0.  1.
         21   -1    0    0  506  502 -0.00000000000E+00 -0.00000000000E+00 -0.68810848492E+03  0.68810848492E+03  0.00000000000E+00 0.  1.
         21    1    1    2  503  504 -0.28469797750E+02  0.10714507890E+03 -0.10894871078E+03  0.15543622132E+03  0.00000000000E+00 0.  1.
         21    1    1    2  504  502  0.65982038830E+02  0.44687213857E+02 -0.50541593931E+03  0.51165989508E+03  0.00000000000E+00 0.  1.
         21    1    1    2  505  503 -0.30552751267E+02  0.50974973408E+02  0.15881750116E+02  0.61515433110E+02  0.00000000000E+00 0. -1.
         21    1    1    2  506  501 -0.69594898134E+01 -0.20280726617E+03  0.39458683544E+03  0.44370935578E+03  0.00000000000E+00 0.  1.
<scales pt_clust_3="147.16929" pt_clust_4="79.71463" pt_clust_5="59.42995" pt_clust_6="14000.00000"></scales>
<clustering>
<clus scale="   59.430">  1  5  2 -1</clus>
<clus scale="   79.715">  2  4  1 -1</clus>
<clus scale="  147.169">  2  3  1 -1</clus>
<clus scale="   59.430">  1  3  2 -1</clus>
</clustering>
</event>
<event>
 6    0  0.1438923E+002  0.8074443E+02  0.7546771E-02  0.1326952E+00
         21   -1    0    0  505  501  0.00000000000E+00  0.00000000000E+00  0.21296465467E+03  0.21296465467E+03  0.00000000000E+00 0. -1.
         21   -1    0    0  503  502 -0.00000000000E+00 -0.00000000000E+00 -0.26881268328E+03  0.26881268328E+03  0.00000000000E+00 0. -1.
         21    1    1    2  503  504 -0.34845882651E+02  0.67713521055E+02  0.71278561677E+00  0.76156841680E+02  0.00000000000E+00 0. -1.
         21    1    1    2  504  506  0.59291518311E+02 -0.48480611085E+02  0.13492916858E+03  0.15515068266E+03  0.00000000000E+00 0. -1.
         21    1    1    2  505  502 -0.58610478326E+02 -0.34108952256E+02 -0.20090053109E+03  0.21203686515E+03  0.00000000000E+00 0. -1.
         21    1    1    2  506  501  0.34164842666E+02  0.14876042286E+02  0.94105482815E+01  0.38432948461E+02  0.00000000000E+00 0. -1.
<scales pt_clust_3="14000.00000" pt_clust_4="80.74443" pt_clust_5="66.72303" pt_clust_6="37.26303"></scales>
<clustering>
<clus scale="   37.263">  1  6  2 -1</clus>
<clus scale="   66.723">  2  5  1 -1</clus>
<clus scale="   80.744">  1  4  2 -1</clus>
<clus scale="   37.263">  1  3  2 -1</clus>
</clustering>
</event>
<event>
 6    0  0.1438923E+002  0.1806296E+03  0.7546771E-02  0.1167195E+00
         21   -1    0    0  506  501  0.00000000000E+00  0.00000000000E+00  0.33355431358E+03  0.33355431358E+03  0.00000000000E+00 0. -1.
         21   -1    0    0  504  502 -0.00000000000E+00 -0.00000000000E+00 -0.23085943830E+03  0.23085943830E+03  0.00000000000E+00 0.  1.
         21    1    1    2  503  501 -0.14894785279E+03 -0.51227269490E+02  0.55564495531E+02  0.16702427714E+03  0.00000000000E+00 0. -1.
         21    1    1    2  504  505 -0.18094347207E+02  0.25896896929E+02 -0.60583568256E+02  0.68325861971E+02  0.00000000000E+00 0.  1.
         21    1    1    2  505  503 -0.53625689751E+02  0.63289105956E+02  0.61024931587E+01  0.83177316359E+02  0.00000000000E+00 0.  1.
         21    1    1    2  506  502  0.22066788975E+03 -0.37958733394E+02  0.10161145485E+03  0.24588629641E+03  0.00000000000E+00 0.  1.
<scales pt_clust_3="180.62955" pt_clust_4="31.59200" pt_clust_5="90.24039" pt_clust_6="14000.00000"></scales>
<clustering>
<clus scale="   31.592">  2  4  1 -1</clus>
<clus scale="   90.240">  2  5  1 -1</clus>
<clus scale="  180.630">  1  3  2 -1</clus>
<clus scale="  180.630">  1  3  2 -1</clus>
</clustering>
</event>
<event>
 6    0  0.1438923E+002  0.1138309E+03  0.7546771E-02  0.1253636E+00
         21   -1    0    0  504  501  0.00000000000E+00  0.00000000000E+00  0.88706755905E+02  0.88706755905E+02  0.00000000000E+00 0. -1.
         21   -1    0    0  503  502 -0.00000000000E+00 -0.00000000000E+00 -0.22164798661E+04  0.22164798661E+04  0.00000000000E+00 0. -1.
         21    1    1    2  503  505  0.70844262920E+02  0.10793716818E+02 -0.20599101257E+04  0.20611562629E+04  0.00000000000E+00 0. -1.
         21    1    1    2  504  506 -0.70216361547E+02 -0.22698070222E+02  0.16227359336E+02  0.75557044753E+02  0.00000000000E+00 0. -1.
         21    1    1    2  505  501  0.63746891941E+02  0.33987006690E+02 -0.66479011101E+02  0.98174547479E+02  0.00000000000E+00 0.  1.
         21    1    1    2  506  502 -0.64374793314E+02 -0.22082653285E+02 -0.17611332727E+02  0.70298766922E+02  0.00000000000E+00 0. -1.
<scales pt_clust_3="71.66180" pt_clust_4="32.59384" pt_clust_5="108.65346" pt_clust_6="32.59384"></scales>
<clustering>
<clus scale="   32.594">  4  6 -1 -1</clus>
<clus scale="   71.662">  2  3  1 -1</clus>
<clus scale="  108.653">  2  5  1 -1</clus>
<clus scale="  113.831">  1  3  2 -1</clus>
</clustering>
</event>
<event>
 6    0  0.1438923E+002  0.2285237E+03  0.7546771E-02  0.1127683E+00
         21   -1    0    0  503  501  0.00000000000E+00  0.00000000000E+00  0.52283959099E+03  0.52283959099E+03  0.00000000000E+00 0.  1.
         21   -1    0    0  505  502 -0.00000000000E+00 -0.00000000000E+00 -0.44932806495E+03  0.44932806495E+03  0.00000000000E+00 0.  1.
         21    1    1    2  503  504  0.18756105737E+03 -0.10971225707E+03  0.39829543818E+03  0.45371266862E+03  0.00000000000E+00 0.  1.
         21    1    1    2  504  506 -0.16977494819E+03  0.71092650121E+02 -0.80340632233E+02  0.20082906941E+03  0.00000000000E+00 0.  1.
         21    1    1    2  505  501  0.82740556426E+02 -0.32818325749E+01 -0.15873717761E+03  0.17903703990E+03  0.00000000000E+00 0.  1.
         21    1    1    2  506  502 -0.10052666561E+03  0.41901439525E+02 -0.85706102307E+02  0.13858887800E+03  0.00000000000E+00 0.  1.
<scales pt_clust_3="224.54547" pt_clust_4="32.65731" pt_clust_5="82.80562" pt_clust_6="32.65731"></scales>
<clustering>
<clus scale="   32.657">  4  6 -1 -1</clus>
<clus scale="   82.806">  2  5  1 -1</clus>
<clus scale="  224.545">  1  3  2 -1</clus>
<clus scale="  224.545">  1  3  2 -1</clus>
</clustering>
</event>
<event>
 6    0  0.1438923E+002  0.9876673E+02  0.7546771E-02  0.1282911E+00
         21   -1    0    0  505  501  0.00000000000E+00  0.00000000000E+00  0.23105650949E+03  0.23105650949E+03  0.00000000000E+00 0.  1.
         21   -1    0    0  506  502 -0.00000000000E+00 -0.00000000000E+00 -0.16048346477E+03  0.16048346477E+03  0.00000000000E+00 0.  1.
         21    1    1    2  503  504  0.24717968590E+02  0.28776291567E+02  0.10076539833E+02  0.39250344999E+02  0.00000000000E+00 0.  1.
         21    1    1    2  504  501  0.98542231029E+02 -0.25316992433E+01  0.65582027089E+02  0.11839756363E+03  0.00000000000E+00 0.  1.
         21    1    1    2  505  502 -0.98950510762E+02 -0.31495667007E+01  0.89549353796E+02  0.13349235977E+03  0.00000000000E+00 0.  1.
         21    1    1    2  506  503 -0.24309688857E+02 -0.23095025623E+02 -0.94634876004E+02  0.10039970586E+03  0.00000000000E+00 0.  1.
<scales pt_clust_3="30.21700" pt_clust_4="14000.00000" pt_clust_5="98.76673" pt_clust_6="33.53120"></scales>
<clustering>
<clus scale="   33.531">  2  6  1 -1</clus>
<clus scale="   30.217">  2  3  1 -1</clus>
<clus scale="   98.767">  1  5  2 -1</clus>
<clus scale="   98.767">  1  3  2 -1</clus>
</clustering>
</event>
<event>
 6    0  0.1438923E+002  0.2443786E+03  0.7546771E-02  0.1116910E+00
         21   -1    0    0  505  501  0.00000000000E+00  0.00000000000E+00  0.62605271073E+03  0.62605271073E+03  0.00000000000E+00 0.  1.
         21   -1    0    0  503  502 -0.00000000000E+00 -0.00000000000E+00 -0.38614515375E+03  0.38614515375E+03  0.00000000000E+00 0. -1.
         21    1    1    2  503  506  0.65208168153E+02  0.13327411370E+03  0.38552457456E+03  0.41308993230E+03  0.00000000000E+00 0.  1.
         21    1    1    2  504  502 -0.12337132094E+03 -0.19963368457E+03 -0.31407074049E+03  0.39206443460E+03  0.00000000000E+00 0. -1.
         21    1    1    2  505  504  0.56305112768E+02  0.30948262723E+01  0.90505402661E+02  0.10663522675E+03  0.00000000000E+00 0. -1.
         21    1    1    2  506  501  0.18580400163E+01  0.63264744603E+02  0.77948320249E+02  0.10040827083E+03  0.00000000000E+00 0.  1.
<scales pt_clust_3="49.51687" pt_clust_4="232.32093" pt_clust_5="56.39010" pt_clust_6="49.51687"></scales>
<clustering>
<clus scale="   49.517">  3  6 -1 -1</clus>
<clus scale="   56.390">  1  5  2 -1</clus>
<clus scale="  232.321">  2  4  1 -1</clus>
<clus scale="   56.390">  1  3  2 -1</clus>
</clustering>
</event>
<event>
 6    0  0.1438923E+002  0.1668172E+03  0.7546771E-02  0.1181208E+00
         21   -1    0    0  505  501  0.00000000000E+00  0.00000000000E+00  0.35548323878E+03  0.35548323878E+03  0.00000000000E+00 0. -1.
         21   -1    0    0  504  502 -0.00000000000E+00 -0.00000000000E+00 -0.11784278130E+03  0.11784278130E+03  0.00000000000E+00 0. -1.
         21    1    1    2  503  506  0.15451038535E+02 -0.39800551295E+02  0.52179300651E+02  0.67420307710E+02  0.00000000000E+00 0. -1.
         21    1    1    2  504  501  0.46108359696E+02  0.16162028402E+03  0.69992935035E+02  0.18206072612E+03  0.00000000000E+00 0. -1.
         21    1    1    2  505  503 -0.70790332841E+02 -0.67182010692E+01  0.69888499562E+02  0.99703599837E+02  0.00000000000E+00 0. -1.
         21    1    1    2  506  502  0.92309346101E+01 -0.11510153165E+03  0.45579722232E+02  0.12414138642E+03  0.00000000000E+00 0. -1.
<scales pt_clust_3="30.61649" pt_clust_4="159.03698" pt_clust_5="71.10841" pt_clust_6="30.61649"></scales>
<clustering>
<clus scale="   30.616">  3  6 -1 -1</clus>
<clus scale="   71.108">  1  5  2 -1</clus>
<clus scale="  159.037">  2  4  1 -1</clus>
<clus scale="   71.108">  1  3  2 -1</clus>
</clustering>
</event>
<event>
 6    0  0.1438923E+002  0.1103001E+03  0.7546771E-02  0.1260015E+00
         21   -1    0    0  502  501  0.00000000000E+00  0.00000000000E+00  0.20354526349E+03  0.20354526349E+03  0.00000000000E+00 0.  1.
         21   -1    0    0  505  502 -0.00000000000E+00 -0.00000000000E+00 -0.64444539695E+03  0.64444539695E+03  0.00000000000E+00 0.  1.
         21    1    1    2  503  501 -0.54431062156E+02 -0.77157185367E+02  0.10162561220E+03  0.13872179655E+03  0.00000000000E+00 0.  1.
         21    1    1    2  504  503  0.74554954048E+02  0.16436048056E+02  0.29815457152E+01  0.76403366834E+02  0.00000000000E+00 0.  1.
         21    1    1    2  505  506 -0.79509327578E+02  0.80317856959E+01 -0.54764660531E+03  0.55344651690E+03  0.00000000000E+00 0.  1.
         21    1    1    2  506  504  0.59385435686E+02  0.52689351615E+02  0.21393139298E+01  0.79418980158E+02  0.00000000000E+00 0.  1.
<scales pt_clust_3="103.10231" pt_clust_4="38.43329" pt_clust_5="79.91397" pt_clust_6="38.43329"></scales>
<clustering>
<clus scale="   38.433">  4  6 -1 -1</clus>
<clus scale="   79.914">  2  5  1 -1</clus>
<clus scale="  103.102">  1  3  2 -1</clus>
<clus scale="  103.102">  1  3  2 -1</clus>
</clustering>
</event>
<event>
 6    0  0.1438923E+002  0.9908853E+02  0.7546771E-02  0.1282224E+00
         21   -1    0    0  505  501  0.00000000000E+00  0.00000000000E+00  0.40163881687E+03  0.40163881687E+03  0.00000000000E+00 0. -1.
         21   -1    0    0  504  502 -0.00000000000E+00 -0.00000000000E+00 -0.13001460768E+03  0.13001460768E+03  0.00000000000E+00 0.  1.
         21    1    1    2  503  502 -0.27547059296E+02  0.47334479091E+02  0.67198072442E+02  0.86688951584E+02  0.00000000000E+00 0. -1.
         21    1    1    2  504  506  0.65957590078E+02 -0.70850972818E+01 -0.91304767042E+02  0.11285903941E+03  0.00000000000E+00 0.  1.
         21    1    1    2  505  503 -0.52355747728E+02  0.42344622655E+02  0.13451993667E+03  0.15043206024E+03  0.00000000000E+00 0. -1.
         21    1    1    2  506  501  0.13945216946E+02 -0.82594004464E+02  0.16121096712E+03  0.18167337331E+03  0.00000000000E+00 0. -1.
<scales pt_clust_3="30.03871" pt_clust_4="66.33704" pt_clust_5="30.03871" pt_clust_6="93.32266"></scales>
<clustering>
<clus scale="   30.039">  3  5 -1 -1</clus>
<clus scale="   66.337">  2  4  1 -1</clus>
<clus scale="   93.323">  1  6  2 -1</clus>
<clus scale="   93.323">  1  3  2 -1</clus>
</clustering>
</event>
<event>
 6    0  0.1438923E+002  0.1102084E+03  0.7546771E-02  0.1260184E+00
         21   -1    0    0  502  501  0.00000000000E+00  0.00000000000E+00  0.10937129024E+04  0.10937129024E+04  0.00000000000E+00 0.  1.
         21   -1    0    0  503  502 -0.00000000000E+00 -0.00000000000E+00 -0.77163961196E+02  0.77163961196E+02  0.00000000000E+00 0. -1.
         21    1    1    2  503  504  0.99774548210E+02 -0.14265898001E+02 -0.28055310239E+02  0.10462111044E+03  0.00000000000E+00 0. -1.
         21    1    1    2  504  506 -0.65116010877E+02 -0.22941550191E+02  0.28766584495E+03  0.29583449418E+03  0.00000000000E+00 0.  1.
         21    1    1    2  505  501  0.48507249184E+02  0.22917053458E+02  0.40339523201E+03  0.40694699627E+03  0.00000000000E+00 0.  1.
         21    1    1    2  506  505 -0.83165786517E+02  0.14290394733E+02  0.35354317449E+03  0.36347426272E+03  0.00000000000E+00 0.  1.
<scales pt_clust_3="103.29183" pt_clust_4="34.75856" pt_clust_5="53.64834" pt_clust_6="34.75856"></scales>
<clustering>
<clus scale="   34.759">  4  6 -1 -1</clus>
<clus scale="   53.648">  1  5  2 -1</clus>
<clus scale="  103.292">  2  3  1 -1</clus>
<clus scale="   53.648">  1  3  2 -1</clus>
</clustering>
</event>
<event>
 6    0  0.1438923E+002  0.2124296E+03  0.7546771E-02  0.1139656E+00
         21   -1    0    0  504  501  0.00000000000E+00  0.00000000000E+00  0.16684668423E+03  0.16684668423E+03  0.00000000000E+00 0. -1.
         21   -1    0    0  503  502 -0.00000000000E+00 -0.00000000000E+00 -0.12635309690E+04  0.12635309690E+04  0.00000000000E+00 0.  1.
         21    1    1    2  503  506  0.17822209568E+03 -0.13280037406E+03 -0.11431279590E+04  0.11645344930E+04  0.00000000000E+00 0.  1.
         21    1    1    2  504  505 -0.62753426356E+02  0.51728924608E+02 -0.21050552420E+02  0.84005951680E+02  0.00000000000E+00 0. -1.
         21    1    1    2  505  502 -0.63125470398E+02  0.13643506650E+02 -0.11423996967E+02  0.65585653868E+02  0.00000000000E+00 0. -1.
         21    1    1    2  506  501 -0.52343198922E+02  0.67427942806E+02  0.78918223621E+02  0.11625155467E+03  0.00000000000E+00 0. -1.
<scales pt_clust_3="209.57656" pt_clust_4="30.92137" pt_clust_5="30.92137" pt_clust_6="85.36005"></scales>
<clustering>
<clus scale="   30.921">  4  5 -1 -1</clus>
<clus scale="   85.360">  1  6  2 -1</clus>
<clus scale="  209.577">  2  3  1 -1</clus>
<clus scale="   85.360">  1  3  2 -1</clus>
</clustering>
</event>
<event>
 6    0  0.1438923E+002  0.1813334E+03  0.7546771E-02  0.1166519E+00
         21   -1    0    0  505  501  0.00000000000E+00  0.00000000000E+00  0.10979211705E+03  0.10979211705E+03  0.00000000000E+00 0.  1.
         21   -1    0    0  504  502 -0.00000000000E+00 -0.00000000000E+00 -0.91963628374E+03  0.91963628374E+03  0.00000000000E+00 0.  1.
         21    1    1    2  503  502  0.27285490843E+02 -0.21721555605E+02 -0.79031356437E+01  0.35760083074E+02  0.00000000000E+00 0.  1.
         21    1    1    2  504  506  0.72959617793E+00 -0.45185337061E+02 -0.63385837845E+03  0.63546730123E+03  0.00000000000E+00 0.  1.
         21    1    1    2  505  503  0.14036392499E+03  0.37003866833E+02 -0.82547347704E+02  0.16698916795E+03  0.00000000000E+00 0.  1.
         21    1    1    2  506  501 -0.16837901201E+03  0.29903025833E+02 -0.85535304896E+02  0.19121184854E+03  0.00000000000E+00 0.  1.
<scales pt_clust_3="33.19409" pt_clust_4="45.19123" pt_clust_5="33.19409" pt_clust_6="168.21331"></scales>
<clustering>
<clus scale="   33.194">  3  5 -1 -1</clus>
<clus scale="   45.191">  2  4  1 -1</clus>
<clus scale="  168.213">  2  6  1 -1</clus>
<clus scale="  181.333">  1  3  2 -1</clus>
</clustering>
</event>
<event>
 6    0  0.1438923E+002  0.9825539E+02  0.7546771E-02  0.1284008E+00
         21   -1    0    0  505  501  0.00000000000E+00  0.00000000000E+00  0.42255392672E+02  0.42255392672E+02  0.00000000000E+00 0.  1.
         21   -1    0    0  504  502 -0.00000000000E+00 -0.00000000000E+00 -0.17245128481E+04  0.17245128481E+04  0.00000000000E+00 0. -1.
         21    1    1    2  503  506 -0.21784717695E+02  0.33905540758E+02 -0.11451512752E+03  0.12139964601E+03  0.00000000000E+00 0.  1.
         21    1    1    2  504  501 -0.19343158099E+02 -0.69327186200E+02 -0.29386831906E+02  0.77743182345E+02  0.00000000000E+00 0.  1.
         21    1    1    2  505  503  0.19962557926E+02  0.10169060931E+03 -0.18160780063E+03  0.20909537773E+03  0.00000000000E+00 0.  1.
         21    1    1    2  506  502  0.21165317868E+02 -0.66268963863E+02 -0.13567476954E+04  0.13585300347E+04  0.00000000000E+00 0. -1.
<scales pt_clust_3="34.99175" pt_clust_4="80.65721" pt_clust_5="34.99175" pt_clust_6="69.56685"></scales>
<clustering>
<clus scale="   34.992">  3  5 -1 -1</clus>
<clus scale="   69.567">  2  6  1 -1</clus>
<clus scale="   80.657">  1  4  2 -1</clus>
<clus scale="   80.657">  1  3  2 -1</clus>
</clustering>
</event>
<event>
 6    0  0.1438923E+002  0.1761577E+03  0.7546771E-02  0.1171574E+00
         21   -1    0    0  504  501  0.00000000000E+00  0.00000000000E+00  0.13451188968E+04  0.13451188968E+04  0.00000000000E+00 0. -1.
         21   -1    0    0  503  502 -0.00000000000E+00 -0.00000000000E+00 -0.55974298306E+03  0.55974298306E+03  0.00000000000E+00 0. -1.
         21    1    1    2  503  505 -0.15912732584E+03  0.17258557871E+02 -0.49500079483E+03  0.52023566826E+03  0.00000000000E+00 0. -1.
         21    1    1    2  504  502  0.59553401494E+01  0.13641393706E+03  0.34842879190E+03  0.37422834115E+03  0.00000000000E+00 0. -1.
         21    1    1    2  505  506  0.73179750140E+02 -0.21752994349E+03  0.34352560368E+03  0.41313967677E+03  0.00000000000E+00 0. -1.
         21    1    1    2  506  501  0.79992235555E+02  0.63857448561E+02  0.58842231304E+03  0.59725819372E+03  0.00000000000E+00 0. -1.
<scales pt_clust_3="158.84676" pt_clust_4="176.15766" pt_clust_5="14000.00000" pt_clust_6="102.35493"></scales>
<clustering>
<clus scale="  102.355">  1  6  2 -1</clus>
<clus scale="  158.847">  2  3  1 -1</clus>
<clus scale="  176.158">  1  4  2 -1</clus>
<clus scale="  102.355">  1  3  2 -1</clus>
</clustering>
</event>
<event>
 6    0  0.1438923E+002  0.1504052E+03  0.7546771E-02  0.1199976E+00
         21   -1    0    0  504  501  0.00000000000E+00  0.00000000000E+00  0.11917370642E+03  0.11917370642E+03  0.00000000000E+00 0.  1.
         21   -1    0    0  501  502 -0.00000000000E+00 -0.00000000000E+00 -0.51347598829E+03  0.51347598829E+03  0.00000000000E+00 0.  1.
         21    1    1    2  503  502  0.33667033122E+01 -0.34952647154E+02 -0.32776643759E+03  0.32964201771E+03  0.00000000000E+00 0.  1.
         21    1    1    2  504  505 -0.44005273460E+02  0.57685841921E+02 -0.12061535408E+02  0.73549990393E+02  0.00000000000E+00 0.  1.
         21    1    1    2  505  506 -0.23638220708E+01  0.89964285254E+02  0.13497019252E+02  0.91001812096E+02  0.00000000000E+00 0.  1.
         21    1    1    2  506  503  0.43002392219E+02 -0.11269748002E+03 -0.67971328123E+02  0.13845587451E+03  0.00000000000E+00 0.  1.
<scales pt_clust_3="35.11442" pt_clust_4="49.86911" pt_clust_5="49.86911" pt_clust_6="139.63222"></scales>
<clustering>
<clus scale="   35.114">  2  3  1 -1</clus>
<clus scale="   49.869">  4  5 -1 -1</clus>
<clus scale="  139.632">  2  6  1 -1</clus>
<clus scale="  150.405">  1  3  2 -1</clus>
</clustering>
</event>
<event>
 6    0  0.1438923E+002  0.1848578E+03  0.7546771E-02  0.1163183E+00
         21   -1    0    0  504  501  0.00000000000E+00  0.00000000000E+00  0.30558171853E+03  0.30558171853E+03  0.00000000000E+00 0. -1.
         21   -1    0    0  505  502 -0.00000000000E+00 -0.00000000000E+00 -0.16873441797E+03  0.16873441797E+03  0.00000000000E+00 0. -1.
         21    1    1    2  503  502 -0.45117854787E+02  0.39802907033E+02 -0.19586453047E+02  0.63273385968E+02  0.00000000000E+00 0. -1.
         21    1    1    2  504  503  0.95696156098E+02  0.12951595585E+03  0.14049811187E+03  0.21370974837E+03  0.00000000000E+00 0. -1.
         21    1    1    2  505  506  0.16136307523E+02 -0.88651283217E+02  0.21025562556E+02  0.92528399518E+02  0.00000000000E+00 0. -1.
         21    1    1    2  506  501 -0.66714608834E+02 -0.80667579663E+02 -0.50899208206E+01  0.10480460264E+03  0.00000000000E+00 0. -1.
<scales pt_clust_3="60.16554" pt_clust_4="163.44137" pt_clust_5="73.51142" pt_clust_6="73.51142"></scales>
<clustering>
<clus scale="   60.166">  2  3  1 -1</clus>
<clus scale="   73.511">  5  6 -1 -1</clus>
<clus scale="  163.441">  1  4  2 -1</clus>
<clus scale="  163.441">  1  3  2 -1</clus>
</clustering>
</event>
<event>
 6    0  0.1438923E+002  0.2528986E+03  0.7546771E-02  0.1111487E+00
         21   -1    0    0  502  501  0.00000000000E+00  0.00000000000E+00  0.50817262234E+03  0.50817262234E+03  0.00000000000E+00 0.  1.
         21   -1    0    0  503  502 -0.00000000000E+00 -0.00000000000E+00 -0.20292036167E+03  0.20292036167E+03  0.00000000000E+00 0. -1.
         21    1    1    2  503  506  0.24395317835E+02 -0.22765418821E+02 -0.26448411282E+02  0.42578331176E+02  0.00000000000E+00 0. -1.
         21    1    1    2  504  505  0.33665635332E+02 -0.17061446724E+03  0.25395392264E+03  0.30779094571E+03  0.00000000000E+00 0.  1.
         21    1    1    2  505  501  0.37848473405E+02 -0.57145819462E+02  0.61312368545E+02  0.91963895947E+02  0.00000000000E+00 0.  1.
         21    1    1    2  506  504 -0.95909426572E+02  0.25052570553E+03  0.16434380772E+02  0.26875981118E+03  0.00000000000E+00 0. -1.
<scales pt_clust_3="33.36759" pt_clust_4="37.04886" pt_clust_5="37.04886" pt_clust_6="246.03991"></scales>
<clustering>
<clus scale="   33.368">  2  3  1 -1</clus>
<clus scale="   37.049">  4  5 -1 -1</clus>
<clus scale="  246.040">  2  6  1 -1</clus>
<clus scale="  252.899">  1  3  2 -1</clus>
</clustering>
</event>
<event>
 6    0  0.1438923E+002  0.1196398E+03  0.7546771E-02  0.1243693E+00
         21   -1    0    0  505  501  0.00000000000E+00  0.00000000000E+00  0.35937054953E+03  0.35937054953E+03  0.00000000000E+00 0.  1.
         21   -1    0    0  504  502 -0.00000000000E+00 -0.00000000000E+00 -0.88525813524E+02  0.88525813524E+02  0.00000000000E+00 0.  1.
         21    1    1    2  503  501  0.12468045382E+03 -0.82850952567E+02  0.17397434535E+03  0.22951376592E+03  0.00000000000E+00 0.  1.
         21    1    1    2  504  503 -0.49832862704E+02  0.38839361855E+02 -0.19978368856E+02  0.66264209470E+02  0.00000000000E+00 0.  1.
         21    1    1    2  505  506 -0.45985430719E+02  0.64880662803E+01  0.37369671989E+02  0.59609120334E+02  0.00000000000E+00 0. -1.
         21    1    1    2  506  502 -0.28862160398E+02  0.37523524432E+02  0.79479087529E+02  0.92509267336E+02  0.00000000000E+00 0.  1.
<scales pt_clust_3="111.20469" pt_clust_4="63.18077" pt_clust_5="43.70609" pt_clust_6="43.70609"></scales>
<clustering>
<clus scale="   43.706">  5  6 -1 -1</clus>
<clus scale="   63.181">  2  4  1 -1</clus>
<clus scale="  111.205">  2  3  1 -1</clus>
<clus scale="  119.640">  1  3  2 -1</clus>
</clustering>
</event>
<event>
 6    0  0.1438923E+002  0.1772132E+03  0.7546771E-02  0.1170528E+00
         21   -1    0    0  504  501  0.00000000000E+00  0.00000000000E+00  0.41873338005E+03  0.41873338005E+03  0.00000000000E+00 0. -1.
         21   -1    0    0  503  502 -0.00000000000E+00 -0.00000000000E+00 -0.14994901263E+03  0.14994901263E+03  0.00000000000E+00 0. -1.
         21    1    1    2  503  505  0.85286538348E+02  0.14940147190E+03 -0.49669775774E+02  0.17905775620E+03  0.00000000000E+00 0. -1.
         21    1    1    2  504  502 -0.28951803184E+02  0.20899698548E+02  0.88418162855E+02  0.95356047683E+02  0.00000000000E+00 0. -1.
         21    1    1    2  505  506 -0.46277722868E+02 -0.94155635560E+02  0.15274021371E+03  0.18530106375E+03  0.00000000000E+00 0. -1.
         21    1    1    2  506  501 -0.10057012296E+02 -0.76145534885E+02  0.77295766625E+02  0.10896752506E+03  0.00000000000E+00 0. -1.
<scales pt_clust_3="172.92526" pt_clust_4="35.70720" pt_clust_5="33.15323" pt_clust_6="33.15323"></scales>
<clustering>
<clus scale="   33.153">  5  6 -1 -1</clus>
<clus scale="   35.707">  1  4  2 -1</clus>
<clus scale="  172.925">  2  3  1 -1</clus>
<clus scale="   35.707">  1  3  2 -1</clus>
</clustering>
</event>
<event>
 6    0  0.1438923E+002  0.2750891E+03  0.7546771E-02  0.1098402E+00
         21   -1    0    0  506  501  0.00000000000E+00  0.00000000000E+00  0.17033288925E+04  0.17033288925E+04  0.00000000000E+00 0. -1.
         21   -1    0    0  501  502 -0.00000000000E+00 -0.00000000000E+00 -0.10402974248E+03  0.10402974248E+03  0.00000000000E+00 0.  1.
         21    1    1    2  503  504 -0.35890249134E+02 -0.10505929884E+03  0.87311180352E+03  0.88014191338E+03  0.00000000000E+00 0. -1.
         21    1    1    2  504  505  0.65475645020E+02  0.22517733558E+03  0.79112692829E+02  0.24748880927E+03  0.00000000000E+00 0.  1.
         21    1    1    2  505  502  0.42037656704E+02  0.13443362552E+02  0.67364901486E+02  0.80535200565E+02  0.00000000000E+00 0.  1.
         21    1    1    2  506  503 -0.71623052590E+02 -0.13356139929E+03  0.57970975218E+03  0.59919271175E+03  0.00000000000E+00 0. -1.
<scales pt_clust_3="82.79130" pt_clust_4="257.74499" pt_clust_5="44.13489" pt_clust_6="82.79130"></scales>
<clustering>
<clus scale="   44.135">  2  5  1 -1</clus>
<clus scale="   82.791">  3  6 -1 -1</clus>
<clus scale="  257.745">  2  4  1 -1</clus>
<clus scale="  275.089">  1  3  2 -1</clus>
</clustering>
</event>
<event>
 6    0  0.1438923E+002  0.3527150E+03  0.7546771E-02  0.1061506E+00
         21   -1    0    0  505  501  0.00000000000E+00  0.00000000000E+00  0.14785133892E+03  0.14785133892E+03  0.00000000000E+00 0.  1.
         21   -1    0    0  504  502 -0.00000000000E+00 -0.00000000000E+00 -0.23170918924E+04  0.23170918924E+04  0.00000000000E+00 0.  1.
         21    1    1    2  503  506 -0.24442082396E+03  0.13656515212E+03 -0.23901172289E+03  0.36812794465E+03  0.00000000000E+00 0.  1.
         21    1    1    2  504  501 -0.59830545481E+02 -0.13991452481E+02 -0.16941501189E+03  0.18021348775E+03  0.00000000000E+00 0.  1.
         21    1    1    2  505  503  0.16240582574E+02  0.16608814471E+03 -0.76407103405E+02  0.18354038735E+03  0.00000000000E+00 0.  1.
         21    1    1    2  506  502  0.28801078687E+03 -0.28866184435E+03 -0.16844067153E+04  0.17330614116E+04  0.00000000000E+00 0.  1.
<scales pt_clust_3="352.71496" pt_clust_4="61.44473" pt_clust_5="165.71978" pt_clust_6="14000.00000"></scales>
<clustering>
<clus scale="   61.445">  2  4  1 -1</clus>
<clus scale="  165.720">  1  5  2 -1</clus>
<clus scale="  352.715">  1  3  2 -1</clus>
<clus scale="  165.720">  1  3  2 -1</clus>
</clustering>
</event>
<event>
 6    0  0.1438923E+002  0.1483075E+03  0.7546771E-02  0.1202568E+00
         21   -1    0    0  503  501  0.00000000000E+00  0.00000000000E+00  0.20030573189E+04  0.20030573189E+04  0.00000000000E+00 0.  1.
         21   -1    0    0  504  502 -0.00000000000E+00 -0.00000000000E+00 -0.12195918650E+03  0.12195918650E+03  0.00000000000E+00 0. -1.
         21    1    1    2  503  502 -0.23783591977E+01  0.86783442274E+02  0.15193418435E+04  0.15218201798E+04  0.00000000000E+00 0.  1.
         21    1    1    2  504  506 -0.10331760226E+03 -0.11088290693E+03 -0.42450636253E+02  0.15738996951E+03  0.00000000000E+00 0. -1.
         21    1    1    2  505  501 -0.10520649295E+02  0.63388230890E+02  0.16266234114E+03  0.17489365084E+03  0.00000000000E+00 0.  1.
         21    1    1    2  506  505  0.11621661075E+03 -0.39288766233E+02  0.24154458407E+03  0.27091270524E+03  0.00000000000E+00 0.  1.
<scales pt_clust_3="148.30748" pt_clust_4="14000.00000" pt_clust_5="64.25536" pt_clust_6="118.71440"></scales>
<clustering>
<clus scale="   64.255">  1  5  2 -1</clus>
<clus scale="  118.714">  1  6  2 -1</clus>
<clus scale="  148.307">  1  3  2 -1</clus>
<clus scale="   64.255">  1  3  2 -1</clus>
</clustering>
</event>
<event>
 6    0  0.1438923E+002  0.1196362E+03  0.7546771E-02  0.1243698E+00
         21   -1    0    0  505  501  0.00000000000E+00  0.00000000000E+00  0.57754771909E+02  0.57754771909E+02  0.00000000000E+00 0.  1.
         21   -1    0    0  504  502 -0.00000000000E+00 -0.00000000000E+00 -0.44178729476E+03  0.44178729476E+03  0.00000000000E+00 0.  1.
         21    1    1    2  503  501  0.51793775001E+02 -0.62205613144E+01 -0.18866040664E+02  0.55472677980E+02  0.00000000000E+00 0.  1.
         21    1    1    2  504  506 -0.14906408367E+02 -0.47059292574E+02 -0.70563439529E+02  0.86116067177E+02  0.00000000000E+00 0.  1.
         21    1    1    2  505  502 -0.75090181767E+02  0.10291835737E+03 -0.25147279544E+03  0.28190298070E+03  0.00000000000E+00 0.  1.
         21    1    1    2  506  503  0.38202815134E+02 -0.49638503484E+02 -0.43130247219E+02  0.76050340811E+02  0.00000000000E+00 0.  1.
<scales pt_clust_3="43.14493" pt_clust_4="49.36373" pt_clust_5="109.89854" pt_clust_6="43.14493"></scales>
<clustering>
<clus scale="   43.145">  3  6 -1 -1</clus>
<clus scale="   49.364">  2  4  1 -1</clus>
<clus scale="  109.899">  2  5  1 -1</clus>
<clus scale="  119.636">  1  3  2 -1</clus>
</clustering>
</event>
<event>
 6    0  0.1438923E+002  0.3956288E+03  0.7546771E-02  0.1045304E+00
         21   -1    0    0  506  501  0.00000000000E+00  0.00000000000E+00  0.17523810533E+04  0.17523810533E+04  0.00000000000E+00 0. -1.
         21   -1    0    0  503  502 -0.00000000000E+00 -0.00000000000E+00 -0.20614494672E+03  0.20614494672E+03  0.00000000000E+00 0.  1.
         21    1    1    2  503  504 -0.39247168167E+02  0.10297336770E+02 -0.11346573075E+03  0.12050247884E+03  0.00000000000E+00 0.  1.
         21    1    1    2  504  501 -0.26470694846E+03 -0.26444198079E+03  0.65071899762E+03  0.75062277053E+03  0.00000000000E+00 0. -1.
         21    1    1    2  505  502  0.26050665721E+03  0.17694148893E+03  0.74055110824E+03  0.80472849637E+03  0.00000000000E+00 0. -1.
         21    1    1    2  506  505  0.43447459423E+02  0.77203155095E+02  0.26843173148E+03  0.28267225430E+03  0.00000000000E+00 0. -1.
<scales pt_clust_3="40.57555" pt_clust_4="386.14207" pt_clust_5="46.17328" pt_clust_6="46.17328"></scales>
<clustering>
<clus scale="   40.576">  2  3  1 -1</clus>
<clus scale="   46.173">  5  6 -1 -1</clus>
<clus scale="  386.142">  2  4  1 -1</clus>
<clus scale="  395.629">  1  3  2 -1</clus>
</clustering>
</event>
<event>
 6    0  0.1438923E+002  0.1211915E+03  0.7546771E-02  0.1241144E+00
         21   -1    0    0  506  501  0.00000000000E+00  0.00000000000E+00  0.50406845717E+03  0.50406845717E+03  0.00000000000E+00 0. -1.
         21   -1    0    0  504  502 -0.00000000000E+00 -0.00000000000E+00 -0.34434408241E+03  0.34434408241E+03  0.00000000000E+00 0.  1.
         21    1    1    2  503  505  0.57952743456E+02 -0.13136979299E+03  0.93867603892E+02  0.17154495051E+03  0.00000000000E+00 0. -1.
         21    1    1    2  504  503  0.13899205994E+02  0.30605858493E+02 -0.28773604545E+03  0.28969283449E+03  0.00000000000E+00 0.  1.
         21    1    1    2  505  501 -0.46928251439E+02  0.80346452813E+02  0.33947947409E+03  0.35200017982E+03  0.00000000000E+00 0. -1.
         21    1    1    2  506  502 -0.24923698011E+02  0.20417481685E+02  0.14113342223E+02  0.35174574761E+02  0.00000000000E+00 0. -1.
<scales pt_clust_3="14000.00000" pt_clust_4="33.63105" pt_clust_5="121.19149" pt_clust_6="32.21900"></scales>
<clustering>
<clus scale="   32.219">  1  6  2 -1</clus>
<clus scale="   33.631">  2  4  1 -1</clus>
<clus scale="  121.191">  1  5  2 -1</clus>
<clus scale="   32.219">  1  3  2 -1</clus>
</clustering>
</event>
<event>
 6    0  0.1438923E+002  0.7637367E+02  0.7546771E-02  0.1339669E+00
         21   -1    0    0  503  501  0.00000000000E+00  0.00000000000E+00  0.13409041539E+03  0.13409041539E+03  0.00000000000E+00 0.  1.
         21   -1    0    0  505  502 -0.00000000000E+00 -0.00000000000E+00 -0.17102652975E+04  0.17102652975E+04  0.00000000000E+00 0. -1.
         21    1    1    2  503  504 -0.67972789892E+02  0.28296337466E+02  0.88322380846E+02  0.11498619847E+03  0.00000000000E+00 0.  1.
         21    1    1    2  504  506 -0.36440128884E+02  0.83670906311E+01 -0.14717189139E+02  0.40180677630E+02  0.00000000000E+00 0.  1.
         21    1    1    2  505  501  0.90782872224E+02 -0.68295717565E+02 -0.14589125950E+03  0.18490563682E+03  0.00000000000E+00 0.  1.
         21    1    1    2  506  502  0.13630046552E+02  0.31632289468E+02 -0.15038888143E+04  0.15042832000E+04  0.00000000000E+00 0. -1.
<scales pt_clust_3="14000.00000" pt_clust_4="36.83942" pt_clust_5="76.37367" pt_clust_6="34.44387"></scales>
<clustering>
<clus scale="   34.444">  2  6  1 -1</clus>
<clus scale="   36.839">  2  4  1 -1</clus>
<clus scale="   76.374">  2  5  1 -1</clus>
<clus scale="   76.374">  1  3  2 -1</clus>
</clustering>
</event>
<event>
 6    0  0.1438923E+002  0.7474606E+03  0.7546771E-02  0.9639343E-01
         21   -1    0    0  505  501  0.00000000000E+00  0.00000000000E+00  0.11529020934E+04  0.11529020934E+04  0.00000000000E+00 0. -1.
         21   -1    0    0  506  502 -0.00000000000E+00 -0.00000000000E+00 -0.61142418195E+03  0.61142418195E+03  0.00000000000E+00 0. -1.
         21    1    1    2  503  504  0.69388056055E+03  0.26268420562E+03  0.23077726701E+03  0.77700152584E+03  0.00000000000E+00 0. -1.
         21    1    1    2  504  501  0.16392626964E+02  0.26873839222E+02  0.37507446122E+02  0.48966620957E+02  0.00000000000E+00 0.  1.
         21    1    1    2  505  502 -0.68057421351E+03 -0.19552193537E+03  0.37105084941E+03  0.79943030976E+03  0.00000000000E+00 0. -1.
         21    1    1    2  506  503 -0.29698974004E+02 -0.94036109465E+02 -0.97857651131E+02  0.13892781876E+03  0.00000000000E+00 0. -1.
<scales pt_clust_3="30.49262" pt_clust_4="30.49262" pt_clust_5="732.65441" pt_clust_6="98.61450"></scales>
<clustering>
<clus scale="   30.493">  3  4 -1 -1</clus>
<clus scale="   98.614">  2  6  1 -1</clus>
<clus scale="  732.654">  1  5  2 -1</clus>
<clus scale="  732.654">  1  3  2 -1</clus>
</clustering>
</event>
<event>
 6    0  0.1438923E+002  0.7492631E+02  0.7546771E-02  0.1344099E+00
         21   -1    0    0  506  501  0.00000000000E+00  0.00000000000E+00  0.26836283371E+03  0.26836283371E+03  0.00000000000E+00 0. -1.
         21   -1    0    0  504  502 -0.00000000000E+00 -0.00000000000E+00 -0.86499922990E+03  0.86499922990E+03  0.00000000000E+00 0. -1.
         21    1    1    2  503  501  0.19986130680E+01 -0.66867095918E+02  0.29901404356E+02  0.73275486713E+02  0.00000000000E+00 0. -1.
         21    1    1    2  504  503 -0.49036479455E+01  0.31587823753E+02 -0.80321342081E+03  0.80384926183E+03  0.00000000000E+00 0. -1.
         21    1    1    2  505  502 -0.80321321840E+01  0.10188479951E+03  0.52486283769E+02  0.11489054575E+03  0.00000000000E+00 0. -1.
         21    1    1    2  506  505  0.10937167062E+02 -0.66605527342E+02  0.12418933650E+03  0.14134676931E+03  0.00000000000E+00 0. -1.
<scales pt_clust_3="55.72296" pt_clust_4="31.96618" pt_clust_5="74.92631" pt_clust_6="14000.00000"></scales>
<clustering>
<clus scale="   31.966">  2  4  1 -1</clus>
<clus scale="   55.723">  2  3  1 -1</clus>
<clus scale="   74.926">  2  5  1 -1</clus>
<clus scale="   74.926">  1  3  2 -1</clus>
</clustering>
</event>
<event>
 6    0  0.1438923E+002  0.1939666E+03  0.7546771E-02  0.1154932E+00
         21   -1    0    0  503  501  0.00000000000E+00  0.00000000000E+00  0.49928378612E+03  0.49928378612E+03  0.00000000000E+00 0. -1.
         21   -1    0    0  506  502 -0.00000000000E+00 -0.00000000000E+00 -0.15832990559E+03  0.15832990559E+03  0.00000000000E+00 0.  1.
         21    1    1    2  503  502 -0.12655379951E+02 -0.57808695786E+02  0.69043932141E+02  0.90934418762E+02  0.00000000000E+00 0. -1.
         21    1    1    2  504  505 -0.84500222817E+02 -0.14695283237E+02  0.14319976296E+03  0.16692037359E+03  0.00000000000E+00 0. -1.
         21    1    1    2  505  501 -0.89662734940E+02  0.42339246432E+02  0.17840142760E+03  0.20410557855E+03  0.00000000000E+00 0. -1.
         21    1    1    2  506  504  0.18681833771E+03  0.30164732590E+02 -0.49691242171E+02  0.19565332081E+03  0.00000000000E+00 0.  1.
<scales pt_clust_3="59.17773" pt_clust_4="52.08250" pt_clust_5="52.08250" pt_clust_6="185.70685"></scales>
<clustering>
<clus scale="   52.082">  4  5 -1 -1</clus>
<clus scale="   59.178">  1  3  2 -1</clus>
<clus scale="  185.707">  2  6  1 -1</clus>
<clus scale="   59.178">  1  3  2 -1</clus>
</clustering>
</event>
<event>
 6    0  0.1438923E+002  0.1273298E+03  0.7546771E-02  0.1231472E+00
         21   -1    0    0  506  501  0.00000000000E+00  0.00000000000E+00  0.39262004327E+02  0.39262004327E+02  0.00000000000E+00 0.  1.
         21   -1    0    0  503  502 -0.00000000000E+00 -0.00000000000E+00 -0.17344389181E+04  0.17344389181E+04  0.00000000000E+00 0.  1.
         21    1    1    2  503  505  0.32868243972E+02  0.13738054163E+02 -0.22185456818E+03  0.22469647309E+03  0.00000000000E+00 0.  1.
         21    1    1    2  504  501 -0.89235702265E+02 -0.97507347138E+02 -0.97854358553E+02  0.16445719441E+03  0.00000000000E+00 0.  1.
         21    1    1    2  505  504  0.22945428635E+02  0.48256192265E+02 -0.17238810858E+03  0.18047939707E+03  0.00000000000E+00 0.  1.
         21    1    1    2  506  502  0.33422029658E+02  0.35513100710E+02 -0.12030798784E+04  0.12040678578E+04  0.00000000000E+00 0.  1.
<scales pt_clust_3="34.46558" pt_clust_4="120.12966" pt_clust_5="34.46558" pt_clust_6="48.76692"></scales>
<clustering>
<clus scale="   34.466">  3  5 -1 -1</clus>
<clus scale="   48.767">  2  6  1 -1</clus>
<clus scale="  120.130">  1  4  2 -1</clus>
<clus scale="  120.130">  1  3  2 -1</clus>
</clustering>
</event>
<event>
 6    0  0.1438923E+002  0.1267925E+03  0.7546771E-02  0.1232294E+00
         21   -1    0    0  505  501  0.00000000000E+00  0.00000000000E+00  0.18590188215E+03  0.18590188215E+03  0.00000000000E+00 0.  1.
         21   -1    0    0  506  502 -0.00000000000E+00 -0.00000000000E+00 -0.15371491040E+03  0.15371491040E+03  0.00000000000E+00 0.  1.
         21    1    1    2  503  502  0.21976559162E+02  0.20973177692E+02 -0.31699654560E+02  0.43905710725E+02  0.00000000000E+00 0.  1.
         21    1    1    2  504  501 -0.57656310494E+02  0.21651931808E+02  0.30854231729E+02  0.68884250060E+02  0.00000000000E+00 0.  1.
         21    1    1    2  505  503  0.95804448456E+02 -0.28038251265E+02 -0.58982400036E+02  0.11594636429E+03  0.00000000000E+00 0.  1.
         21    1    1    2  506  504 -0.60124697124E+02 -0.14586858235E+02  0.92014794624E+02  0.11088046747E+03  0.00000000000E+00 0.  1.
<scales pt_clust_3="30.37834" pt_clust_4="57.34124" pt_clust_5="113.04897" pt_clust_6="57.34124"></scales>
<clustering>
<clus scale="   30.378">  2  3  1 -1</clus>
<clus scale="   57.341">  4  6 -1 -1</clus>
<clus scale="  113.049">  2  5  1 -1</clus>
<clus scale="  126.793">  1  3  2 -1</clus>
</clustering>
</event>
<event>
 6    0  0.1438923E+002  0.1714296E+03  0.7546771E-02  0.1176365E+00
         21   -1    0    0  506  501  0.00000000000E+00  0.00000000000E+00  0.10322683522E+04  0.10322683522E+04  0.00000000000E+00 0.  1.
         21   -1    0    0  504  502 -0.00000000000E+00 -0.00000000000E+00 -0.24405739738E+03  0.24405739738E+03  0.00000000000E+00 0. -1.
         21    1    1    2  503  505 -0.27027124666E+02 -0.37738498042E+02  0.30268450767E+03  0.30622307373E+03  0.00000000000E+00 0.  1.
         21    1    1    2  504  503 -0.46368003094E+02 -0.66517452981E+02  0.24396134433E+03  0.25708306204E+03  0.00000000000E+00 0.  1.
         21    1    1    2  505  501  0.25608753648E+02 -0.55896089115E+02  0.44528876406E+03  0.44951336403E+03  0.00000000000E+00 0.  1.
         21    1    1    2  506  502  0.47786374112E+02  0.16015204014E+03 -0.20372366125E+03  0.26350624976E+03  0.00000000000E+00 0. -1.
<scales pt_clust_3="35.77755" pt_clust_4="35.77755" pt_clust_5="61.48318" pt_clust_6="164.77910"></scales>
<clustering>
<clus scale="   35.778">  3  4 -1 -1</clus>
<clus scale="   61.483">  1  5  2 -1</clus>
<clus scale="  164.779">  2  6  1 -1</clus>
<clus scale="   61.483">  1  3  2 -1</clus>
</clustering>
</event>
<event>
 6    0  0.1438923E+002  0.2153244E+03  0.7546771E-02  0.1137418E+00
         21   -1    0    0  505  501  0.00000000000E+00  0.00000000000E+00  0.75734895740E+03  0.75734895740E+03  0.00000000000E+00 0.  1.
         21   -1    0    0  504  502 -0.00000000000E+00 -0.00000000000E+00 -0.25090256049E+03  0.25090256049E+03  0.00000000000E+00 0. -1.
         21    1    1    2  503  506  0.39272258113E+02  0.59656971944E+01  0.29954038985E+02  0.49750821619E+02  0.00000000000E+00 0.  1.
         21    1    1    2  504  503 -0.40159250597E+02  0.55573908829E+01 -0.17544308864E+03  0.18006645260E+03  0.00000000000E+00 0. -1.
         21    1    1    2  505  502 -0.14507145293E+03  0.12531676619E+03  0.47163559694E+03  0.50910721331E+03  0.00000000000E+00 0.  1.
         21    1    1    2  506  501  0.14595844542E+03 -0.13683985426E+03  0.18029984963E+03  0.26932703036E+03  0.00000000000E+00 0.  1.
<scales pt_clust_3="34.98734" pt_clust_4="40.54195" pt_clust_5="200.49712" pt_clust_6="34.98734"></scales>
<clustering>
<clus scale="   34.987">  3  6 -1 -1</clus>
<clus scale="   40.542">  2  4  1 -1</clus>
<clus scale="  200.497">  1  5  2 -1</clus>
<clus scale="  200.497">  1  3  2 -1</clus>
</clustering>
</event>
<event>
 6    0  0.1438923E+002  0.1009473E+03  0.7546771E-02  0.1278316E+00
         21   -1    0    0  505  501  0.00000000000E+00  0.00000000000E+00  0.11917162505E+03  0.11917162505E+03  0.00000000000E+00 0.  1.
         21   -1    0    0  506  502 -0.00000000000E+00 -0.00000000000E+00 -0.26601389034E+03  0.26601389034E+03  0.00000000000E+00 0.  1.
         21    1    1    2  503  504  0.40131356394E+02 -0.69726948322E+02 -0.35080114083E+02  0.87766665041E+02  0.00000000000E+00 0.  1.
         21    1    1    2  504  501  0.91306769311E+01 -0.48846968172E+02  0.42294143369E+02  0.65254809203E+02  0.00000000000E+00 0.  1.
         21    1    1    2  505  502 -0.38204066520E+02 -0.24890075847E+01 -0.31956242582E+01  0.38418197144E+02  0.00000000000E+00 0.  1.
         21    1    1    2  506  503 -0.11057966805E+02  0.12106292408E+03 -0.15086067032E+03  0.19374584400E+03  0.00000000000E+00 0.  1.
<scales pt_clust_3="14000.00000" pt_clust_4="51.37774" pt_clust_5="38.28506" pt_clust_6="100.94727"></scales>
<clustering>
<clus scale="   38.285">  1  5  2 -1</clus>
<clus scale="   51.378">  1  4  2 -1</clus>
<clus scale="  100.947">  2  6  1 -1</clus>
<clus scale="   38.285">  1  3  2 -1</clus>
</clustering>
</event>
<event>
 6    0  0.1438923E+002  0.2172910E+03  0.7546771E-02  0.1135919E+00
         21   -1    0    0  504  501  0.00000000000E+00  0.00000000000E+00  0.42540098279E+03  0.42540098279E+03  0.00000000000E+00 0.  1.
         21   -1    0    0  501  502 -0.00000000000E+00 -0.00000000000E+00 -0.15595105979E+04  0.15595105979E+04  0.00000000000E+00 0. -1.
         21    1    1    2  503  502  0.75557718763E+02 -0.19479472162E+03 -0.15122564127E+04  0.15266215675E+04  0.00000000000E+00 0. -1.
         21    1    1    2  504  505 -0.20149377292E+02  0.39251629379E+02  0.36346422530E+01  0.44270740207E+02  0.00000000000E+00 0. -1.
         21    1    1    2  505  506 -0.28279923082E+02  0.64546070240E+02  0.91427299567E+02  0.11543353213E+03  0.00000000000E+00 0. -1.
         21    1    1    2  506  503 -0.27128418389E+02  0.90997021998E+02  0.28308485579E+03  0.29858574091E+03  0.00000000000E+00 0.  1.
<scales pt_clust_3="208.15018" pt_clust_4="44.12129" pt_clust_5="50.15000" pt_clust_6="50.15000"></scales>
<clustering>
<clus scale="   44.121">  1  4  2 -1</clus>
<clus scale="   50.150">  5  6 -1 -1</clus>
<clus scale="  208.150">  2  3  1 -1</clus>
<clus scale="   44.121">  1  3  2 -1</clus>
</clustering>
</event>
<event>
 6    0  0.1438923E+002  0.8756109E+02  0.7546771E-02  0.1308868E+00
         21   -1    0    0  506  501  0.00000000000E+00  0.00000000000E+00  0.11992769438E+03  0.11992769438E+03  0.00000000000E+00 0.  1.
         21   -1    0    0  505  502 -0.00000000000E+00 -0.00000000000E+00 -0.91992655063E+03  0.91992655063E+03  0.00000000000E+00 0. -1.
         21    1    1    2  503  502 -0.84216909531E+02  0.66371549321E+01 -0.74393149117E+03  0.74871263061E+03  0.00000000000E+00 0. -1.
         21    1    1    2  504  501  0.96464683751E+02  0.24845195976E+02  0.70621669582E+02  0.12210708083E+03  0.00000000000E+00 0.  1.
         21    1    1    2  505  504  0.11770679215E+02 -0.56824419423E+02 -0.12026379610E+03  0.13353255852E+03  0.00000000000E+00 0. -1.
         21    1    1    2  506  503 -0.24018453436E+02  0.25342068515E+02 -0.64252385659E+01  0.35501975053E+02  0.00000000000E+00 0.  1.
<scales pt_clust_3="14000.00000" pt_clust_4="87.56109" pt_clust_5="56.17379" pt_clust_6="34.91571"></scales>
<clustering>
<clus scale="   34.916">  1  6  2 -1</clus>
<clus scale="   56.174">  2  5  1 -1</clus>
<clus scale="   87.561">  1  4  2 -1</clus>
<clus scale="   34.916">  1  3  2 -1</clus>
</clustering>
</event>
<event>
 6    0  0.1438923E+002  0.5438888E+03  0.7546771E-02  0.1002918E+00
         21   -1    0    0  505  501  0.00000000000E+00  0.00000000000E+00  0.68966301808E+03  0.68966301808E+03  0.00000000000E+00 0.  1.
         21   -1    0    0  503  502 -0.00000000000E+00 -0.00000000000E+00 -0.14830055732E+04  0.14830055732E+04  0.00000000000E+00 0. -1.
         21    1    1    2  503  501  0.25404519387E+02  0.29338945329E+02 -0.16116262306E+02  0.42022579990E+02  0.00000000000E+00 0. -1.
         21    1    1    2  504  502  0.91920136368E+02  0.50160378968E+03 -0.12862716233E+04  0.13836727800E+04  0.00000000000E+00 0. -1.
         21    1    1    2  505  506 -0.63367305296E+02 -0.38512224424E+03  0.38281128758E+03  0.54669830829E+03  0.00000000000E+00 0.  1.
         21    1    1    2  506  504 -0.53957350459E+02 -0.14582049077E+03  0.12623404289E+03  0.20027492299E+03  0.00000000000E+00 0. -1.
<scales pt_clust_3="38.80932" pt_clust_4="540.96068" pt_clust_5="35.57322" pt_clust_6="35.57322"></scales>
<clustering>
<clus scale="   35.573">  5  6 -1 -1</clus>
<clus scale="   38.809">  2  3  1 -1</clus>
<clus scale="  540.961">  2  4  1 -1</clus>
<clus scale="  543.889">  1  3  2 -1</clus>
</clustering>
</event>
<event>
 6    0  0.1619015E+002  0.1984555E+03  0.7546771E-02  0.1151049E+00
         21   -1    0    0  503  501  0.00000000000E+00  0.00000000000E+00  0.13057948912E+04  0.13057948912E+04  0.00000000000E+00 0. -1.
         21   -1    0    0  506  502 -0.00000000000E+00 -0.00000000000E+00 -0.96678344206E+03  0.96678344206E+03  0.00000000000E+00 0. -1.
         21    1    1    2  503  505  0.16376977846E+03  0.91579423520E+02 -0.15587492208E+03  0.24393507842E+03  0.00000000000E+00 0.  1.
         21    1    1    2  504  502 -0.45071939001E+02  0.86180043829E+01 -0.70170690650E+03  0.70320575390E+03  0.00000000000E+00 0. -1.
         21    1    1    2  505  504  0.41957763378E+02 -0.14452140931E+02 -0.49285450595E+02  0.66320237677E+02  0.00000000000E+00 0.  1.
         21    1    1    2  506  501 -0.16065560283E+03 -0.85745286973E+02  0.12458787283E+04  0.12591172633E+04  0.00000000000E+00 0. -1.
<scales pt_clust_3="37.33945" pt_clust_4="45.88845" pt_clust_5="37.33945" pt_clust_6="183.00123"></scales>
<clustering>
<clus scale="   37.339">  3  5 -1 -1</clus>
<clus scale="   45.888">  2  4  1 -1</clus>
<clus scale="  183.001">  1  6  2 -1</clus>
<clus scale="  183.001">  1  3  2 -1</clus>
</clustering>
</event>
<event>
 6    0  0.1438923E+002  0.1443215E+03  0.7546771E-02  0.1207630E+00
         21   -1    0    0  506  501  0.00000000000E+00  0.00000000000E+00  0.10688539365E+03  0.10688539365E+03  0.00000000000E+00 0.  1.
         21   -1    0    0  505  502 -0.00000000000E+00 -0.00000000000E+00 -0.84103632749E+03  0.84103632749E+03  0.00000000000E+00 0.  1.
         21    1    1    2  503  502 -0.17402941433E+02 -0.15632013925E+03 -0.47428388530E+03  0.49968395227E+03  0.00000000000E+00 0.  1.
         21    1    1    2  504  501 -0.93464170909E+02  0.93331052552E+01 -0.75309628367E+02  0.12039185281E+03  0.00000000000E+00 0.  1.
         21    1    1    2  505  504 -0.39056064465E+02  0.34468527381E+02 -0.11790419553E+03  0.12889862247E+03  0.00000000000E+00 0.  1.
         21    1    1    2  506  503  0.14992317681E+03  0.11251850661E+03 -0.66653224645E+02  0.19894729360E+03  0.00000000000E+00 0.  1.
<scales pt_clust_3="144.32146" pt_clust_4="99.78124" pt_clust_5="52.09084" pt_clust_6="14000.00000"></scales>
<clustering>
<clus scale="   52.091">  2  5  1 -1</clus>
<clus scale="   99.781">  1  4  2 -1</clus>
<clus scale="  144.321">  2  3  1 -1</clus>
<clus scale="   99.781">  1  3  2 -1</clus>
</clustering>
</event>
<event>
 6    0  0.1438923E+002  0.1678344E+03  0.7546771E-02  0.1180125E+00
         21   -1    0    0  504  501  0.00000000000E+00  0.00000000000E+00  0.14395563541E+03  0.14395563541E+03  0.00000000000E+00 0.  1.
         21   -1    0    0  506  502 -0.00000000000E+00 -0.00000000000E+00 -0.76151923312E+03  0.76151923312E+03  0.00000000000E+00 0. -1.
         21    1    1    2  503  505 -0.50148797361E+02  0.44644596723E+02  0.31790736155E+02  0.74287904794E+02  0.00000000000E+00 0.  1.
         21    1    1    2  504  503 -0.52105801305E+02  0.75193172559E+00  0.51228167447E+02  0.73074654094E+02  0.00000000000E+00 0.  1.
         21    1    1    2  505  502 -0.40150781689E+02  0.41872073970E+01  0.11266508619E+01  0.40384245916E+02  0.00000000000E+00 0.  1.
         21    1    1    2  506  501  0.14240538036E+03 -0.49583735846E+02 -0.70170915218E+03  0.71772806373E+03  0.00000000000E+00 0. -1.
<scales pt_clust_3="36.92724" pt_clust_4="36.92724" pt_clust_5="30.30593" pt_clust_6="150.79071"></scales>
<clustering>
<clus scale="   30.306">  3  5 -1 -1</clus>
<clus scale="   36.927">  3  4 -1 -1</clus>
<clus scale="  150.791">  2  6  1 -1</clus>
<clus scale="  167.834">  1  3  2 -1</clus>
</clustering>
</event>
<event>
 6    0  0.1438923E+002  0.2874014E+03  0.7546771E-02  0.1091714E+00
         21   -1    0    0  502  501  0.00000000000E+00  0.00000000000E+00  0.14077272444E+03  0.14077272444E+03  0.00000000000E+00 0.  1.
         21   -1    0    0  504  502 -0.00000000000E+00 -0.00000000000E+00 -0.10530510170E+04  0.10530510170E+04  0.00000000000E+00 0. -1.
         21    1    1    2  503  501 -0.52793165602E+02 -0.16320358606E+02 -0.12418881197E+02  0.56636569895E+02  0.00000000000E+00 0. -1.
         21    1    1    2  504  505  0.11936531167E+03  0.22939318176E+03 -0.86466531581E+03  0.90250507912E+03  0.00000000000E+00 0. -1.
         21    1    1    2  505  506  0.39487952798E+01 -0.90314175418E+02 -0.16203790030E+02  0.91841200324E+02  0.00000000000E+00 0.  1.
         21    1    1    2  506  503 -0.70520941351E+02 -0.12275864774E+03 -0.18990305569E+02  0.14284089215E+03  0.00000000000E+00 0.  1.
<scales pt_clust_3="40.75470" pt_clust_4="258.59101" pt_clust_5="68.04260" pt_clust_6="68.04260"></scales>
<clustering>
<clus scale="   40.755">  3  6 -1 -1</clus>
<clus scale="   68.043">  3  5 -1 -1</clus>
<clus scale="  258.591">  2  4  1 -1</clus>
<clus scale="  287.401">  1  3  2 -1</clus>
</clustering>
</event>
<event>
 6    0  0.1438923E+002  0.1362065E+03  0.7546771E-02  0.1218526E+00
         21   -1    0    0  503  501  0.00000000000E+00  0.00000000000E+00  0.34826446973E+03  0.34826446973E+03  0.00000000000E+00 0.  1.
         21   -1    0    0  506  502 -0.00000000000E+00 -0.00000000000E+00 -0.50863444175E+03  0.50863444175E+03  0.00000000000E+00 0. -1.
         21    1    1    2  503  504  0.68590392930E+02 -0.72706864384E+02  0.17414883367E+03  0.20079528481E+03  0.00000000000E+00 0.  1.
         21    1    1    2  504  505  0.57507928173E+02 -0.13192338935E+02  0.11273549191E+03  0.12724185925E+03  0.00000000000E+00 0.  1.
         21    1    1    2  505  502 -0.11609281599E+03  0.53772058264E+02 -0.47074678763E+03  0.48782324078E+03  0.00000000000E+00 0. -1.
         21    1    1    2  506  501 -0.10005505109E+02  0.32127145055E+02  0.23492490021E+02  0.41038526645E+02  0.00000000000E+00 0.  1.
<scales pt_clust_3="36.32674" pt_clust_4="36.32674" pt_clust_5="128.55322" pt_clust_6="33.64912"></scales>
<clustering>
<clus scale="   33.649">  1  6  2 -1</clus>
<clus scale="   36.327">  3  4 -1 -1</clus>
<clus scale="  128.553">  2  5  1 -1</clus>
<clus scale="   33.649">  1  3  2 -1</clus>
</clustering>
</event>
<event>
 6    0  0.1438923E+002  0.9934860E+02  0.7546771E-02  0.1281672E+00
         21   -1    0    0  504  501  0.00000000000E+00  0.00000000000E+00  0.74097321826E+02  0.74097321826E+02  0.00000000000E+00 0. -1.
         21   -1    0    0  503  502 -0.00000000000E+00 -0.00000000000E+00 -0.51390238615E+03  0.51390238615E+03  0.00000000000E+00 0.  1.
         21    1    1    2  503  501  0.67744067825E+02 -0.29365162262E+02 -0.31222915340E+03  0.32084048328E+03  0.00000000000E+00 0.  1.
         21    1    1    2  504  506 -0.53392922550E+01  0.59584012189E+02  0.17814083100E+02  0.62418780083E+02  0.00000000000E+00 0. -1.
         21    1    1    2  505  502 -0.40285984081E+02 -0.70697487505E+02 -0.13473284439E+03  0.15739769570E+03  0.00000000000E+00 0.  1.
         21    1    1    2  506  505 -0.22118791489E+02  0.40478637578E+02 -0.10657149642E+02  0.47342748923E+02  0.00000000000E+00 0. -1.
<scales pt_clust_3="73.83476" pt_clust_4="30.79505" pt_clust_5="92.95296" pt_clust_6="30.79505"></scales>
<clustering>
<clus scale="   30.795">  4  6 -1 -1</clus>
<clus scale="   73.835">  2  3  1 -1</clus>
<clus scale="   92.953">  2  5  1 -1</clus>
<clus scale="   99.349">  1  3  2 -1</clus>
</clustering>
</event>
<event>
 6    0  0.1438923E+002  0.1077843E+03  0.7546771E-02  0.1264729E+00
         21   -1    0    0  506  501  0.00000000000E+00  0.00000000000E+00  0.59058034011E+03  0.59058034011E+03  0.00000000000E+00 0.  1.
         21   -1    0    0  503  502 -0.00000000000E+00 -0.00000000000E+00 -0.93596916396E+02  0.93596916396E+02  0.00000000000E+00 0.  1.
         21    1    1    2  503  504 -0.32874761682E+02 -0.53159953993E+02 -0.27860326073E+02  0.68431925539E+02  0.00000000000E+00 0.  1.
         21    1    1    2  504  505  0.12764081582E+02 -0.11907025426E+03  0.17724453545E+03  0.21390715878E+03  0.00000000000E+00 0.  1.
         21    1    1    2  505  501 -0.11902093734E+02  0.51397289940E+02  0.20740123183E+03  0.21400610321E+03  0.00000000000E+00 0.  1.
         21    1    1    2  506  502  0.32012773833E+02  0.12083291832E+03  0.14019798251E+03  0.18783206898E+03  0.00000000000E+00 0.  1.
<scales pt_clust_3="60.53631" pt_clust_4="14000.00000" pt_clust_5="52.75738" pt_clust_6="107.78432"></scales>
<clustering>
<clus scale="   52.757">  1  5  2 -1</clus>
<clus scale="   60.536">  2  3  1 -1</clus>
<clus scale="  107.784">  2  6  1 -1</clus>
<clus scale="   52.757">  1  3  2 -1</clus>
</clustering>
</event>
<event>
 6    0  0.1438923E+002  0.1268468E+03  0.7546771E-02  0.1232211E+00
         21   -1    0    0  504  501  0.00000000000E+00  0.00000000000E+00  0.11883672618E+04  0.11883672618E+04  0.00000000000E+00 0. -1.
         21   -1    0    0  505  502 -0.00000000000E+00 -0.00000000000E+00 -0.10383918364E+03  0.10383918364E+03  0.00000000000E+00 0. -1.
         21    1    1    2  503  502  0.30390403762E+02  0.41165038622E+02  0.10346624353E+03  0.11542703581E+03  0.00000000000E+00 0. -1.
         21    1    1    2  504  503 -0.15756449052E+02  0.50270525855E+02  0.16374830086E+03  0.17201423630E+03  0.00000000000E+00 0. -1.
         21    1    1    2  505  506 -0.14661331388E+02  0.35099594802E+02 -0.85262347124E+02  0.93362755050E+02  0.00000000000E+00 0. -1.
         21    1    1    2  506  501  0.27376677300E-01 -0.12653515928E+03  0.90257588092E+03  0.91140241831E+03  0.00000000000E+00 0. -1.
<scales pt_clust_3="50.29489" pt_clust_4="50.29489" pt_clust_5="38.03861" pt_clust_6="115.95625"></scales>
<clustering>
<clus scale="   38.039">  2  5  1 -1</clus>
<clus scale="   50.295">  3  4 -1 -1</clus>
<clus scale="  115.956">  1  6  2 -1</clus>
<clus scale="  115.956">  1  3  2 -1</clus>
</clustering>
</event>
<event>
 6    0  0.1438923E+002  0.1230451E+03  0.7546771E-02  0.1238156E+00
         21   -1    0    0  505  501  0.00000000000E+00  0.00000000000E+00  0.56109760579E+03  0.56109760579E+03  0.00000000000E+00 0. -1.
         21   -1    0    0  504  502 -0.00000000000E+00 -0.00000000000E+00 -0.28899624273E+03  0.28899624273E+03  0.00000000000E+00 0. -1.
         21    1    1    2  503  502 -0.44816977781E+02 -0.25404176364E+02 -0.23265530644E+03  0.23829063198E+03  0.00000000000E+00 0. -1.
         21    1    1    2  504  501 -0.20443182170E+02  0.33678972966E+02  0.14098615059E+02  0.41844567913E+02  0.00000000000E+00 0. -1.
         21    1    1    2  505  506 -0.20547696002E+02  0.95845644222E+02  0.38863282384E+03  0.40080427529E+03  0.00000000000E+00 0. -1.
         21    1    1    2  506  503  0.85807855952E+02 -0.10412044082E+03  0.10202523060E+03  0.16915437334E+03  0.00000000000E+00 0. -1.
<scales pt_clust_3="51.52298" pt_clust_4="39.39793" pt_clust_5="123.04508" pt_clust_6="14000.00000"></scales>
<clustering>
<clus scale="   39.398">  1  4  2 -1</clus>
<clus scale="   51.523">  2  3  1 -1</clus>
<clus scale="  123.045">  1  5  2 -1</clus>
<clus scale="   39.398">  1  3  2 -1</clus>
</clustering>
</event>
<event>
 6    0  0.1438923E+002  0.9880600E+02  0.7546771E-02  0.1282827E+00
         21   -1    0    0  504  501  0.00000000000E+00  0.00000000000E+00  0.35487015834E+03  0.35487015834E+03  0.00000000000E+00 0. -1.
         21   -1    0    0  505  502 -0.00000000000E+00 -0.00000000000E+00 -0.80835995571E+02  0.80835995571E+02  0.00000000000E+00 0.  1.
         21    1    1    2  503  501  0.32890257351E+02 -0.24419366376E+02  0.13005639469E+02  0.42979310614E+02  0.00000000000E+00 0.  1.
         21    1    1    2  504  502  0.53346429716E+02  0.84997493972E+02  0.21201115006E+03  0.23456159809E+03  0.00000000000E+00 0. -1.
         21    1    1    2  505  506 -0.87844862745E+02 -0.72377684546E+01  0.38079330055E+01  0.88224744582E+02  0.00000000000E+00 0.  1.
         21    1    1    2  506  503  0.16081756776E+01 -0.53340359141E+02  0.45209440233E+02  0.69940500631E+02  0.00000000000E+00 0.  1.
<scales pt_clust_3="40.38994" pt_clust_4="87.39253" pt_clust_5="88.14253" pt_clust_6="40.38994"></scales>
<clustering>
<clus scale="   40.390">  3  6 -1 -1</clus>
<clus scale="   88.143">  2  5  1 -1</clus>
<clus scale="   87.393">  1  4  2 -1</clus>
<clus scale="   87.393">  1  3  2 -1</clus>
</clustering>
</event>
<event>
 6    0  0.1438923E+002  0.7571629E+02  0.7546771E-02  0.1341667E+00
         21   -1    0    0  505  501  0.00000000000E+00  0.00000000000E+00  0.22513170545E+03  0.22513170545E+03  0.00000000000E+00 0.  1.
         21   -1    0    0  506  502 -0.00000000000E+00 -0.00000000000E+00 -0.22120970617E+03  0.22120970617E+03  0.00000000000E+00 0. -1.
         21    1    1    2  503  502  0.17747003783E+02  0.74375305114E+02 -0.14863966494E+03  0.16715379789E+03  0.00000000000E+00 0. -1.
         21    1    1    2  504  501  0.69699114227E+02 -0.44873124263E+02  0.51877518546E+02  0.97789778278E+02  0.00000000000E+00 0.  1.
         21    1    1    2  505  503 -0.56067375787E+02  0.31982683441E+02  0.68533573911E+01  0.64910793981E+02  0.00000000000E+00 0.  1.
         21    1    1    2  506  504 -0.31378742223E+02 -0.61484864292E+02  0.93830788282E+02  0.11648704147E+03  0.00000000000E+00 0.  1.
<scales pt_clust_3="14000.00000" pt_clust_4="57.42411" pt_clust_5="64.54799" pt_clust_6="75.71629"></scales>
<clustering>
<clus scale="   64.548">  1  5  2 -1</clus>
<clus scale="   57.424">  1  4  2 -1</clus>
<clus scale="   75.716">  1  6  2 -1</clus>
<clus scale="   64.548">  1  3  2 -1</clus>
</clustering>
</event>
<event>
 6    0  0.1438923E+002  0.2904621E+03  0.7546771E-02  0.1090108E+00
         21   -1    0    0  506  501  0.00000000000E+00  0.00000000000E+00  0.77980721650E+03  0.77980721650E+03  0.00000000000E+00 0. -1.
         21   -1    0    0  504  502 -0.00000000000E+00 -0.00000000000E+00 -0.28188133940E+03  0.28188133940E+03  0.00000000000E+00 0.  1.
         21    1    1    2  503  501 -0.79311809154E+02 -0.38223951145E+02  0.20322895398E+03  0.22148011479E+03  0.00000000000E+00 0. -1.
         21    1    1    2  504  503 -0.11799547345E+03 -0.14412794329E+03  0.42487941608E+03  0.46391627908E+03  0.00000000000E+00 0. -1.
         21    1    1    2  505  502  0.23131241785E+03  0.17063313411E+03 -0.16053374343E+03  0.32922968258E+03  0.00000000000E+00 0.  1.
         21    1    1    2  506  505 -0.34005135252E+02  0.11718760328E+02  0.30351250481E+02  0.47062479460E+02  0.00000000000E+00 0.  1.
<scales pt_clust_3="38.79578" pt_clust_4="38.79578" pt_clust_5="285.13601" pt_clust_6="35.96774"></scales>
<clustering>
<clus scale="   35.968">  1  6  2 -1</clus>
<clus scale="   38.796">  3  4 -1 -1</clus>
<clus scale="  285.136">  2  5  1 -1</clus>
<clus scale="   35.968">  1  3  2 -1</clus>
</clustering>
</event>
<event>
 6    0  0.1438923E+002  0.1615838E+03  0.7546771E-02  0.1186920E+00
         21   -1    0    0  505  501  0.00000000000E+00  0.00000000000E+00  0.84609043397E+03  0.84609043397E+03  0.00000000000E+00 0. -1.
         21   -1    0    0  503  502 -0.00000000000E+00 -0.00000000000E+00 -0.27150517878E+03  0.27150517878E+03  0.00000000000E+00 0. -1.
         21    1    1    2  503  506 -0.14966769145E+03 -0.57376062701E+02 -0.19934083082E+03  0.25579131586E+03  0.00000000000E+00 0. -1.
         21    1    1    2  504  502  0.46049858744E+02 -0.70086420170E+02  0.68282311898E+02  0.10814420882E+03  0.00000000000E+00 0. -1.
         21    1    1    2  505  504 -0.54587856717E+02  0.75524542625E+01  0.78977977249E+02  0.96303658065E+02  0.00000000000E+00 0. -1.
         21    1    1    2  506  501  0.15820568942E+03  0.11991002861E+03  0.62666579687E+03  0.65735643002E+03  0.00000000000E+00 0. -1.
<scales pt_clust_3="14000.00000" pt_clust_4="79.78665" pt_clust_5="55.10784" pt_clust_6="161.58378"></scales>
<clustering>
<clus scale="   55.108">  1  5  2 -1</clus>
<clus scale="   79.787">  1  4  2 -1</clus>
<clus scale="  161.584">  1  6  2 -1</clus>
<clus scale="   55.108">  1  3  2 -1</clus>
</clustering>
</event>
<event>
 6    0  0.1438923E+002  0.1072425E+03  0.7546771E-02  0.1265763E+00
         21   -1    0    0  506  501  0.00000000000E+00  0.00000000000E+00  0.16236905825E+04  0.16236905825E+04  0.00000000000E+00 0.  1.
         21   -1    0    0  505  502 -0.00000000000E+00 -0.00000000000E+00 -0.12944495195E+03  0.12944495195E+03  0.00000000000E+00 0.  1.
         21    1    1    2  503  504 -0.40248532395E+02  0.13872017043E+03  0.28673493985E+03  0.32106098451E+03  0.00000000000E+00 0.  1.
         21    1    1    2  504  501 -0.22014468119E+02 -0.41776617134E+02  0.84147036387E+03  0.84279433779E+03  0.00000000000E+00 0.  1.
         21    1    1    2  505  503  0.30427671241E+02 -0.26276033589E+02 -0.10472523921E+03  0.11217686413E+03  0.00000000000E+00 0.  1.
         21    1    1    2  506  502  0.31835329273E+02 -0.70667519710E+02  0.47076556608E+03  0.47710334807E+03  0.00000000000E+00 0.  1.
<scales pt_clust_3="14000.00000" pt_clust_4="47.52382" pt_clust_5="40.20290" pt_clust_6="107.24245"></scales>
<clustering>
<clus scale="   40.203">  2  5  1 -1</clus>
<clus scale="   47.524">  1  4  2 -1</clus>
<clus scale="  107.242">  1  6  2 -1</clus>
<clus scale="   47.524">  1  3  2 -1</clus>
</clustering>
</event>
<event>
 6    0  0.1438923E+002  0.1999828E+03  0.7546771E-02  0.1149754E+00
         21   -1    0    0  503  501  0.00000000000E+00  0.00000000000E+00  0.15450745723E+03  0.15450745723E+03  0.00000000000E+00 0. -1.
         21   -1    0    0  504  502 -0.00000000000E+00 -0.00000000000E+00 -0.15211044156E+04  0.15211044156E+04  0.00000000000E+00 0. -1.
         21    1    1    2  503  506  0.18441345960E+00  0.32062806140E+02 -0.31463460567E+02  0.44922231653E+02  0.00000000000E+00 0. -1.
         21    1    1    2  504  505 -0.13086245463E+03  0.13327940458E+03  0.30642365826E+02  0.18928110392E+03  0.00000000000E+00 0. -1.
         21    1    1    2  505  501 -0.28406210219E+02 -0.42537861324E+02  0.90728813815E+01  0.51949009630E+02  0.00000000000E+00 0. -1.
         21    1    1    2  506  502  0.15908425139E+03 -0.12280434940E+03 -0.13748487450E+04  0.13894595276E+04  0.00000000000E+00 0. -1.
<scales pt_clust_3="32.06334" pt_clust_4="14000.00000" pt_clust_5="45.76959" pt_clust_6="199.98279"></scales>
<clustering>
<clus scale="   32.063">  1  3  2 -1</clus>
<clus scale="   45.770">  1  5  2 -1</clus>
<clus scale="  199.983">  2  6  1 -1</clus>
<clus scale="   32.063">  1  3  2 -1</clus>
</clustering>
</event>
<event>
 6    0  0.1438923E+002  0.1462249E+03  0.7546771E-02  0.1205190E+00
         21   -1    0    0  504  501  0.00000000000E+00  0.00000000000E+00  0.22214008252E+03  0.22214008252E+03  0.00000000000E+00 0. -1.
         21   -1    0    0  505  502 -0.00000000000E+00 -0.00000000000E+00 -0.40767639218E+04  0.40767639218E+04  0.00000000000E+00 0.  1.
         21    1    1    2  503  502  0.12350177735E+03 -0.59516682978E+02 -0.40130524563E+04  0.40153934977E+04  0.00000000000E+00 0.  1.
         21    1    1    2  504  506 -0.37657860717E+02  0.11536276079E+02  0.26746932404E+02  0.47608807300E+02  0.00000000000E+00 0. -1.
         21    1    1    2  505  501 -0.10283734244E+02  0.55764053435E+02  0.14775281852E+03  0.15826016626E+03  0.00000000000E+00 0. -1.
         21    1    1    2  506  503 -0.75560182390E+02 -0.77836465364E+01 -0.16071133973E+02  0.77641533108E+02  0.00000000000E+00 0.  1.
<scales pt_clust_3="136.53004" pt_clust_4="37.70076" pt_clust_5="56.70436" pt_clust_6="37.70076"></scales>
<clustering>
<clus scale="   37.701">  4  6 -1 -1</clus>
<clus scale="   56.704">  1  5  2 -1</clus>
<clus scale="  136.530">  2  3  1 -1</clus>
<clus scale="   56.704">  1  3  2 -1</clus>
</clustering>
</event>
<event>
 6    0  0.1438923E+002  0.1561560E+03  0.7546771E-02  0.1193106E+00
         21   -1    0    0  503  501  0.00000000000E+00  0.00000000000E+00  0.69611101777E+03  0.69611101777E+03  0.00000000000E+00 0.  1.
         21   -1    0    0  505  502 -0.00000000000E+00 -0.00000000000E+00 -0.10942850774E+03  0.10942850774E+03  0.00000000000E+00 0.  1.
         21    1    1    2  503  502  0.11935008414E+03 -0.12991998575E+03  0.10172399806E+02  0.17671197752E+03  0.00000000000E+00 0.  1.
         21    1    1    2  504  506 -0.17160449924E+02  0.36759217225E+02  0.97423000712E+02  0.10553180639E+03  0.00000000000E+00 0. -1.
         21    1    1    2  505  504  0.28677768832E+01  0.63084376905E+02  0.50101227486E+02  0.80610146689E+02  0.00000000000E+00 0. -1.
         21    1    1    2  506  501 -0.10505741110E+03  0.30076391620E+02  0.42898588202E+03  0.44268559490E+03  0.00000000000E+00 0.  1.
<scales pt_clust_3="142.66358" pt_clust_4="38.68768" pt_clust_5="63.14953" pt_clust_6="38.68768"></scales>
<clustering>
<clus scale="   38.688">  4  6 -1 -1</clus>
<clus scale="   63.150">  2  5  1 -1</clus>
<clus scale="  142.664">  2  3  1 -1</clus>
<clus scale="  156.156">  1  3  2 -1</clus>
</clustering>
</event>
<event>
 6    0  0.1438923E+002  0.1400184E+03  0.7546771E-02  0.1213304E+00
         21   -1    0    0  506  501  0.00000000000E+00  0.00000000000E+00  0.90919951058E+03  0.90919951058E+03  0.00000000000E+00 0.  1.
         21   -1    0    0  504  502 -0.00000000000E+00 -0.00000000000E+00 -0.37063413198E+02  0.37063413198E+02  0.00000000000E+00 0.  1.
         21    1    1    2  503  502  0.71590769983E+02  0.49493660111E+02  0.11183903971E+03  0.14171390737E+03  0.00000000000E+00 0.  1.
         21    1    1    2  504  505 -0.31316309890E+01 -0.63423023605E+02  0.12976784933E+03  0.14447138733E+03  0.00000000000E+00 0.  1.
         21    1    1    2  505  501 -0.12158937309E+03 -0.28875599814E+02  0.45190116498E+03  0.46886292115E+03  0.00000000000E+00 0.  1.
         21    1    1    2  506  503  0.53130234094E+02  0.42804963308E+02  0.17862804336E+03  0.19121470794E+03  0.00000000000E+00 0.  1.
<scales pt_clust_3="43.33902" pt_clust_4="63.50029" pt_clust_5="131.18376" pt_clust_6="43.33902"></scales>
<clustering>
<clus scale="   43.339">  3  6 -1 -1</clus>
<clus scale="   63.500">  2  4  1 -1</clus>
<clus scale="  131.184">  1  5  2 -1</clus>
<clus scale="  131.184">  1  3  2 -1</clus>
</clustering>
</event>
<event>
 6    0  0.1438923E+002  0.8987181E+02  0.7546771E-02  0.1303162E+00
         21   -1    0    0  503  501  0.00000000000E+00  0.00000000000E+00  0.34455014773E+02  0.34455014773E+02  0.00000000000E+00 0. -1.
         21   -1    0    0  505  502 -0.00000000000E+00 -0.00000000000E+00 -0.67440055156E+03  0.67440055156E+03  0.00000000000E+00 0. -1.
         21    1    1    2  503  504  0.47674053736E+01 -0.32632417064E+02 -0.10684681451E+02  0.34666485475E+02  0.00000000000E+00 0. -1.
         21    1    1    2  504  506 -0.21825360732E+02 -0.31092682093E+02 -0.50844698717E+02  0.63468769000E+02  0.00000000000E+00 0.  1.
         21    1    1    2  505  501 -0.80883768256E+02  0.45239582865E+02 -0.33768427028E+03  0.35017063015E+03  0.00000000000E+00 0. -1.
         21    1    1    2  506  502  0.97941723615E+02  0.18485516292E+02 -0.24073188634E+03  0.26054968171E+03  0.00000000000E+00 0. -1.
<scales pt_clust_3="32.97882" pt_clust_4="45.17393" pt_clust_5="14000.00000" pt_clust_6="89.87181"></scales>
<clustering>
<clus scale="   32.979">  1  3  2 -1</clus>
<clus scale="   45.174">  1  4  2 -1</clus>
<clus scale="   89.872">  1  6  2 -1</clus>
<clus scale="   32.979">  1  3  2 -1</clus>
</clustering>
</event>
<event>
 6    0  0.1438923E+002  0.3613510E+03  0.7546771E-02  0.1058050E+00
         21   -1    0    0  503  501  0.00000000000E+00  0.00000000000E+00  0.81318068232E+03  0.81318068232E+03  0.00000000000E+00 0. -1.
         21   -1    0    0  506  502 -0.00000000000E+00 -0.00000000000E+00 -0.49217989645E+03  0.49217989645E+03  0.00000000000E+00 0.  1.
         21    1    1    2  503  505 -0.65229949457E+02  0.10497104014E+03  0.49575992650E+03  0.51093225608E+03  0.00000000000E+00 0. -1.
         21    1    1    2  504  502  0.50282855132E+02  0.21057334191E+03  0.66970741256E+02  0.22661548497E+03  0.00000000000E+00 0. -1.
         21    1    1    2  505  504 -0.37893320710E+02  0.58527362206E+02  0.53881849905E+02  0.88117022365E+02  0.00000000000E+00 0. -1.
         21    1    1    2  506  501  0.52840415035E+02 -0.37407174425E+03 -0.29561173180E+03  0.47969581537E+03  0.00000000000E+00 0.  1.
<scales pt_clust_3="123.58748" pt_clust_4="61.86157" pt_clust_5="61.86157" pt_clust_6="344.51713"></scales>
<clustering>
<clus scale="   61.862">  4  5 -1 -1</clus>
<clus scale="  123.587">  1  3  2 -1</clus>
<clus scale="  344.517">  2  6  1 -1</clus>
<clus scale="  123.587">  1  3  2 -1</clus>
</clustering>
</event>
<event>
 6    0  0.1438923E+002  0.1065038E+03  0.7546771E-02  0.1267185E+00
         21   -1    0    0  502  501  0.00000000000E+00  0.00000000000E+00  0.21085177521E+03  0.21085177521E+03  0.00000000000E+00 0. -1.
         21   -1    0    0  505  502 -0.00000000000E+00 -0.00000000000E+00 -0.20927093638E+03  0.20927093638E+03  0.00000000000E+00 0.  1.
         21    1    1    2  503  501  0.33550467108E+02 -0.84411592449E+01  0.10004757398E+02  0.36013638849E+02  0.00000000000E+00 0.  1.
         21    1    1    2  504  503  0.49467913478E+02 -0.87688670682E+02  0.10230353750E+03  0.14353533089E+03  0.00000000000E+00 0. -1.
         21    1    1    2  505  506  0.34804506597E+01  0.34486040620E+02 -0.12831206626E+03  0.13291119924E+03  0.00000000000E+00 0.  1.
         21    1    1    2  506  504 -0.86498831246E+02  0.61643789307E+02  0.17584610200E+02  0.10766254262E+03  0.00000000000E+00 0. -1.
<scales pt_clust_3="34.59605" pt_clust_4="14000.00000" pt_clust_5="34.60219" pt_clust_6="106.50378"></scales>
<clustering>
<clus scale="   34.596">  1  3  2 -1</clus>
<clus scale="   34.602">  2  5  1 -1</clus>
<clus scale="  106.504">  2  6  1 -1</clus>
<clus scale="   34.596">  1  3  2 -1</clus>
</clustering>
</event>
<event>
 6    0  0.1438923E+002  0.7358714E+02  0.7546771E-02  0.1348303E+00
         21   -1    0    0  505  501  0.00000000000E+00  0.00000000000E+00  0.13747586034E+03  0.13747586034E+03  0.00000000000E+00 0. -1.
         21   -1    0    0  503  502 -0.00000000000E+00 -0.00000000000E+00 -0.26209698729E+04  0.26209698729E+04  0.00000000000E+00 0. -1.
         21    1    1    2  503  504 -0.42752764193E+02  0.69411063899E+01 -0.25055208282E+04  0.25058951691E+04  0.00000000000E+00 0. -1.
         21    1    1    2  504  501 -0.37923602359E+02 -0.95289560887E+02  0.14504207340E+02  0.10357930324E+03  0.00000000000E+00 0. -1.
         21    1    1    2  505  506  0.32684717588E+02  0.54345759999E+02  0.46301654629E+02  0.78521306759E+02  0.00000000000E+00 0. -1.
         21    1    1    2  506  502  0.47991648964E+02  0.34002694498E+02 -0.38779046266E+02  0.70449954100E+02  0.00000000000E+00 0. -1.
<scales pt_clust_3="43.31256" pt_clust_4="14000.00000" pt_clust_5="73.58714" pt_clust_6="46.47413"></scales>
<clustering>
<clus scale="   43.313">  2  3  1 -1</clus>
<clus scale="   46.474">  2  6  1 -1</clus>
<clus scale="   73.587">  1  5  2 -1</clus>
<clus scale="   73.587">  1  3  2 -1</clus>
</clustering>
</event>
<event>
 6    0  0.1438923E+002  0.1769190E+03  0.7546771E-02  0.1170819E+00
         21   -1    0    0  505  501  0.00000000000E+00  0.00000000000E+00  0.21770365520E+02  0.21770365520E+02  0.00000000000E+00 0. -1.
         21   -1    0    0  501  502 -0.00000000000E+00 -0.00000000000E+00 -0.14312883054E+04  0.14312883054E+04  0.00000000000E+00 0. -1.
         21    1    1    2  503  504 -0.38328773897E+02  0.21323366650E+02 -0.42524217527E+03  0.42749817368E+03  0.00000000000E+00 0. -1.
         21    1    1    2  504  506 -0.50915566373E+02  0.32380814343E+02 -0.24424470170E+03  0.25158773091E+03  0.00000000000E+00 0. -1.
         21    1    1    2  505  503  0.10417099562E+03 -0.11470615164E+03 -0.41618495726E+03  0.44409347688E+03  0.00000000000E+00 0. -1.
         21    1    1    2  506  502 -0.14926655353E+02  0.61001970651E+02 -0.32384610567E+03  0.32987928947E+03  0.00000000000E+00 0. -1.
<scales pt_clust_3="39.03576" pt_clust_4="49.35849" pt_clust_5="154.94869" pt_clust_6="49.35849"></scales>
<clustering>
<clus scale="   39.036">  3  4 -1 -1</clus>
<clus scale="   49.358">  3  6 -1 -1</clus>
<clus scale="  154.949">  1  5  2 -1</clus>
<clus scale="  154.949">  1  3  2 -1</clus>
</clustering>
</event>
<event>
 6    0  0.1438923E+002  0.2448371E+03  0.7546771E-02  0.1116612E+00
         21   -1    0    0  503  501  0.00000000000E+00  0.00000000000E+00  0.34021043882E+03  0.34021043882E+03  0.00000000000E+00 0.  1.
         21   -1    0    0  505  502 -0.00000000000E+00 -0.00000000000E+00 -0.14376807237E+04  0.14376807237E+04  0.00000000000E+00 0. -1.
         21    1    1    2  503  502 -0.10180301248E+03 -0.21868927425E+03 -0.13344655640E+04  0.13560926198E+04  0.00000000000E+00 0. -1.
         21    1    1    2  504  501  0.32058252798E+02 -0.47241075909E+02  0.94376813636E+02  0.11030155836E+03  0.00000000000E+00 0.  1.
         21    1    1    2  505  506  0.50507661214E+02  0.13296501301E+03  0.65559690132E+02  0.15661670248E+03  0.00000000000E+00 0.  1.
         21    1    1    2  506  504  0.19237098469E+02  0.13296533715E+03  0.77058775367E+02  0.15488028184E+03  0.00000000000E+00 0.  1.
<scales pt_clust_3="242.56578" pt_clust_4="57.09160" pt_clust_5="32.33713" pt_clust_6="32.33713"></scales>
<clustering>
<clus scale="   32.337">  5  6 -1 -1</clus>
<clus scale="   57.092">  1  4  2 -1</clus>
<clus scale="  242.566">  2  3  1 -1</clus>
<clus scale="   57.092">  1  3  2 -1</clus>
</clustering>
</event>
<event>
 6    0  0.1438923E+002  0.1730324E+03  0.7546771E-02  0.1174722E+00
         21   -1    0    0  505  501  0.00000000000E+00  0.00000000000E+00  0.70328767135E+03  0.70328767135E+03  0.00000000000E+00 0.  1.
         21   -1    0    0  503  502 -0.00000000000E+00 -0.00000000000E+00 -0.45122553568E+03  0.45122553568E+03  0.00000000000E+00 0.  1.
         21    1    1    2  503  501 -0.11944619324E+03  0.88909137401E+02 -0.42780189766E+03  0.45297537619E+03  0.00000000000E+00 0.  1.
         21    1    1    2  504  506  0.37665022304E+02 -0.36295628103E+02  0.20803830292E+03  0.21451331429E+03  0.00000000000E+00 0.  1.
         21    1    1    2  505  504  0.57306215948E+02 -0.95229902207E+01  0.36072356202E+03  0.36537128777E+03  0.00000000000E+00 0.  1.
         21    1    1    2  506  502  0.24474954992E+02 -0.43090519077E+02  0.11110216838E+03  0.12165322879E+03  0.00000000000E+00 0.  1.
<scales pt_clust_3="148.90342" pt_clust_4="57.31974" pt_clust_5="57.31974" pt_clust_6="30.68395"></scales>
<clustering>
<clus scale="   30.684">  4  6 -1 -1</clus>
<clus scale="   57.320">  4  5 -1 -1</clus>
<clus scale="  148.903">  2  3  1 -1</clus>
<clus scale="  173.032">  1  3  2 -1</clus>
</clustering>
</event>
<event>
 6    0  0.1438923E+002  0.8874220E+02  0.7546771E-02  0.1305927E+00
         21   -1    0    0  504  501  0.00000000000E+00  0.00000000000E+00  0.11037510193E+04  0.11037510193E+04  0.00000000000E+00 0. -1.
         21   -1    0    0  505  502 -0.00000000000E+00 -0.00000000000E+00 -0.13761192902E+03  0.13761192902E+03  0.00000000000E+00 0. -1.
         21    1    1    2  503  502  0.15121933880E+02 -0.74658043938E+02 -0.11691004490E+03  0.13953657230E+03  0.00000000000E+00 0. -1.
         21    1    1    2  504  503  0.18360807556E+01 -0.56710700924E+02  0.20377811706E+03  0.21153012973E+03  0.00000000000E+00 0. -1.
         21    1    1    2  505  506 -0.20307081661E+02  0.48565194558E+02  0.24196248133E+03  0.24762228910E+03  0.00000000000E+00 0. -1.
         21    1    1    2  506  501  0.33490670249E+01  0.82803550305E+02  0.63730853684E+03  0.64267395724E+03  0.00000000000E+00 0. -1.
<scales pt_clust_3="76.88054" pt_clust_4="56.74042" pt_clust_5="35.32550" pt_clust_6="35.32550"></scales>
<clustering>
<clus scale="   35.325">  5  6 -1 -1</clus>
<clus scale="   56.740">  1  4  2 -1</clus>
<clus scale="   76.881">  2  3  1 -1</clus>
<clus scale="   56.740">  1  3  2 -1</clus>
</clustering>
</event>
<event>
 6    0  0.1438923E+002  0.1014729E+03  0.7546771E-02  0.1277229E+00
         21   -1    0    0  503  501  0.00000000000E+00  0.00000000000E+00  0.57478937293E+02  0.57478937293E+02  0.00000000000E+00 0. -1.
         21   -1    0    0  505  502 -0.00000000000E+00 -0.00000000000E+00 -0.40817163590E+03  0.40817163590E+03  0.00000000000E+00 0. -1.
         21    1    1    2  503  504  0.28950341344E+02  0.17813951852E+02 -0.19109578373E+02  0.38995321900E+02  0.00000000000E+00 0. -1.
         21    1    1    2  504  502  0.21668893940E+02  0.97718975238E+02 -0.20498561562E+03  0.22811760497E+03  0.00000000000E+00 0. -1.
         21    1    1    2  505  506 -0.74500487556E+02 -0.85715026599E+02 -0.10491514166E+03  0.15461104546E+03  0.00000000000E+00 0. -1.
         21    1    1    2  506  501  0.23881252272E+02 -0.29817900491E+02 -0.21682362964E+02  0.43926600864E+02  0.00000000000E+00 0. -1.
<scales pt_clust_3="33.99205" pt_clust_4="101.47288" pt_clust_5="14000.00000" pt_clust_6="39.97046"></scales>
<clustering>
<clus scale="   33.992">  1  3  2 -1</clus>
<clus scale="   39.970">  1  6  2 -1</clus>
<clus scale="  101.473">  2  4  1 -1</clus>
<clus scale="   33.992">  1  3  2 -1</clus>
</clustering>
</event>
<event>
 6    0  0.1438923E+002  0.6688214E+02  0.7546771E-02  0.1371028E+00
         21   -1    0    0  503  501  0.00000000000E+00  0.00000000000E+00  0.14161298596E+03  0.14161298596E+03  0.00000000000E+00 0.  1.
         21   -1    0    0  504  502 -0.00000000000E+00 -0.00000000000E+00 -0.78871874495E+03  0.78871874495E+03  0.00000000000E+00 0.  1.
         21    1    1    2  503  506  0.86726419045E+02  0.53657243322E+02  0.78134822798E+02  0.12847420774E+03  0.00000000000E+00 0.  1.
         21    1    1    2  504  505 -0.58246539022E+02 -0.26006799413E+02 -0.10455600079E+02  0.64640022406E+02  0.00000000000E+00 0. -1.
         21    1    1    2  505  501 -0.14991188316E+02  0.37795718454E+02 -0.33554795688E+02  0.52717894251E+02  0.00000000000E+00 0.  1.
         21    1    1    2  506  502 -0.13488691708E+02 -0.65446162364E+02 -0.68123018602E+03  0.68449960652E+03  0.00000000000E+00 0.  1.
<scales pt_clust_3="66.88214" pt_clust_4="63.98108" pt_clust_5="40.66020" pt_clust_6="14000.00000"></scales>
<clustering>
<clus scale="   40.660">  1  5  2 -1</clus>
<clus scale="   63.981">  1  4  2 -1</clus>
<clus scale="   66.882">  1  3  2 -1</clus>
<clus scale="   40.660">  1  3  2 -1</clus>
</clustering>
</event>
<event>
 6    0  0.1438923E+002  0.1266413E+03  0.7546771E-02  0.1232526E+00
         21   -1    0    0  505  501  0.00000000000E+00  0.00000000000E+00  0.10102866908E+04  0.10102866908E+04  0.00000000000E+00 0. -1.
         21   -1    0    0  504  502 -0.00000000000E+00 -0.00000000000E+00 -0.35238441046E+02  0.35238441046E+02  0.00000000000E+00 0. -1.
         21    1    1    2  503  501  0.82955385629E+01 -0.49198857266E+02  0.29837132211E+03  0.30251411434E+03  0.00000000000E+00 0. -1.
         21    1    1    2  504  506  0.31396021961E+02  0.11684486547E+02 -0.61885470321E+01  0.34066633752E+02  0.00000000000E+00 0. -1.
         21    1    1    2  505  502 -0.61208761114E+02  0.10011662512E+03  0.52129140387E+03  0.53433564246E+03  0.00000000000E+00 0. -1.
         21    1    1    2  506  503  0.21517200590E+02 -0.62602254401E+02  0.16157407081E+03  0.17460874129E+03  0.00000000000E+00 0. -1.
<scales pt_clust_3="44.47912" pt_clust_4="33.49981" pt_clust_5="115.45497" pt_clust_6="44.47912"></scales>
<clustering>
<clus scale="   33.500">  2  4  1 -1</clus>
<clus scale="   44.479">  3  6 -1 -1</clus>
<clus scale="  115.455">  1  5  2 -1</clus>
<clus scale="  115.455">  1  3  2 -1</clus>
</clustering>
</event>
<event>
 6    0  0.1438923E+002  0.1287426E+03  0.7546771E-02  0.1229334E+00
         21   -1    0    0  505  501  0.00000000000E+00  0.00000000000E+00  0.25812081332E+03  0.25812081332E+03  0.00000000000E+00 0.  1.
         21   -1    0    0  504  502 -0.00000000000E+00 -0.00000000000E+00 -0.30208881808E+03  0.30208881808E+03  0.00000000000E+00 0.  1.
         21    1    1    2  503  506 -0.20206547955E+02 -0.70105366458E+02  0.12449986512E+03  0.14430274911E+03  0.00000000000E+00 0.  1.
         21    1    1    2  504  503  0.88801891968E+02  0.64024340684E+02  0.11253539285E+02  0.11005241644E+03  0.00000000000E+00 0.  1.
         21    1    1    2  505  502 -0.51151067621E+02  0.64384833459E+02 -0.21865665866E+03  0.23360773291E+03  0.00000000000E+00 0.  1.
         21    1    1    2  506  501 -0.17444276392E+02 -0.58303807685E+02  0.38935249487E+02  0.72246732950E+02  0.00000000000E+00 0. -1.
<scales pt_clust_3="43.57287" pt_clust_4="119.57639" pt_clust_5="82.23040" pt_clust_6="43.57287"></scales>
<clustering>
<clus scale="   43.573">  3  6 -1 -1</clus>
<clus scale="   82.230">  2  5  1 -1</clus>
<clus scale="  119.576">  2  4  1 -1</clus>
<clus scale="  128.743">  1  3  2 -1</clus>
</clustering>
</event>
<event>
 6    0  0.1438923E+002  0.1624461E+03  0.7546771E-02  0.1185962E+00
         21   -1    0    0  503  501  0.00000000000E+00  0.00000000000E+00  0.75014619202E+03  0.75014619202E+03  0.00000000000E+00 0.  1.
         21   -1    0    0  505  502 -0.00000000000E+00 -0.00000000000E+00 -0.16151189170E+03  0.16151189170E+03  0.00000000000E+00 0.  1.
         21    1    1    2  503  504 -0.36712925570E+02  0.15347966076E+03  0.65853030771E+03  0.67717502268E+03  0.00000000000E+00 0.  1.
         21    1    1    2  504  506  0.46374710448E+02 -0.84226372928E+02 -0.21276029402E+02  0.98475200395E+02  0.00000000000E+00 0.  1.
         21    1    1    2  505  501 -0.29512854463E+02 -0.11166130917E+02 -0.65189938519E+02  0.72425265911E+02  0.00000000000E+00 0.  1.
         21    1    1    2  506  502  0.19851069586E+02 -0.58087156913E+02  0.16569960531E+02  0.63582594740E+02  0.00000000000E+00 0.  1.
<scales pt_clust_3="157.43937" pt_clust_4="32.29919" pt_clust_5="31.55457" pt_clust_6="32.29919"></scales>
<clustering>
<clus scale="   31.555">  2  5  1 -1</clus>
<clus scale="   32.299">  4  6 -1 -1</clus>
<clus scale="  157.439">  1  3  2 -1</clus>
<clus scale="  157.439">  1  3  2 -1</clus>
</clustering>
</event>
<event>
 6    0  0.1438923E+002  0.1198533E+03  0.7546771E-02  0.1243339E+00
         21   -1    0    0  506  501  0.00000000000E+00  0.00000000000E+00  0.65987415996E+03  0.65987415996E+03  0.00000000000E+00 0.  1.
         21   -1    0    0  503  502 -0.00000000000E+00 -0.00000000000E+00 -0.10207705089E+03  0.10207705089E+03  0.00000000000E+00 0.  1.
         21    1    1    2  503  505 -0.43002129731E+02  0.29314994040E+02  0.12073038472E+03  0.13147006440E+03  0.00000000000E+00 0.  1.
         21    1    1    2  504  502 -0.11964068720E+02  0.62600351377E+02 -0.56548992698E+02  0.85204058049E+02  0.00000000000E+00 0.  1.
         21    1    1    2  505  501 -0.40133871338E+02  0.26093115953E+02  0.27578590731E+03  0.27990970865E+03  0.00000000000E+00 0. -1.
         21    1    1    2  506  504  0.95100069789E+02 -0.11800846137E+03  0.21782980974E+03  0.26536737976E+03  0.00000000000E+00 0.  1.
<scales pt_clust_3="43.17398" pt_clust_4="63.73337" pt_clust_5="43.17398" pt_clust_6="111.07799"></scales>
<clustering>
<clus scale="   43.174">  3  5 -1 -1</clus>
<clus scale="   63.733">  2  4  1 -1</clus>
<clus scale="  111.078">  2  6  1 -1</clus>
<clus scale="  119.853">  1  3  2 -1</clus>
</clustering>
</event>
<event>
 6    0  0.1438923E+002  0.1096190E+03  0.7546771E-02  0.1261277E+00
         21   -1    0    0  506  501  0.00000000000E+00  0.00000000000E+00  0.53410262899E+02  0.53410262899E+02  0.00000000000E+00 0.  1.
         21   -1    0    0  505  502 -0.00000000000E+00 -0.00000000000E+00 -0.55941672842E+03  0.55941672842E+03  0.00000000000E+00 0. -1.
         21    1    1    2  503  504 -0.37318816301E+02  0.51690262677E+02 -0.71493050309E+02  0.95790571291E+02  0.00000000000E+00 0.  1.
         21    1    1    2  504  502  0.24157039363E+02 -0.30300134142E+02 -0.13577646317E+03  0.14119811837E+03  0.00000000000E+00 0. -1.
         21    1    1    2  505  501  0.87702458564E+02  0.63865845369E+02 -0.10241989978E+03  0.14919920682E+03  0.00000000000E+00 0.  1.
         21    1    1    2  506  503 -0.74540681626E+02 -0.85255973904E+02 -0.19631705225E+03  0.22663909484E+03  0.00000000000E+00 0. -1.
<scales pt_clust_3="56.06385" pt_clust_4="38.75127" pt_clust_5="109.61896" pt_clust_6="14000.00000"></scales>
<clustering>
<clus scale="   38.751">  2  4  1 -1</clus>
<clus scale="   56.064">  2  3  1 -1</clus>
<clus scale="  109.619">  1  5  2 -1</clus>
<clus scale="  109.619">  1  3  2 -1</clus>
</clustering>
</event>
<event>
 6    0  0.1438923E+002  0.4834723E+03  0.7546771E-02  0.1018185E+00
         21   -1    0    0  504  501  0.00000000000E+00  0.00000000000E+00  0.20955815142E+03  0.20955815142E+03  0.00000000000E+00 0.  1.
         21   -1    0    0  505  502 -0.00000000000E+00 -0.00000000000E+00 -0.11311499109E+04  0.11311499109E+04  0.00000000000E+00 0.  1.
         21    1    1    2  503  506 -0.59426649687E+02  0.11652996176E+03 -0.54598821217E+02  0.14174551125E+03  0.00000000000E+00 0.  1.
         21    1    1    2  504  502  0.29910833472E+03 -0.33800555310E+03 -0.37481278478E+03  0.58668404909E+03  0.00000000000E+00 0.  1.
         21    1    1    2  505  503 -0.21836456634E+03  0.24569755208E+03 -0.46824066488E+03  0.57210111971E+03  0.00000000000E+00 0.  1.
         21    1    1    2  506  501 -0.21317118691E+02 -0.24221960732E+02 -0.23939488587E+02  0.40177382254E+02  0.00000000000E+00 0. -1.
<scales pt_clust_3="104.42555" pt_clust_4="453.76900" pt_clust_5="104.42555" pt_clust_6="32.26644"></scales>
<clustering>
<clus scale="   32.266">  1  6  2 -1</clus>
<clus scale="  104.426">  3  5 -1 -1</clus>
<clus scale="  453.769">  1  4  2 -1</clus>
<clus scale="   32.266">  1  3  2 -1</clus>
</clustering>
</event>
<event>
 6    0  0.1438923E+002  0.1340859E+03  0.7546771E-02  0.1221516E+00
         21   -1    0    0  506  501  0.00000000000E+00  0.00000000000E+00  0.79776586956E+02  0.79776586956E+02  0.00000000000E+00 0.  1.
         21   -1    0    0  503  502 -0.00000000000E+00 -0.00000000000E+00 -0.46474431108E+03  0.46474431108E+03  0.00000000000E+00 0. -1.
         21    1    1    2  503  505  0.47313987288E+02 -0.15544835925E+02 -0.64567411798E+01  0.50218968763E+02  0.00000000000E+00 0.  1.
         21    1    1    2  504  502 -0.10813851313E+03 -0.57201649108E+02 -0.36660704765E+03  0.38647987537E+03  0.00000000000E+00 0. -1.
         21    1    1    2  505  501  0.33749898839E+02  0.44158166683E+02  0.17954567179E+02  0.58406898900E+02  0.00000000000E+00 0.  1.
         21    1    1    2  506  504  0.27074627007E+02  0.28588318350E+02 -0.29858502476E+02  0.49415155001E+02  0.00000000000E+00 0.  1.
<scales pt_clust_3="55.86877" pt_clust_4="117.05434" pt_clust_5="55.86877" pt_clust_6="39.37420"></scales>
<clustering>
<clus scale="   39.374">  1  6  2 -1</clus>
<clus scale="   55.869">  3  5 -1 -1</clus>
<clus scale="  117.054">  2  4  1 -1</clus>
<clus scale="   39.374">  1  3  2 -1</clus>
</clustering>
</event>
<event>
 6    0  0.1438923E+002  0.1430758E+03  0.7546771E-02  0.1209249E+00
         21   -1    0    0  504  501  0.00000000000E+00  0.00000000000E+00  0.25523369665E+03  0.25523369665E+03  0.00000000000E+00 0.  1.
         21   -1    0    0  503  502 -0.00000000000E+00 -0.00000000000E+00 -0.10996190340E+03  0.10996190340E+03  0.00000000000E+00 0.  1.
         21    1    1    2  503  505  0.12295341752E+03  0.75732008088E+02  0.32283974832E+02  0.14797004751E+03  0.00000000000E+00 0.  1.
         21    1    1    2  504  506 -0.70776251183E+02 -0.62497455187E+02  0.65105655162E+02  0.11469069697E+03  0.00000000000E+00 0.  1.
         21    1    1    2  505  501 -0.43005219357E+02  0.19377417742E+02  0.49813538380E+02  0.68602637094E+02  0.00000000000E+00 0.  1.
         21    1    1    2  506  502 -0.91719469834E+01 -0.32611970642E+02 -0.19313751232E+01  0.33932218473E+02  0.00000000000E+00 0.  1.
<scales pt_clust_3="133.45568" pt_clust_4="30.89465" pt_clust_5="47.16920" pt_clust_6="30.89465"></scales>
<clustering>
<clus scale="   30.895">  4  6 -1 -1</clus>
<clus scale="   47.169">  1  5  2 -1</clus>
<clus scale="  133.456">  2  3  1 -1</clus>
<clus scale="   47.169">  1  3  2 -1</clus>
</clustering>
</event>
<event>
 6    0  0.1438923E+002  0.1417122E+03  0.7546771E-02  0.1211043E+00
         21   -1    0    0  504  501  0.00000000000E+00  0.00000000000E+00  0.41328151389E+03  0.41328151389E+03  0.00000000000E+00 0.  1.
         21   -1    0    0  505  502 -0.00000000000E+00 -0.00000000000E+00 -0.55101755962E+03  0.55101755962E+03  0.00000000000E+00 0. -1.
         21    1    1    2  503  502 -0.61600995908E+02  0.12056368559E+03 -0.51332937020E+03  0.53088353458E+03  0.00000000000E+00 0. -1.
         21    1    1    2  504  506  0.47003243823E+02 -0.36014446886E+02  0.24514120506E+03  0.25219150606E+03  0.00000000000E+00 0.  1.
         21    1    1    2  505  501  0.14156690354E+02 -0.43607297162E+02  0.14396932833E+01  0.45870262309E+02  0.00000000000E+00 0.  1.
         21    1    1    2  506  503  0.44106173066E+00 -0.40941941538E+02  0.12901242612E+03  0.13535377057E+03  0.00000000000E+00 0.  1.
<scales pt_clust_3="134.36961" pt_clust_4="37.43920" pt_clust_5="45.84766" pt_clust_6="37.43920"></scales>
<clustering>
<clus scale="   37.439">  4  6 -1 -1</clus>
<clus scale="   45.848">  1  5  2 -1</clus>
<clus scale="  134.370">  2  3  1 -1</clus>
<clus scale="   45.848">  1  3  2 -1</clus>
</clustering>
</event>
<event>
 6    0  0.1438923E+002  0.1876554E+03  0.7546771E-02  0.1160593E+00
         21   -1    0    0  504  501  0.00000000000E+00  0.00000000000E+00  0.15595292216E+04  0.15595292216E+04  0.00000000000E+00 0. -1.
         21   -1    0    0  505  502 -0.00000000000E+00 -0.00000000000E+00 -0.28367368108E+02  0.28367368108E+02  0.00000000000E+00 0. -1.
         21    1    1    2  503  502  0.40320389572E+02  0.11173695905E+03  0.37553564913E+03  0.39387549505E+03  0.00000000000E+00 0. -1.
         21    1    1    2  504  506  0.21469688470E+02 -0.17982726279E+03  0.72942759820E+03  0.75157395709E+03  0.00000000000E+00 0. -1.
         21    1    1    2  505  501 -0.43544972976E+02  0.14518067443E+01  0.23826412966E+03  0.24221492088E+03  0.00000000000E+00 0. -1.
         21    1    1    2  506  503 -0.18245105065E+02  0.66638497002E+02  0.18793447655E+03  0.20023221673E+03  0.00000000000E+00 0.  1.
<scales pt_clust_3="42.87305" pt_clust_4="179.03704" pt_clust_5="43.56917" pt_clust_6="42.87305"></scales>
<clustering>
<clus scale="   42.873">  3  6 -1 -1</clus>
<clus scale="   43.569">  1  5  2 -1</clus>
<clus scale="  179.037">  1  4  2 -1</clus>
<clus scale="   43.569">  1  3  2 -1</clus>
</clustering>
</event>
<event>
 6    0  0.1438923E+002  0.1398434E+03  0.7546771E-02  0.1213540E+00
         21   -1    0    0  504  501  0.00000000000E+00  0.00000000000E+00  0.62315276094E+03  0.62315276094E+03  0.00000000000E+00 0.  1.
         21   -1    0    0  505  502 -0.00000000000E+00 -0.00000000000E+00 -0.14270340648E+03  0.14270340648E+03  0.00000000000E+00 0.  1.
         21    1    1    2  503  502 -0.89254183678E+02  0.41367463931E+00  0.35609878831E+03  0.36711418860E+03  0.00000000000E+00 0.  1.
         21    1    1    2  504  503 -0.28445584625E+02  0.33934684756E+02  0.12831974482E+03  0.13574487477E+03  0.00000000000E+00 0.  1.
         21    1    1    2  505  506 -0.31684943923E+02  0.11616732027E+02 -0.81731446284E+02  0.88424620136E+02  0.00000000000E+00 0.  1.
         21    1    1    2  506  501  0.14938471223E+03 -0.45965091422E+02  0.77762267614E+02  0.17457248392E+03  0.00000000000E+00 0.  1.
<scales pt_clust_3="39.84307" pt_clust_4="39.84307" pt_clust_5="33.74736" pt_clust_6="127.99725"></scales>
<clustering>
<clus scale="   33.747">  2  5  1 -1</clus>
<clus scale="   39.843">  3  4 -1 -1</clus>
<clus scale="  127.997">  2  6  1 -1</clus>
<clus scale="  139.843">  1  3  2 -1</clus>
</clustering>
</event>
<event>
 6    0  0.1438923E+002  0.1115949E+03  0.7546771E-02  0.1257645E+00
         21   -1    0    0  505  501  0.00000000000E+00  0.00000000000E+00  0.10069712209E+03  0.10069712209E+03  0.00000000000E+00 0. -1.
         21   -1    0    0  506  502 -0.00000000000E+00 -0.00000000000E+00 -0.79392693488E+03  0.79392693488E+03  0.00000000000E+00 0. -1.
         21    1    1    2  503  501 -0.10873844748E+03 -0.58810974762E+02  0.33597234044E+01  0.12366918959E+03  0.00000000000E+00 0. -1.
         21    1    1    2  504  502 -0.63153629661E+02 -0.45090052695E+02 -0.12340333414E+03  0.14577337434E+03  0.00000000000E+00 0. -1.
         21    1    1    2  505  504  0.93489011001E+02  0.57947527314E+02 -0.48928503246E+03  0.50149571692E+03  0.00000000000E+00 0. -1.
         21    1    1    2  506  503  0.78403066139E+02  0.45953500143E+02 -0.83901169590E+02  0.12368577612E+03  0.00000000000E+00 0. -1.
<scales pt_clust_3="111.59488" pt_clust_4="77.59828" pt_clust_5="51.95106" pt_clust_6="14000.00000"></scales>
<clustering>
<clus scale="   77.598">  2  4  1 -1</clus>
<clus scale="   51.951">  2  5  1 -1</clus>
<clus scale="  111.595">  1  3  2 -1</clus>
<clus scale="  111.595">  1  3  2 -1</clus>
</clustering>
</event>
<event>
 6    0  0.1438923E+002  0.1005537E+03  0.7546771E-02  0.1279136E+00
         21   -1    0    0  505  501  0.00000000000E+00  0.00000000000E+00  0.15268707532E+03  0.15268707532E+03  0.00000000000E+00 0.  1.
         21   -1    0    0  506  502 -0.00000000000E+00 -0.00000000000E+00 -0.26576117264E+03  0.26576117264E+03  0.00000000000E+00 0.  1.
         21    1    1    2  503  502 -0.10716523393E+02 -0.45359644092E+02 -0.56936450732E+02  0.73580572217E+02  0.00000000000E+00 0.  1.
         21    1    1    2  504  501  0.14678567950E+02  0.10512084194E+03  0.63672591908E+02  0.12377419250E+03  0.00000000000E+00 0.  1.
         21    1    1    2  505  503  0.57929504593E+02 -0.88784892849E+02 -0.33890492427E+02  0.11129757490E+03  0.00000000000E+00 0.  1.
         21    1    1    2  506  504 -0.61891549150E+02  0.29023694999E+02 -0.85919746070E+02  0.10979590836E+03  0.00000000000E+00 0.  1.
<scales pt_clust_3="46.60838" pt_clust_4="100.55367" pt_clust_5="14000.00000" pt_clust_6="67.47411"></scales>
<clustering>
<clus scale="   46.608">  2  3  1 -1</clus>
<clus scale="   67.474">  2  6  1 -1</clus>
<clus scale="  100.554">  1  4  2 -1</clus>
<clus scale="  100.554">  1  3  2 -1</clus>
</clustering>
</event>
<event>
 6    0  0.1438923E+002  0.8140869E+02  0.7546771E-02  0.1325101E+00
         21   -1    0    0  503  501  0.00000000000E+00  0.00000000000E+00  0.53028891513E+02  0.53028891513E+02  0.00000000000E+00 0.  1.
         21   -1    0    0  505  502 -0.00000000000E+00 -0.00000000000E+00 -0.49876298298E+03  0.49876298298E+03  0.00000000000E+00 0.  1.
         21    1    1    2  503  506  0.34697199537E+02  0.62693775964E+01  0.10718590147E+02  0.36852258084E+02  0.00000000000E+00 0.  1.
         21    1    1    2  504  501 -0.36757822560E+02 -0.44415749035E+02 -0.80555061612E+02  0.99060659361E+02  0.00000000000E+00 0.  1.
         21    1    1    2  505  504  0.61702028324E+02 -0.28941554662E+02 -0.72601366950E+02  0.99577670030E+02  0.00000000000E+00 0.  1.
         21    1    1    2  506  502 -0.59641405301E+02  0.67087926100E+02 -0.30329625305E+03  0.31630128702E+03  0.00000000000E+00 0.  1.
<scales pt_clust_3="35.25905" pt_clust_4="49.64938" pt_clust_5="81.40869" pt_clust_6="14000.00000"></scales>
<clustering>
<clus scale="   35.259">  1  3  2 -1</clus>
<clus scale="   49.649">  1  4  2 -1</clus>
<clus scale="   81.409">  1  5  2 -1</clus>
<clus scale="   35.259">  1  3  2 -1</clus>
</clustering>
</event>
<event>
 6    0  0.1438923E+002  0.7493052E+02  0.7546771E-02  0.1344086E+00
         21   -1    0    0  504  501  0.00000000000E+00  0.00000000000E+00  0.42169853553E+03  0.42169853553E+03  0.00000000000E+00 0. -1.
         21   -1    0    0  506  502 -0.00000000000E+00 -0.00000000000E+00 -0.21894441207E+03  0.21894441207E+03  0.00000000000E+00 0.  1.
         21    1    1    2  503  502 -0.11961693039E+03  0.12427447933E+02  0.11335995689E+03  0.16526684883E+03  0.00000000000E+00 0.  1.
         21    1    1    2  504  505  0.19313332843E+02 -0.27020148604E+02  0.99373131771E+02  0.10477648865E+03  0.00000000000E+00 0.  1.
         21    1    1    2  505  503  0.28653253077E+02  0.26653830114E+02  0.17108372306E+03  0.17550235288E+03  0.00000000000E+00 0. -1.
         21    1    1    2  506  501  0.71650344466E+02 -0.12061129443E+02 -0.18106268825E+03  0.19509725724E+03  0.00000000000E+00 0.  1.
<scales pt_clust_3="74.93052" pt_clust_4="33.21285" pt_clust_5="40.92464" pt_clust_6="14000.00000"></scales>
<clustering>
<clus scale="   33.213">  1  4  2 -1</clus>
<clus scale="   40.925">  1  5  2 -1</clus>
<clus scale="   74.931">  1  3  2 -1</clus>
<clus scale="   33.213">  1  3  2 -1</clus>
</clustering>
</event>
<event>
 6    0  0.1438923E+002  0.1676995E+03  0.7546771E-02  0.1180268E+00
         21   -1    0    0  503  501  0.00000000000E+00  0.00000000000E+00  0.94906284382E+03  0.94906284382E+03  0.00000000000E+00 0.  1.
         21   -1    0    0  505  502 -0.00000000000E+00 -0.00000000000E+00 -0.76470113833E+02  0.76470113833E+02  0.00000000000E+00 0.  1.
         21    1    1    2  503  502 -0.14932506635E+03  0.79734264147E+02  0.42334573114E+03  0.45593545201E+03  0.00000000000E+00 0.  1.
         21    1    1    2  504  506  0.14229684723E+03 -0.13206153927E+03  0.21333834771E+03  0.28844738427E+03  0.00000000000E+00 0.  1.
         21    1    1    2  505  504 -0.25144721785E+02  0.40878531193E+02  0.55942297861E+01  0.48317768503E+02  0.00000000000E+00 0.  1.
         21    1    1    2  506  501  0.32172940906E+02  0.11448743933E+02  0.23031442135E+03  0.23283235288E+03  0.00000000000E+00 0.  1.
<scales pt_clust_3="14000.00000" pt_clust_4="167.69951" pt_clust_5="47.74240" pt_clust_6="34.14926"></scales>
<clustering>
<clus scale="   34.149">  1  6  2 -1</clus>
<clus scale="   47.742">  2  5  1 -1</clus>
<clus scale="  167.700">  2  4  1 -1</clus>
<clus scale="   34.149">  1  3  2 -1</clus>
</clustering>
</event>
<event>
 6    0  0.1438923E+002  0.1735257E+03  0.7546771E-02  0.1174220E+00
         21   -1    0    0  506  501  0.00000000000E+00  0.00000000000E+00  0.24326533001E+02  0.24326533001E+02  0.00000000000E+00 0. -1.
         21   -1    0    0  503  502 -0.00000000000E+00 -0.00000000000E+00 -0.17804755012E+04  0.17804755012E+04  0.00000000000E+00 0. -1.
         21    1    1    2  503  505 -0.27278488560E+02  0.17759393067E+02 -0.18770016895E+03  0.19050161523E+03  0.00000000000E+00 0. -1.
         21    1    1    2  504  502 -0.16229307625E+02 -0.90795288283E+02 -0.23502569453E+03  0.25247624025E+03  0.00000000000E+00 0. -1.
         21    1    1    2  505  501  0.96054368685E+02  0.13655189446E+03 -0.11310576423E+04  0.11433128408E+04  0.00000000000E+00 0. -1.
         21    1    1    2  506  504 -0.52546572499E+02 -0.63515999248E+02 -0.20236546240E+03  0.21851133795E+03  0.00000000000E+00 0. -1.
<scales pt_clust_3="32.55015" pt_clust_4="42.60277" pt_clust_5="167.73492" pt_clust_6="42.60277"></scales>
<clustering>
<clus scale="   32.550">  2  3  1 -1</clus>
<clus scale="   42.603">  4  6 -1 -1</clus>
<clus scale="  167.735">  2  5  1 -1</clus>
<clus scale="  173.526">  1  3  2 -1</clus>
</clustering>
</event>
<event>
 6    0  0.1438923E+002  0.1369304E+03  0.7546771E-02  0.1217520E+00
         21   -1    0    0  505  501  0.00000000000E+00  0.00000000000E+00  0.11837507953E+04  0.11837507953E+04  0.00000000000E+00 0. -1.
         21   -1    0    0  504  502 -0.00000000000E+00 -0.00000000000E+00 -0.44405801091E+02  0.44405801091E+02  0.00000000000E+00 0. -1.
         21    1    1    2  503  502 -0.83286865436E+01  0.11183814372E+03  0.37632285336E+03  0.39267801997E+03  0.00000000000E+00 0. -1.
         21    1    1    2  504  506 -0.25819033133E+02 -0.15884973658E+03  0.32706339000E+03  0.36451381642E+03  0.00000000000E+00 0. -1.
         21    1    1    2  505  503  0.89002668428E+02  0.72565510941E+02  0.24357734617E+03  0.26929008881E+03  0.00000000000E+00 0. -1.
         21    1    1    2  506  501 -0.54854948751E+02 -0.25553918085E+02  0.19238140472E+03  0.20167467122E+03  0.00000000000E+00 0. -1.
<scales pt_clust_3="136.93043" pt_clust_4="14000.00000" pt_clust_5="99.66497" pt_clust_6="60.51502"></scales>
<clustering>
<clus scale="   60.515">  1  6  2 -1</clus>
<clus scale="   99.665">  1  5  2 -1</clus>
<clus scale="  136.930">  1  3  2 -1</clus>
<clus scale="   60.515">  1  3  2 -1</clus>
</clustering>
</event>
<event>
 6    0  0.1438923E+002  0.2285731E+03  0.7546771E-02  0.1127648E+00
         21   -1    0    0  505  501  0.00000000000E+00  0.00000000000E+00  0.22309692767E+04  0.22309692767E+04  0.00000000000E+00 0. -1.
         21   -1    0    0  506  502 -0.00000000000E+00 -0.00000000000E+00 -0.26720754407E+02  0.26720754407E+02  0.00000000000E+00 0. -1.
         21    1    1    2  503  501  0.33356852827E+02  0.14722083521E+01  0.25497951474E+03  0.25715637259E+03  0.00000000000E+00 0. -1.
         21    1    1    2  504  502  0.29749577885E+02 -0.69847842276E+02  0.24982324009E+03  0.26110421242E+03  0.00000000000E+00 0.  1.
         21    1    1    2  505  504 -0.10070162545E+01 -0.14627833925E+03  0.73797527651E+03  0.75233361972E+03  0.00000000000E+00 0. -1.
         21    1    1    2  506  503 -0.62099414458E+02  0.21465397318E+03  0.96147049091E+03  0.98709582633E+03  0.00000000000E+00 0. -1.
<scales pt_clust_3="33.38933" pt_clust_4="44.74034" pt_clust_5="44.74034" pt_clust_6="220.16352"></scales>
<clustering>
<clus scale="   33.389">  1  3  2 -1</clus>
<clus scale="   44.740">  4  5 -1 -1</clus>
<clus scale="  220.164">  1  6  2 -1</clus>
<clus scale="   33.389">  1  3  2 -1</clus>
</clustering>
</event>
<event>
 6    0  0.1438923E+002  0.1408568E+03  0.7546771E-02  0.1212181E+00
         21   -1    0    0  505  501  0.00000000000E+00  0.00000000000E+00  0.12756030812E+04  0.12756030812E+04  0.00000000000E+00 0.  1.
         21   -1    0    0  501  502 -0.00000000000E+00 -0.00000000000E+00 -0.11043815726E+03  0.11043815726E+03  0.00000000000E+00 0.  1.
         21    1    1    2  503  506 -0.47842273546E+02 -0.44106714335E+02  0.29184958758E+03  0.29901583095E+03  0.00000000000E+00 0.  1.
         21    1    1    2  504  503 -0.21482400189E+02 -0.93295666818E+02  0.27544277551E+03  0.29160640862E+03  0.00000000000E+00 0.  1.
         21    1    1    2  505  504 -0.71427275050E+01  0.36174320720E+02  0.65517678498E+03  0.65621354727E+03  0.00000000000E+00 0.  1.
         21    1    1    2  506  502  0.76467401240E+02  0.10122806043E+03 -0.57304224100E+02  0.13920545166E+03  0.00000000000E+00 0.  1.
<scales pt_clust_3="48.87098" pt_clust_4="48.87098" pt_clust_5="36.87275" pt_clust_6="128.49885"></scales>
<clustering>
<clus scale="   36.873">  1  5  2 -1</clus>
<clus scale="   48.871">  3  4 -1 -1</clus>
<clus scale="  128.499">  2  6  1 -1</clus>
<clus scale="   36.873">  1  3  2 -1</clus>
</clustering>
</event>
<event>
 6    0  0.1438923E+002  0.1006161E+03  0.7546771E-02  0.1279006E+00
         21   -1    0    0  503  501  0.00000000000E+00  0.00000000000E+00  0.22440357071E+03  0.22440357071E+03  0.00000000000E+00 0. -1.
         21   -1    0    0  505  502 -0.00000000000E+00 -0.00000000000E+00 -0.20495975574E+04  0.20495975574E+04  0.00000000000E+00 0.  1.
         21    1    1    2  503  504  0.54393269165E+02 -0.39711858528E+02  0.65326239032E+02  0.93825246839E+02  0.00000000000E+00 0.  1.
         21    1    1    2  504  502  0.24899661936E+02  0.28749408586E+02 -0.19095568659E+04  0.19099355869E+04  0.00000000000E+00 0.  1.
         21    1    1    2  505  506 -0.48402296718E+02  0.83318173484E+02 -0.92618207666E+02  0.13365190890E+03  0.00000000000E+00 0.  1.
         21    1    1    2  506  501 -0.30890634383E+02 -0.72355723542E+02  0.11165484785E+03  0.13658838556E+03  0.00000000000E+00 0. -1.
<scales pt_clust_3="67.77918" pt_clust_4="38.03317" pt_clust_5="14000.00000" pt_clust_6="100.61615"></scales>
<clustering>
<clus scale="   38.033">  2  4  1 -1</clus>
<clus scale="   67.779">  1  3  2 -1</clus>
<clus scale="  100.616">  1  6  2 -1</clus>
<clus scale="   67.779">  1  3  2 -1</clus>
</clustering>
</event>
<event>
 6    0  0.1438923E+002  0.1090167E+03  0.7546771E-02  0.1262402E+00
         21   -1    0    0  503  501  0.00000000000E+00  0.00000000000E+00  0.26365236825E+02  0.26365236825E+02  0.00000000000E+00 0. -1.
         21   -1    0    0  505  502 -0.00000000000E+00 -0.00000000000E+00 -0.16870946050E+04  0.16870946050E+04  0.00000000000E+00 0. -1.
         21    1    1    2  503  506 -0.52788821021E+02 -0.96897579859E+02 -0.33283155483E+03  0.35064603876E+03  0.00000000000E+00 0. -1.
         21    1    1    2  504  501  0.66309412264E+01  0.11213026197E+03 -0.20235647572E+03  0.23144180326E+03  0.00000000000E+00 0. -1.
         21    1    1    2  505  504 -0.30298250206E+02 -0.75638770294E+01 -0.17786453329E+03  0.18058512786E+03  0.00000000000E+00 0. -1.
         21    1    1    2  506  502  0.76456130000E+02 -0.76688050837E+01 -0.94767680436E+03  0.95078687197E+03  0.00000000000E+00 0. -1.
<scales pt_clust_3="109.01674" pt_clust_4="14000.00000" pt_clust_5="31.22813" pt_clust_6="58.71374"></scales>
<clustering>
<clus scale="   31.228">  2  5  1 -1</clus>
<clus scale="   58.714">  2  6  1 -1</clus>
<clus scale="  109.017">  2  3  1 -1</clus>
<clus scale="  109.017">  1  3  2 -1</clus>
</clustering>
</event>
<event>
 6    0  0.1438923E+002  0.1184838E+03  0.7546771E-02  0.1245619E+00
         21   -1    0    0  503  501  0.00000000000E+00  0.00000000000E+00  0.45696620192E+03  0.45696620192E+03  0.00000000000E+00 0.  1.
         21   -1    0    0  501  502 -0.00000000000E+00 -0.00000000000E+00 -0.60771040857E+03  0.60771040857E+03  0.00000000000E+00 0.  1.
         21    1    1    2  503  505 -0.68318337765E+02  0.75389277229E+01  0.18585190528E+03  0.19815438779E+03  0.00000000000E+00 0.  1.
         21    1    1    2  504  502  0.73743688769E+00 -0.71966226186E+02 -0.10318942010E+03  0.12580833814E+03  0.00000000000E+00 0.  1.
         21    1    1    2  505  506 -0.42991363429E+02 -0.12638933004E+01  0.24324346699E+03  0.24701667755E+03  0.00000000000E+00 0.  1.
         21    1    1    2  506  504  0.11057226431E+03  0.65691191763E+02 -0.47665015882E+03  0.49369720701E+03  0.00000000000E+00 0.  1.
<scales pt_clust_3="31.89017" pt_clust_4="71.97000" pt_clust_5="31.89017" pt_clust_6="111.41457"></scales>
<clustering>
<clus scale="   31.890">  3  5 -1 -1</clus>
<clus scale="   71.970">  2  4  1 -1</clus>
<clus scale="  111.415">  2  6  1 -1</clus>
<clus scale="  118.484">  1  3  2 -1</clus>
</clustering>
</event>
<event>
 6    0  0.1438923E+002  0.7175310E+02  0.7546771E-02  0.1354231E+00
         21   -1    0    0  504  501  0.00000000000E+00  0.00000000000E+00  0.10547225860E+04  0.10547225860E+04  0.00000000000E+00 0.  1.
         21   -1    0    0  506  502 -0.00000000000E+00 -0.00000000000E+00 -0.86986344733E+02  0.86986344733E+02  0.00000000000E+00 0.  1.
         21    1    1    2  503  501 -0.35015189013E+02  0.21630111925E+02  0.32394686064E+03  0.32655090526E+03  0.00000000000E+00 0.  1.
         21    1    1    2  504  505 -0.22998025054E+02 -0.69291109125E+02  0.52611282915E+03  0.53115428640E+03  0.00000000000E+00 0.  1.
         21    1    1    2  505  502  0.54183864194E+02 -0.36367629288E+02 -0.59222842050E+02  0.88124007055E+02  0.00000000000E+00 0.  1.
         21    1    1    2  506  503  0.38293498728E+01  0.84028626487E+02  0.17689939353E+03  0.19587973203E+03  0.00000000000E+00 0.  1.
<scales pt_clust_3="41.15732" pt_clust_4="14000.00000" pt_clust_5="64.44243" pt_clust_6="71.75310"></scales>
<clustering>
<clus scale="   41.157">  1  3  2 -1</clus>
<clus scale="   64.442">  2  5  1 -1</clus>
<clus scale="   71.753">  2  6  1 -1</clus>
<clus scale="   41.157">  1  3  2 -1</clus>
</clustering>
</event>
<event>
 6    0  0.1438923E+002  0.1373851E+03  0.7546771E-02  0.1216891E+00
         21   -1    0    0  504  501  0.00000000000E+00  0.00000000000E+00  0.39359679860E+03  0.39359679860E+03  0.00000000000E+00 0. -1.
         21   -1    0    0  505  502 -0.00000000000E+00 -0.00000000000E+00 -0.93656067043E+03  0.93656067043E+03  0.00000000000E+00 0.  1.
         21    1    1    2  503  506  0.52941556357E+02 -0.75261573248E+02  0.40777104789E+02  0.10064733018E+03  0.00000000000E+00 0.  1.
         21    1    1    2  504  503  0.35754951801E+02 -0.16639642767E+02  0.10511244526E+03  0.11226718326E+03  0.00000000000E+00 0. -1.
         21    1    1    2  505  501  0.37549880457E+02  0.27409058681E+02  0.20602500111E+03  0.21120499782E+03  0.00000000000E+00 0. -1.
         21    1    1    2  506  502 -0.12624638862E+03  0.64492157335E+02 -0.89487842299E+03  0.90603795777E+03  0.00000000000E+00 0.  1.
<scales pt_clust_3="14000.00000" pt_clust_4="39.43722" pt_clust_5="65.52383" pt_clust_6="137.38507"></scales>
<clustering>
<clus scale="   39.437">  1  4  2 -1</clus>
<clus scale="   65.524">  1  5  2 -1</clus>
<clus scale="  137.385">  2  6  1 -1</clus>
<clus scale="   39.437">  1  3  2 -1</clus>
</clustering>
</event>
<event>
 6    0  0.1438923E+002  0.1207685E+03  0.7546771E-02  0.1241835E+00
         21   -1    0    0  503  501  0.00000000000E+00  0.00000000000E+00  0.66607151956E+02  0.66607151956E+02  0.00000000000E+00 0. -1.
         21   -1    0    0  504  502 -0.00000000000E+00 -0.00000000000E+00 -0.15635787426E+04  0.15635787426E+04  0.00000000000E+00 0. -1.
         21    1    1    2  503  505  0.46123413382E+00  0.58190103056E+02 -0.15562895425E+02  0.60237069522E+02  0.00000000000E+00 0. -1.
         21    1    1    2  504  506 -0.93870598090E+02 -0.68926299132E+02 -0.18475701073E+03  0.21839797827E+03  0.00000000000E+00 0. -1.
         21    1    1    2  505  502 -0.31841778040E+02 -0.10393263454E+02 -0.11756297397E+04  0.11761067994E+04  0.00000000000E+00 0. -1.
         21    1    1    2  506  501  0.12525114200E+03  0.21129459529E+02 -0.12102194479E+03  0.17544404735E+03  0.00000000000E+00 0. -1.
<scales pt_clust_3="57.23557" pt_clust_4="120.76849" pt_clust_5="33.49506" pt_clust_6="14000.00000"></scales>
<clustering>
<clus scale="   33.495">  2  5  1 -1</clus>
<clus scale="   57.236">  1  3  2 -1</clus>
<clus scale="  120.768">  2  4  1 -1</clus>
<clus scale="   57.236">  1  3  2 -1</clus>
</clustering>
</event>
<event>
 6    0  0.1438923E+002  0.1162315E+03  0.7546771E-02  0.1249447E+00
         21   -1    0    0  505  501  0.00000000000E+00  0.00000000000E+00  0.34985059477E+02  0.34985059477E+02  0.00000000000E+00 0. -1.
         21   -1    0    0  504  502 -0.00000000000E+00 -0.00000000000E+00 -0.67303828887E+03  0.67303828887E+03  0.00000000000E+00 0. -1.
         21    1    1    2  503  502  0.17400850180E+02  0.12527047675E+03 -0.41980528208E+03  0.43844264938E+03  0.00000000000E+00 0. -1.
         21    1    1    2  504  506 -0.23108161575E+01 -0.38238648433E+02 -0.78121647575E+02  0.87008769243E+02  0.00000000000E+00 0. -1.
         21    1    1    2  505  503 -0.45698280077E+02 -0.39423362484E+02 -0.75733773961E+02  0.96840791147E+02  0.00000000000E+00 0. -1.
         21    1    1    2  506  501  0.30608246054E+02 -0.47608465837E+02 -0.64392525782E+02  0.85731138581E+02  0.00000000000E+00 0. -1.
<scales pt_clust_3="110.23362" pt_clust_4="30.32099" pt_clust_5="60.35341" pt_clust_6="30.32099"></scales>
<clustering>
<clus scale="   30.321">  4  6 -1 -1</clus>
<clus scale="   60.353">  1  5  2 -1</clus>
<clus scale="  110.234">  2  3  1 -1</clus>
<clus scale="   60.353">  1  3  2 -1</clus>
</clustering>
</event>
<event>
 6    0  0.1438923E+002  0.9937874E+02  0.7546771E-02  0.1281608E+00
         21   -1    0    0  503  501  0.00000000000E+00  0.00000000000E+00  0.24978232484E+03  0.24978232484E+03  0.00000000000E+00 0.  1.
         21   -1    0    0  506  502 -0.00000000000E+00 -0.00000000000E+00 -0.18332821265E+04  0.18332821265E+04  0.00000000000E+00 0.  1.
         21    1    1    2  503  504 -0.51025941113E+02  0.58524864110E+01 -0.33083088536E+02  0.61093281224E+02  0.00000000000E+00 0. -1.
         21    1    1    2  504  502 -0.17614468579E+02 -0.26243016436E+02 -0.17276171267E+04  0.17279062190E+04  0.00000000000E+00 0.  1.
         21    1    1    2  505  501  0.99711955164E+02 -0.51924755942E+02  0.18339870592E+03  0.21511331808E+03  0.00000000000E+00 0.  1.
         21    1    1    2  506  505 -0.31071545472E+02  0.72315285967E+02 -0.61982923556E+01  0.78951632983E+02  0.00000000000E+00 0.  1.
<scales pt_clust_3="59.17704" pt_clust_4="31.60641" pt_clust_5="99.37874" pt_clust_6="14000.00000"></scales>
<clustering>
<clus scale="   31.606">  2  4  1 -1</clus>
<clus scale="   59.177">  2  3  1 -1</clus>
<clus scale="   99.379">  1  5  2 -1</clus>
<clus scale="   99.379">  1  3  2 -1</clus>
</clustering>
</event>
<event>
 6    0  0.1438923E+002  0.1496056E+03  0.7546771E-02  0.1200958E+00
         21   -1    0    0  502  501  0.00000000000E+00  0.00000000000E+00  0.26819498372E+03  0.26819498372E+03  0.00000000000E+00 0. -1.
         21   -1    0    0  505  502 -0.00000000000E+00 -0.00000000000E+00 -0.30608957695E+03  0.30608957695E+03  0.00000000000E+00 0. -1.
         21    1    1    2  503  506 -0.98728071460E+02  0.72347318729E+02 -0.16298307847E+02  0.12347874902E+03  0.00000000000E+00 0. -1.
         21    1    1    2  504  501  0.46873829561E+02 -0.46772769985E+01  0.81308099600E+02  0.93968291878E+02  0.00000000000E+00 0. -1.
         21    1    1    2  505  503 -0.38736000808E+02 -0.98367953962E+01 -0.20484381274E+03  0.20870608021E+03  0.00000000000E+00 0. -1.
         21    1    1    2  506  504  0.90590242706E+02 -0.57833246334E+02  0.10193942775E+03  0.14813143956E+03  0.00000000000E+00 0. -1.
<scales pt_clust_3="141.96177" pt_clust_4="31.25417" pt_clust_5="39.96549" pt_clust_6="31.25417"></scales>
<clustering>
<clus scale="   31.254">  4  6 -1 -1</clus>
<clus scale="   39.965">  2  5  1 -1</clus>
<clus scale="  141.962">  2  3  1 -1</clus>
<clus scale="  149.606">  1  3  2 -1</clus>
</clustering>
</event>
<event>
 6    0  0.1438923E+002  0.1662663E+03  0.7546771E-02  0.1181798E+00
         21   -1    0    0  503  501  0.00000000000E+00  0.00000000000E+00  0.47387122714E+03  0.47387122714E+03  0.00000000000E+00 0. -1.
         21   -1    0    0  506  502 -0.00000000000E+00 -0.00000000000E+00 -0.70850793537E+02  0.70850793537E+02  0.00000000000E+00 0. -1.
         21    1    1    2  503  504 -0.87556487365E+02  0.39954650165E+02  0.10139470672E+03  0.13979770778E+03  0.00000000000E+00 0. -1.
         21    1    1    2  504  502 -0.60623901564E+02 -0.77470211730E+01  0.22472488610E+02  0.65117482462E+02  0.00000000000E+00 0. -1.
         21    1    1    2  505  501 -0.41715542874E+00  0.30502821829E+02  0.64125656808E+02  0.71011942793E+02  0.00000000000E+00 0.  1.
         21    1    1    2  506  505  0.14859754436E+03 -0.62710450821E+02  0.21502758146E+03  0.26879488764E+03  0.00000000000E+00 0. -1.
<scales pt_clust_3="47.03138" pt_clust_4="47.03138" pt_clust_5="30.50567" pt_clust_6="154.89385"></scales>
<clustering>
<clus scale="   30.506">  1  5  2 -1</clus>
<clus scale="   47.031">  3  4 -1 -1</clus>
<clus scale="  154.894">  1  6  2 -1</clus>
<clus scale="   30.506">  1  3  2 -1</clus>
</clustering>
</event>
<event>
 6    0  0.1438923E+002  0.9205210E+02  0.7546771E-02  0.1297957E+00
         21   -1    0    0  506  501  0.00000000000E+00  0.00000000000E+00  0.85609398368E+03  0.85609398368E+03  0.00000000000E+00 0.  1.
         21   -1    0    0  503  502 -0.00000000000E+00 -0.00000000000E+00 -0.82685464656E+03  0.82685464656E+03  0.00000000000E+00 0.  1.
         21    1    1    2  503  501  0.49861488769E+02 -0.44903863175E+02 -0.80115080979E+03  0.80395593474E+03  0.00000000000E+00 0.  1.
         21    1    1    2  504  505  0.52386060451E+02  0.70430254846E+02  0.45901295969E+03  0.46733030856E+03  0.00000000000E+00 0.  1.
         21    1    1    2  505  502 -0.77461890404E+02 -0.51704081450E+02  0.95333411025E+02  0.13327458783E+03  0.00000000000E+00 0. -1.
         21    1    1    2  506  504 -0.24785658816E+02  0.26177689779E+02  0.27604377618E+03  0.27838779911E+03  0.00000000000E+00 0.  1.
<scales pt_clust_3="67.01379" pt_clust_4="14000.00000" pt_clust_5="92.05210" pt_clust_6="36.04997"></scales>
<clustering>
<clus scale="   36.050">  1  6  2 -1</clus>
<clus scale="   67.014">  2  3  1 -1</clus>
<clus scale="   92.052">  2  5  1 -1</clus>
<clus scale="   36.050">  1  3  2 -1</clus>
</clustering>
</event>
<event>
 6    0  0.1438923E+002  0.1314498E+03  0.7546771E-02  0.1225320E+00
         21   -1    0    0  505  501  0.00000000000E+00  0.00000000000E+00  0.33024477036E+03  0.33024477036E+03  0.00000000000E+00 0.  1.
         21   -1    0    0  504  502 -0.00000000000E+00 -0.00000000000E+00 -0.31986901527E+03  0.31986901527E+03  0.00000000000E+00 0.  1.
         21    1    1    2  503  502  0.23695139541E+02 -0.25538722631E+02 -0.17210628594E+03  0.17559686686E+03  0.00000000000E+00 0.  1.
         21    1    1    2  504  501 -0.13277843685E+03  0.79005740583E+02 -0.86068558766E+02  0.17686101081E+03  0.00000000000E+00 0.  1.
         21    1    1    2  505  506  0.46880590146E+02 -0.14918671637E+02  0.15452801895E+03  0.16217048171E+03  0.00000000000E+00 0.  1.
         21    1    1    2  506  503  0.62202707166E+02 -0.38548346315E+02  0.11402258085E+03  0.13548542625E+03  0.00000000000E+00 0. -1.
<scales pt_clust_3="34.83800" pt_clust_4="124.72903" pt_clust_5="34.02194" pt_clust_6="34.02194"></scales>
<clustering>
<clus scale="   34.022">  5  6 -1 -1</clus>
<clus scale="   34.838">  2  3  1 -1</clus>
<clus scale="  124.729">  2  4  1 -1</clus>
<clus scale="  131.450">  1  3  2 -1</clus>
</clustering>
</event>
<event>
 6    0  0.1438923E+002  0.1511793E+03  0.7546771E-02  0.1199031E+00
         21   -1    0    0  504  501  0.00000000000E+00  0.00000000000E+00  0.95349734375E+03  0.95349734375E+03  0.00000000000E+00 0.  1.
         21   -1    0    0  506  502 -0.00000000000E+00 -0.00000000000E+00 -0.10144201405E+03  0.10144201405E+03  0.00000000000E+00 0.  1.
         21    1    1    2  503  502 -0.66598413184E+02  0.22824864796E+02  0.14623642227E+03  0.16230038290E+03  0.00000000000E+00 0.  1.
         21    1    1    2  504  505  0.32947387449E+02  0.35848943679E+01  0.35986999798E+03  0.36139285723E+03  0.00000000000E+00 0. -1.
         21    1    1    2  505  503 -0.10176218392E+03 -0.93776898719E+01  0.37756602135E+03  0.39115161207E+03  0.00000000000E+00 0.  1.
         21    1    1    2  506  501  0.13541320966E+03 -0.17032069292E+02 -0.31617111903E+02  0.14009450560E+03  0.00000000000E+00 0.  1.
<scales pt_clust_3="51.49922" pt_clust_4="33.14184" pt_clust_5="51.49922" pt_clust_6="139.43162"></scales>
<clustering>
<clus scale="   33.142">  1  4  2 -1</clus>
<clus scale="   51.499">  3  5 -1 -1</clus>
<clus scale="  139.432">  2  6  1 -1</clus>
<clus scale="   33.142">  1  3  2 -1</clus>
</clustering>
</event>
<event>
 6    0  0.1438923E+002  0.8656748E+02  0.7546771E-02  0.1311384E+00
         21   -1    0    0  505  501  0.00000000000E+00  0.00000000000E+00  0.21166375448E+03  0.21166375448E+03  0.00000000000E+00 0.  1.
         21   -1    0    0  504  502 -0.00000000000E+00 -0.00000000000E+00 -0.21728019140E+03  0.21728019140E+03  0.00000000000E+00 0. -1.
         21    1    1    2  503  501 -0.18873554488E+01  0.48081737256E+02  0.54344338162E+02  0.72585967365E+02  0.00000000000E+00 0.  1.
         21    1    1    2  504  503 -0.59791695130E+02 -0.52353588439E+01 -0.37266551500E+01  0.60136043663E+02  0.00000000000E+00 0.  1.
         21    1    1    2  505  506 -0.26723253469E+02  0.23428573331E+02  0.99283328955E+02  0.10545240506E+03  0.00000000000E+00 0.  1.
         21    1    1    2  506  502  0.88402304048E+02 -0.66274951743E+02 -0.15551744889E+03  0.19076952980E+03  0.00000000000E+00 0. -1.
<scales pt_clust_3="64.09446" pt_clust_4="14000.00000" pt_clust_5="35.53914" pt_clust_6="86.56748"></scales>
<clustering>
<clus scale="   35.539">  1  5  2 -1</clus>
<clus scale="   64.094">  1  3  2 -1</clus>
<clus scale="   86.567">  2  6  1 -1</clus>
<clus scale="   35.539">  1  3  2 -1</clus>
</clustering>
</event>
<event>
 6    0  0.1438923E+002  0.1003871E+03  0.7546771E-02  0.1279484E+00
         21   -1    0    0  505  501  0.00000000000E+00  0.00000000000E+00  0.17320797080E+02  0.17320797080E+02  0.00000000000E+00 0.  1.
         21   -1    0    0  503  502 -0.00000000000E+00 -0.00000000000E+00 -0.20766874132E+04  0.20766874132E+04  0.00000000000E+00 0.  1.
         21    1    1    2  503  504  0.16154334542E+02  0.51883834426E+02 -0.14146455498E+04  0.14156888522E+04  0.00000000000E+00 0.  1.
         21    1    1    2  504  501 -0.59605190161E+02  0.48467037728E+02 -0.15088731628E+03  0.16931867780E+03  0.00000000000E+00 0.  1.
         21    1    1    2  505  506  0.22084938819E+01 -0.65304974518E+02 -0.33162709707E+03  0.33800317846E+03  0.00000000000E+00 0.  1.
         21    1    1    2  506  502  0.41242361737E+02 -0.35045897636E+02 -0.16220665306E+03  0.17099750185E+03  0.00000000000E+00 0.  1.
<scales pt_clust_3="54.34054" pt_clust_4="82.61917" pt_clust_5="51.89669" pt_clust_6="51.89669"></scales>
<clustering>
<clus scale="   51.897">  5  6 -1 -1</clus>
<clus scale="   54.341">  2  3  1 -1</clus>
<clus scale="   82.619">  1  4  2 -1</clus>
<clus scale="   82.619">  1  3  2 -1</clus>
</clustering>
</event>
<event>
 6    0  0.1438923E+002  0.9615473E+02  0.7546771E-02  0.1288596E+00
         21   -1    0    0  503  501  0.00000000000E+00  0.00000000000E+00  0.36419943710E+03  0.36419943710E+03  0.00000000000E+00 0.  1.
         21   -1    0    0  505  502 -0.00000000000E+00 -0.00000000000E+00 -0.47489866965E+03  0.47489866965E+03  0.00000000000E+00 0. -1.
         21    1    1    2  503  506 -0.10482673815E+03 -0.26230727421E+02  0.20354099629E+03  0.23044659525E+03  0.00000000000E+00 0.  1.
         21    1    1    2  504  501  0.78338501772E+02 -0.29136787847E+02  0.40112882245E+02  0.92708772982E+02  0.00000000000E+00 0. -1.
         21    1    1    2  505  504  0.22344624241E+02 -0.27720704182E+02 -0.41276162941E+03  0.41429443924E+03  0.00000000000E+00 0. -1.
         21    1    1    2  506  502  0.41436121351E+01  0.83088219449E+02  0.58408518322E+02  0.10164829927E+03  0.00000000000E+00 0.  1.
<scales pt_clust_3="96.15473" pt_clust_4="14000.00000" pt_clust_5="35.60505" pt_clust_6="74.30060"></scales>
<clustering>
<clus scale="   35.605">  2  5  1 -1</clus>
<clus scale="   74.301">  2  6  1 -1</clus>
<clus scale="   96.155">  1  3  2 -1</clus>
<clus scale="   96.155">  1  3  2 -1</clus>
</clustering>
</event>
<event>
 6    0  0.1438923E+002  0.1095728E+03  0.7546771E-02  0.1261363E+00
         21   -1    0    0  506  501  0.00000000000E+00  0.00000000000E+00  0.12490578211E+03  0.12490578211E+03  0.00000000000E+00 0.  1.
         21   -1    0    0  503  502 -0.00000000000E+00 -0.00000000000E+00 -0.15261486445E+03  0.15261486445E+03  0.00000000000E+00 0. -1.
         21    1    1    2  503  504  0.60152815452E+01  0.47961171071E+02 -0.27609222202E+02  0.55666207821E+02  0.00000000000E+00 0. -1.
         21    1    1    2  504  505  0.34865614736E+02 -0.50818487086E+02  0.11350912285E+02  0.62665564151E+02  0.00000000000E+00 0.  1.
         21    1    1    2  505  501  0.53181131481E+02 -0.12712817327E+02  0.20856026504E+02  0.58521981439E+02  0.00000000000E+00 0.  1.
         21    1    1    2  506  502 -0.94062027762E+02  0.15570133342E+02 -0.32306798929E+02  0.10066689315E+03  0.00000000000E+00 0. -1.
<scales pt_clust_3="48.33692" pt_clust_4="40.63081" pt_clust_5="40.63081" pt_clust_6="100.72501"></scales>
<clustering>
<clus scale="   40.631">  4  5 -1 -1</clus>
<clus scale="   48.337">  2  3  1 -1</clus>
<clus scale="  100.725">  2  6  1 -1</clus>
<clus scale="  109.573">  1  3  2 -1</clus>
</clustering>
</event>
<event>
 6    0  0.1438923E+002  0.1050845E+03  0.7546771E-02  0.1269953E+00
         21   -1    0    0  504  501  0.00000000000E+00  0.00000000000E+00  0.28823792292E+02  0.28823792292E+02  0.00000000000E+00 0.  1.
         21   -1    0    0  503  502 -0.00000000000E+00 -0.00000000000E+00 -0.57625292105E+03  0.57625292105E+03  0.00000000000E+00 0.  1.
         21    1    1    2  503  501  0.48078245222E+02 -0.19552171048E+02 -0.14936691749E+03  0.15812742045E+03  0.00000000000E+00 0.  1.
         21    1    1    2  504  506 -0.63520016407E+02 -0.29705979114E+01 -0.10574571897E+03  0.12339276322E+03  0.00000000000E+00 0.  1.
         21    1    1    2  505  502  0.47812040976E+02  0.67425745291E+02 -0.19065579265E+03  0.20780243902E+03  0.00000000000E+00 0.  1.
         21    1    1    2  506  505 -0.32370269791E+02 -0.44902976331E+02 -0.10166069964E+03  0.11575409065E+03  0.00000000000E+00 0.  1.
<scales pt_clust_3="51.90188" pt_clust_4="48.36320" pt_clust_5="91.41003" pt_clust_6="48.36320"></scales>
<clustering>
<clus scale="   48.363">  4  6 -1 -1</clus>
<clus scale="   51.902">  2  3  1 -1</clus>
<clus scale="   91.410">  2  5  1 -1</clus>
<clus scale="  105.085">  1  3  2 -1</clus>
</clustering>
</event>
<event>
 6    0  0.1438923E+002  0.2042550E+03  0.7546771E-02  0.1146198E+00
         21   -1    0    0  503  501  0.00000000000E+00  0.00000000000E+00  0.17117345535E+03  0.17117345535E+03  0.00000000000E+00 0. -1.
         21   -1    0    0  504  502 -0.00000000000E+00 -0.00000000000E+00 -0.43979518285E+03  0.43979518285E+03  0.00000000000E+00 0. -1.
         21    1    1    2  503  505 -0.16567441771E+02  0.50468997663E+02  0.12352166406E+02  0.54536005234E+02  0.00000000000E+00 0. -1.
         21    1    1    2  504  506  0.16468435511E+03 -0.14753238328E+03 -0.22706791037E+03  0.31693307946E+03  0.00000000000E+00 0. -1.
         21    1    1    2  505  502 -0.41658752424E+02  0.10840854671E+03 -0.62872629101E+02  0.13206374273E+03  0.00000000000E+00 0. -1.
         21    1    1    2  506  501 -0.10645816092E+03 -0.11345161089E+02  0.89666455571E+01  0.10743581078E+03  0.00000000000E+00 0.  1.
<scales pt_clust_3="40.77345" pt_clust_4="195.15458" pt_clust_5="40.77345" pt_clust_6="107.06098"></scales>
<clustering>
<clus scale="   40.773">  3  5 -1 -1</clus>
<clus scale="  107.061">  1  6  2 -1</clus>
<clus scale="  195.155">  2  4  1 -1</clus>
<clus scale="  107.061">  1  3  2 -1</clus>
</clustering>
</event>
<event>
 6    0  0.1831986E+002  0.1899140E+03  0.7546771E-02  0.1158539E+00
         21   -1    0    0  503  501  0.00000000000E+00  0.00000000000E+00  0.14143635112E+04  0.14143635112E+04  0.00000000000E+00 0.  1.
         21   -1    0    0  505  502 -0.00000000000E+00 -0.00000000000E+00 -0.27649653334E+03  0.27649653334E+03  0.00000000000E+00 0.  1.
         21    1    1    2  503  506 -0.54163437514E+01  0.75726591056E+02 -0.26078505416E+02  0.80274166562E+02  0.00000000000E+00 0.  1.
         21    1    1    2  504  501  0.27422759285E+02 -0.18615464823E+03  0.13598742929E+04  0.13728305260E+04  0.00000000000E+00 0.  1.
         21    1    1    2  505  504 -0.59010351948E+00  0.34904785064E+02 -0.13193495172E+03  0.13647535942E+03  0.00000000000E+00 0.  1.
         21    1    1    2  506  502 -0.21416312014E+02  0.75523272107E+02 -0.63993857857E+02  0.10127999256E+03  0.00000000000E+00 0.  1.
<scales pt_clust_3="34.80219" pt_clust_4="186.58770" pt_clust_5="34.90977" pt_clust_6="34.80219"></scales>
<clustering>
<clus scale="   34.802">  3  6 -1 -1</clus>
<clus scale="   34.910">  2  5  1 -1</clus>
<clus scale="  186.588">  1  4  2 -1</clus>
<clus scale="  186.588">  1  3  2 -1</clus>
</clustering>
</event>
<event>
 6    0  0.1438923E+002  0.6312720E+02  0.7546771E-02  0.1385158E+00
         21   -1    0    0  505  501  0.00000000000E+00  0.00000000000E+00  0.17168718985E+02  0.17168718985E+02  0.00000000000E+00 0. -1.
         21   -1    0    0  503  502 -0.00000000000E+00 -0.00000000000E+00 -0.20278033635E+04  0.20278033635E+04  0.00000000000E+00 0. -1.
         21    1    1    2  503  506  0.40191551641E+02 -0.37480034705E+01 -0.11496325516E+04  0.11503409982E+04  0.00000000000E+00 0. -1.
         21    1    1    2  504  501 -0.45904178399E+02  0.55031451200E+02 -0.17688897529E+03  0.19085429991E+03  0.00000000000E+00 0. -1.
         21    1    1    2  505  502  0.67464356970E+02 -0.97301024251E+00 -0.15998116720E+03  0.17362707182E+03  0.00000000000E+00 0. -1.
         21    1    1    2  506  504 -0.61751730213E+02 -0.50310437487E+02 -0.52413195043E+03  0.53014971260E+03  0.00000000000E+00 0. -1.
<scales pt_clust_3="40.36593" pt_clust_4="14000.00000" pt_clust_5="63.12720" pt_clust_6="64.63475"></scales>
<clustering>
<clus scale="   40.366">  2  3  1 -1</clus>
<clus scale="   64.635">  2  6  1 -1</clus>
<clus scale="   63.127">  1  5  2 -1</clus>
<clus scale="   63.127">  1  3  2 -1</clus>
</clustering>
</event>
<event>
 6    0  0.1438923E+002  0.1598944E+03  0.7546771E-02  0.1188816E+00
         21   -1    0    0  506  501  0.00000000000E+00  0.00000000000E+00  0.27984409645E+03  0.27984409645E+03  0.00000000000E+00 0. -1.
         21   -1    0    0  503  502 -0.00000000000E+00 -0.00000000000E+00 -0.13533132193E+03  0.13533132193E+03  0.00000000000E+00 0. -1.
         21    1    1    2  503  505  0.74328768663E+02 -0.83684377077E+02  0.50063833056E+02  0.12261414355E+03  0.00000000000E+00 0. -1.
         21    1    1    2  504  502  0.30465055270E+02  0.14337013471E+02 -0.41801030871E+02  0.53674907822E+02  0.00000000000E+00 0.  1.
         21    1    1    2  505  501  0.35913271430E+01 -0.37571209181E+02  0.53885557670E+02  0.65788651873E+02  0.00000000000E+00 0. -1.
         21    1    1    2  506  504 -0.10838515108E+03  0.10691857279E+03  0.82364414670E+02  0.17309771513E+03  0.00000000000E+00 0. -1.
<scales pt_clust_3="35.25957" pt_clust_4="33.67001" pt_clust_5="35.25957" pt_clust_6="147.14123"></scales>
<clustering>
<clus scale="   33.670">  2  4  1 -1</clus>
<clus scale="   35.260">  3  5 -1 -1</clus>
<clus scale="  147.141">  2  6  1 -1</clus>
<clus scale="  159.894">  1  3  2 -1</clus>
</clustering>
</event>
<event>
 6    0  0.1438923E+002  0.9942321E+02  0.7546771E-02  0.1281514E+00
         21   -1    0    0  503  501  0.00000000000E+00  0.00000000000E+00  0.28105064298E+03  0.28105064298E+03  0.00000000000E+00 0.  1.
         21   -1    0    0  505  502 -0.00000000000E+00 -0.00000000000E+00 -0.73548884695E+03  0.73548884695E+03  0.00000000000E+00 0.  1.
         21    1    1    2  503  506  0.50905755247E+02 -0.20156510813E+02 -0.14824784976E+02  0.56722615375E+02  0.00000000000E+00 0.  1.
         21    1    1    2  504  502 -0.87720259245E+02  0.46049781914E+02 -0.66153126752E+03  0.66890884596E+03  0.00000000000E+00 0.  1.
         21    1    1    2  505  501 -0.52170150410E+02  0.43648621982E+02  0.12401392715E+03  0.14144391441E+03  0.00000000000E+00 0.  1.
         21    1    1    2  506  504  0.88984654407E+02 -0.69541893082E+02  0.97903921361E+02  0.14946411419E+03  0.00000000000E+00 0.  1.
<scales pt_clust_3="54.75108" pt_clust_4="14000.00000" pt_clust_5="42.41649" pt_clust_6="99.42321"></scales>
<clustering>
<clus scale="   54.751">  1  3  2 -1</clus>
<clus scale="   42.416">  1  5  2 -1</clus>
<clus scale="   99.423">  1  6  2 -1</clus>
<clus scale="   54.751">  1  3  2 -1</clus>
</clustering>
</event>
<event>
 6    0  0.1438923E+002  0.9129735E+02  0.7546771E-02  0.1299740E+00
         21   -1    0    0  505  501  0.00000000000E+00  0.00000000000E+00  0.24970975338E+03  0.24970975338E+03  0.00000000000E+00 0.  1.
         21   -1    0    0  504  502 -0.00000000000E+00 -0.00000000000E+00 -0.34263307596E+03  0.34263307596E+03  0.00000000000E+00 0.  1.
         21    1    1    2  503  502 -0.10598045288E+02 -0.41747480734E+02 -0.23853978725E+03  0.24239719638E+03  0.00000000000E+00 0.  1.
         21    1    1    2  504  501  0.31171079159E+02 -0.10046029522E+03  0.15322086306E+03  0.18585085410E+03  0.00000000000E+00 0.  1.
         21    1    1    2  505  506 -0.21137687267E+02  0.21994854329E+02  0.25107856393E+02  0.39509238066E+02  0.00000000000E+00 0.  1.
         21    1    1    2  506  503  0.56465339492E+00  0.12021292163E+03 -0.32712254791E+02  0.12458554079E+03  0.00000000000E+00 0.  1.
<scales pt_clust_3="42.92932" pt_clust_4="91.29735" pt_clust_5="30.50533" pt_clust_6="14000.00000"></scales>
<clustering>
<clus scale="   30.505">  1  5  2 -1</clus>
<clus scale="   42.929">  2  3  1 -1</clus>
<clus scale="   91.297">  1  4  2 -1</clus>
<clus scale="   30.505">  1  3  2 -1</clus>
</clustering>
</event>
<event>
 6    0  0.1438923E+002  0.1514284E+03  0.7546771E-02  0.1198729E+00
         21   -1    0    0  504  501  0.00000000000E+00  0.00000000000E+00  0.59135883984E+03  0.59135883984E+03  0.00000000000E+00 0. -1.
         21   -1    0    0  501  502 -0.00000000000E+00 -0.00000000000E+00 -0.12203278245E+03  0.12203278245E+03  0.00000000000E+00 0. -1.
         21    1    1    2  503  502 -0.10442144024E+03 -0.10597359989E+03 -0.53261662418E+02  0.15802229507E+03  0.00000000000E+00 0. -1.
         21    1    1    2  504  505  0.55537009150E+02 -0.66425779431E+01  0.18536280266E+03  0.19361779835E+03  0.00000000000E+00 0. -1.
         21    1    1    2  505  506  0.12780755730E+02  0.80051739359E+02  0.18586422219E+03  0.20277361214E+03  0.00000000000E+00 0. -1.
         21    1    1    2  506  503  0.36103675358E+02  0.32564438479E+02  0.15136069496E+03  0.15897791673E+03  0.00000000000E+00 0. -1.
<scales pt_clust_3="144.42688" pt_clust_4="55.93285" pt_clust_5="35.24725" pt_clust_6="35.24725"></scales>
<clustering>
<clus scale="   35.247">  5  6 -1 -1</clus>
<clus scale="   55.933">  1  4  2 -1</clus>
<clus scale="  144.427">  2  3  1 -1</clus>
<clus scale="   55.933">  1  3  2 -1</clus>
</clustering>
</event>
<event>
 6    0  0.1438923E+002  0.9880112E+02  0.7546771E-02  0.1282837E+00
         21   -1    0    0  506  501  0.00000000000E+00  0.00000000000E+00  0.17332311766E+03  0.17332311766E+03  0.00000000000E+00 0.  1.
         21   -1    0    0  503  502 -0.00000000000E+00 -0.00000000000E+00 -0.43410488755E+03  0.43410488755E+03  0.00000000000E+00 0.  1.
         21    1    1    2  503  504  0.10059809445E+02 -0.61334467455E+02 -0.29185107789E+03  0.29839599248E+03  0.00000000000E+00 0.  1.
         21    1    1    2  504  501 -0.72805802361E+02 -0.30792534230E+01  0.98280743384E+02  0.12234897294E+03  0.00000000000E+00 0.  1.
         21    1    1    2  505  502  0.86953170545E+02  0.98918951033E+02 -0.55636878252E+02  0.14297298683E+03  0.00000000000E+00 0.  1.
         21    1    1    2  506  505 -0.24207177629E+02 -0.34505230155E+02 -0.11574557137E+02  0.43710052959E+02  0.00000000000E+00 0.  1.
<scales pt_clust_3="62.78402" pt_clust_4="98.80112" pt_clust_5="14000.00000" pt_clust_6="42.14971"></scales>
<clustering>
<clus scale="   42.150">  1  6  2 -1</clus>
<clus scale="   62.784">  2  3  1 -1</clus>
<clus scale="   98.801">  1  4  2 -1</clus>
<clus scale="   42.150">  1  3  2 -1</clus>
</clustering>
</event>
<event>
 6    0  0.1438923E+002  0.1834275E+03  0.7546771E-02  0.1164526E+00
         21   -1    0    0  506  501  0.00000000000E+00  0.00000000000E+00  0.21983991544E+03  0.21983991544E+03  0.00000000000E+00 0. -1.
         21   -1    0    0  503  502 -0.00000000000E+00 -0.00000000000E+00 -0.28399497575E+03  0.28399497575E+03  0.00000000000E+00 0.  1.
         21    1    1    2  503  501  0.23796191469E+02 -0.17920233003E+03  0.10176375898E+03  0.20745022646E+03  0.00000000000E+00 0. -1.
         21    1    1    2  504  502 -0.42024213587E+02  0.45494201370E+02 -0.55502913125E+02  0.83164477100E+02  0.00000000000E+00 0.  1.
         21    1    1    2  505  504 -0.29004898729E+02  0.11873197248E+03 -0.10881545269E+03  0.16364402887E+03  0.00000000000E+00 0.  1.
         21    1    1    2  506  505  0.47232920847E+02  0.14976156179E+02 -0.16004534838E+01  0.49576158756E+02  0.00000000000E+00 0. -1.
<scales pt_clust_3="178.17720" pt_clust_4="31.01671" pt_clust_5="31.01671" pt_clust_6="49.55032"></scales>
<clustering>
<clus scale="   31.017">  4  5 -1 -1</clus>
<clus scale="   49.550">  1  6  2 -1</clus>
<clus scale="  178.177">  1  3  2 -1</clus>
<clus scale="   49.550">  1  3  2 -1</clus>
</clustering>
</event>
<event>
 6    0  0.1438923E+002  0.1429302E+03  0.7546771E-02  0.1209440E+00
         21   -1    0    0  506  501  0.00000000000E+00  0.00000000000E+00  0.84833569399E+03  0.84833569399E+03  0.00000000000E+00 0. -1.
         21   -1    0    0  505  502 -0.00000000000E+00 -0.00000000000E+00 -0.17014642751E+03  0.17014642751E+03  0.00000000000E+00 0. -1.
         21    1    1    2  503  504 -0.94399807231E+01  0.98549553889E+02  0.42609160996E+03  0.43744163941E+03  0.00000000000E+00 0. -1.
         21    1    1    2  504  501  0.11350036673E+01  0.33623133892E+02  0.34925106942E+03  0.35086765718E+03  0.00000000000E+00 0. -1.
         21    1    1    2  505  503 -0.31833433104E+02  0.12219701570E+02  0.20371221339E+02  0.39719960077E+02  0.00000000000E+00 0.  1.
         21    1    1    2  506  502  0.40138410160E+02 -0.14439238935E+03 -0.11752463424E+03  0.19045286484E+03  0.00000000000E+00 0. -1.
<scales pt_clust_3="30.49552" pt_clust_4="30.49552" pt_clust_5="34.09822" pt_clust_6="133.01262"></scales>
<clustering>
<clus scale="   30.496">  3  4 -1 -1</clus>
<clus scale="   34.098">  2  5  1 -1</clus>
<clus scale="  133.013">  2  6  1 -1</clus>
<clus scale="  142.930">  1  3  2 -1</clus>
</clustering>
</event>
<event>
 6    0  0.1438923E+002  0.2948914E+03  0.7546771E-02  0.1087823E+00
         21   -1    0    0  503  501  0.00000000000E+00  0.00000000000E+00  0.33318776377E+03  0.33318776377E+03  0.00000000000E+00 0.  1.
         21   -1    0    0  506  502 -0.00000000000E+00 -0.00000000000E+00 -0.14479066996E+04  0.14479066996E+04  0.00000000000E+00 0. -1.
         21    1    1    2  503  505  0.50798894553E+02  0.74338595879E+02  0.32900872766E+02  0.95860429552E+02  0.00000000000E+00 0.  1.
         21    1    1    2  504  502  0.16471108446E+03 -0.13294528936E+03  0.84737777485E+02  0.22800149614E+03  0.00000000000E+00 0.  1.
         21    1    1    2  505  504  0.49727011020E+02 -0.41768309057E+02  0.86536014211E+02  0.10819357200E+03  0.00000000000E+00 0.  1.
         21    1    1    2  506  501 -0.26523699003E+03  0.10037500254E+03 -0.13188936003E+04  0.13490389657E+04  0.00000000000E+00 0. -1.
<scales pt_clust_3="90.03752" pt_clust_4="46.94724" pt_clust_5="46.94724" pt_clust_6="282.44836"></scales>
<clustering>
<clus scale="   46.947">  4  5 -1 -1</clus>
<clus scale="   90.038">  1  3  2 -1</clus>
<clus scale="  282.448">  2  6  1 -1</clus>
<clus scale="   90.038">  1  3  2 -1</clus>
</clustering>
</event>
<event>
 6    0  0.1438923E+002  0.1395782E+03  0.7546771E-02  0.1213898E+00
         21   -1    0    0  505  501  0.00000000000E+00  0.00000000000E+00  0.14066753263E+04  0.14066753263E+04  0.00000000000E+00 0.  1.
         21   -1    0    0  503  502 -0.00000000000E+00 -0.00000000000E+00 -0.35568371582E+03  0.35568371582E+03  0.00000000000E+00 0. -1.
         21    1    1    2  503  504  0.64524339014E+02  0.12472827052E+03 -0.32812611928E+03  0.35691354968E+03  0.00000000000E+00 0. -1.
         21    1    1    2  504  506 -0.81029890883E+02 -0.38341864012E+02  0.11502820130E+04  0.11537697566E+04  0.00000000000E+00 0.  1.
         21    1    1    2  505  502  0.85116550988E+00 -0.31124067314E+02  0.25083487910E+02  0.39982663926E+02  0.00000000000E+00 0. -1.
         21    1    1    2  506  501  0.15654386360E+02 -0.55262339193E+02  0.20375222881E+03  0.21169307190E+03  0.00000000000E+00 0. -1.
<scales pt_clust_3="14000.00000" pt_clust_4="139.57819" pt_clust_5="31.13570" pt_clust_6="62.00945"></scales>
<clustering>
<clus scale="   31.136">  1  5  2 -1</clus>
<clus scale="   62.009">  1  6  2 -1</clus>
<clus scale="  139.578">  1  4  2 -1</clus>
<clus scale="   31.136">  1  3  2 -1</clus>
</clustering>
</event>
<event>
 6    0  0.1438923E+002  0.1407576E+03  0.7546771E-02  0.1212313E+00
         21   -1    0    0  504  501  0.00000000000E+00  0.00000000000E+00  0.54778930844E+03  0.54778930844E+03  0.00000000000E+00 0.  1.
         21   -1    0    0  501  502 -0.00000000000E+00 -0.00000000000E+00 -0.21653202213E+04  0.21653202213E+04  0.00000000000E+00 0.  1.
         21    1    1    2  503  502 -0.72683440985E+02 -0.12098532233E+03 -0.21328714327E+04  0.21375361702E+04  0.00000000000E+00 0.  1.
         21    1    1    2  504  505  0.45370453540E+02 -0.78684396614E+01  0.96334775126E+02  0.10677443184E+03  0.00000000000E+00 0.  1.
         21    1    1    2  505  506 -0.41831913288E+02  0.73345607658E+02  0.73016204367E+02  0.11162819192E+03  0.00000000000E+00 0.  1.
         21    1    1    2  506  503  0.69144900733E+02  0.55508154332E+02  0.34598954029E+03  0.35717073576E+03  0.00000000000E+00 0.  1.
<scales pt_clust_3="14000.00000" pt_clust_4="46.04770" pt_clust_5="78.71541" pt_clust_6="140.75765"></scales>
<clustering>
<clus scale="   46.048">  1  4  2 -1</clus>
<clus scale="   78.715">  1  5  2 -1</clus>
<clus scale="  140.758">  1  6  2 -1</clus>
<clus scale="   46.048">  1  3  2 -1</clus>
</clustering>
</event>
<event>
 6    0  0.1438923E+002  0.1354248E+03  0.7546771E-02  0.1219621E+00
         21   -1    0    0  505  501  0.00000000000E+00  0.00000000000E+00  0.40282037869E+03  0.40282037869E+03  0.00000000000E+00 0. -1.
         21   -1    0    0  503  502 -0.00000000000E+00 -0.00000000000E+00 -0.12981812936E+04  0.12981812936E+04  0.00000000000E+00 0.  1.
         21    1    1    2  503  501 -0.34580195796E+02 -0.31499255202E+02  0.60780555747E+01  0.47169224915E+02  0.00000000000E+00 0.  1.
         21    1    1    2  504  502 -0.97931434513E+02 -0.80180842400E+02 -0.12528311833E+04  0.12592082859E+04  0.00000000000E+00 0.  1.
         21    1    1    2  505  506  0.26783268948E+02  0.47983953919E+02  0.13021725094E+03  0.14133766579E+03  0.00000000000E+00 0. -1.
         21    1    1    2  506  504  0.10572836136E+03  0.63696143682E+02  0.22117496191E+03  0.25328649568E+03  0.00000000000E+00 0. -1.
<scales pt_clust_3="46.77599" pt_clust_4="126.96421" pt_clust_5="31.43781" pt_clust_6="31.43781"></scales>
<clustering>
<clus scale="   31.438">  5  6 -1 -1</clus>
<clus scale="   46.776">  1  3  2 -1</clus>
<clus scale="  126.964">  2  4  1 -1</clus>
<clus scale="   46.776">  1  3  2 -1</clus>
</clustering>
</event>
<event>
 6    0  0.1438923E+002  0.9378652E+02  0.7546771E-02  0.1293933E+00
         21   -1    0    0  503  501  0.00000000000E+00  0.00000000000E+00  0.19255190157E+04  0.19255190157E+04  0.00000000000E+00 0.  1.
         21   -1    0    0  506  502 -0.00000000000E+00 -0.00000000000E+00 -0.21124513760E+02  0.21124513760E+02  0.00000000000E+00 0.  1.
         21    1    1    2  503  505 -0.12791942956E+03  0.29790911350E+02  0.10033890141E+04  0.10119488092E+04  0.00000000000E+00 0.  1.
         21    1    1    2  504  501  0.28894450838E+02 -0.75604197609E+02  0.58506068546E+03  0.59063261817E+03  0.00000000000E+00 0.  1.
         21    1    1    2  505  502  0.49018769591E+02  0.51616659723E+02  0.10271321142E+03  0.12496848857E+03  0.00000000000E+00 0.  1.
         21    1    1    2  506  504  0.50006209130E+02 -0.58033734645E+01  0.21323159093E+03  0.21909361348E+03  0.00000000000E+00 0. -1.
<scales pt_clust_3="14000.00000" pt_clust_4="84.77735" pt_clust_5="93.78652" pt_clust_6="50.34183"></scales>
<clustering>
<clus scale="   50.342">  2  6  1 -1</clus>
<clus scale="   84.777">  1  4  2 -1</clus>
<clus scale="   93.787">  2  5  1 -1</clus>
<clus scale="   84.777">  1  3  2 -1</clus>
</clustering>
</event>
<event>
 6    0  0.1438923E+002  0.6776045E+02  0.7546771E-02  0.1367879E+00
         21   -1    0    0  506  501  0.00000000000E+00  0.00000000000E+00  0.47829658163E+03  0.47829658163E+03  0.00000000000E+00 0. -1.
         21   -1    0    0  503  502 -0.00000000000E+00 -0.00000000000E+00 -0.25809076822E+04  0.25809076822E+04  0.00000000000E+00 0.  1.
         21    1    1    2  503  501  0.69467218108E+01 -0.69535861873E+02  0.27545095100E+03  0.28417726763E+03  0.00000000000E+00 0. -1.
         21    1    1    2  504  502  0.18496415838E+02 -0.65022767922E+02 -0.25441670583E+04  0.25450650479E+04  0.00000000000E+00 0.  1.
         21    1    1    2  505  504 -0.20162890118E+02  0.95054092409E+02  0.54402023158E+02  0.11136158559E+03  0.00000000000E+00 0. -1.
         21    1    1    2  506  505 -0.52802475308E+01  0.39504537386E+02  0.11170298357E+03  0.11860036267E+03  0.00000000000E+00 0.  1.
<scales pt_clust_3="39.20222" pt_clust_4="14000.00000" pt_clust_5="67.76045" pt_clust_6="39.85586"></scales>
<clustering>
<clus scale="   39.856">  1  6  2 -1</clus>
<clus scale="   39.202">  1  3  2 -1</clus>
<clus scale="   67.760">  1  5  2 -1</clus>
<clus scale="   39.856">  1  3  2 -1</clus>
</clustering>
</event>
<event>
 6    0  0.1438923E+002  0.1056174E+03  0.7546771E-02  0.1268908E+00
         21   -1    0    0  506  501  0.00000000000E+00  0.00000000000E+00  0.55439813365E+03  0.55439813365E+03  0.00000000000E+00 0. -1.
         21   -1    0    0  504  502 -0.00000000000E+00 -0.00000000000E+00 -0.58104449813E+03  0.58104449813E+03  0.00000000000E+00 0. -1.
         21    1    1    2  503  505 -0.34446918913E+02  0.17044566037E+01  0.11619112755E+03  0.12120178842E+03  0.00000000000E+00 0. -1.
         21    1    1    2  504  501 -0.40168628609E+02 -0.47815747306E+02 -0.27784287276E+03  0.28477451845E+03  0.00000000000E+00 0. -1.
         21    1    1    2  505  502  0.12852913008E+03  0.84593686867E+02 -0.27447541396E+03  0.31466264794E+03  0.00000000000E+00 0. -1.
         21    1    1    2  506  503 -0.53913582555E+02 -0.38482396164E+02  0.40948079471E+03  0.41480367697E+03  0.00000000000E+00 0. -1.
<scales pt_clust_3="30.70487" pt_clust_4="62.44889" pt_clust_5="96.66616" pt_clust_6="30.70487"></scales>
<clustering>
<clus scale="   30.705">  3  6 -1 -1</clus>
<clus scale="   62.449">  2  4  1 -1</clus>
<clus scale="   96.666">  2  5  1 -1</clus>
<clus scale="  105.617">  1  3  2 -1</clus>
</clustering>
</event>
<event>
 6    0  0.1438923E+002  0.7214549E+02  0.7546771E-02  0.1352946E+00
         21   -1    0    0  505  501  0.00000000000E+00  0.00000000000E+00  0.20074709940E+03  0.20074709940E+03  0.00000000000E+00 0. -1.
         21   -1    0    0  504  502 -0.00000000000E+00 -0.00000000000E+00 -0.10349782474E+04  0.10349782474E+04  0.00000000000E+00 0. -1.
         21    1    1    2  503  506  0.34021601040E+02 -0.12656952676E+02  0.91455538515E+02  0.98396053343E+02  0.00000000000E+00 0. -1.
         21    1    1    2  504  503  0.57826650440E+02 -0.12366451375E+02 -0.63904509103E+02  0.87066853075E+02  0.00000000000E+00 0.  1.
         21    1    1    2  505  502 -0.12106111091E+03  0.48886652064E+01 -0.94868785735E+03  0.95639340352E+03  0.00000000000E+00 0. -1.
         21    1    1    2  506  501  0.29212859429E+02  0.20134738844E+02  0.86905679972E+02  0.93869036832E+02  0.00000000000E+00 0. -1.
<scales pt_clust_3="32.76896" pt_clust_4="59.13417" pt_clust_5="64.08077" pt_clust_6="32.76896"></scales>
<clustering>
<clus scale="   32.769">  3  6 -1 -1</clus>
<clus scale="   59.134">  2  4  1 -1</clus>
<clus scale="   64.081">  2  5  1 -1</clus>
<clus scale="   72.145">  1  3  2 -1</clus>
</clustering>
</event>
<event>
 6    0  0.1438923E+002  0.9366005E+02  0.7546771E-02  0.1294223E+00
         21   -1    0    0  506  501  0.00000000000E+00  0.00000000000E+00  0.71003919283E+02  0.71003919283E+02  0.00000000000E+00 0. -1.
         21   -1    0    0  503  502 -0.00000000000E+00 -0.00000000000E+00 -0.13271008272E+04  0.13271008272E+04  0.00000000000E+00 0.  1.
         21    1    1    2  503  504  0.70594599862E+02  0.71858522105E+02 -0.11849452736E+04  0.11892193011E+04  0.00000000000E+00 0.  1.
         21    1    1    2  504  505 -0.65182485008E+02 -0.15607452335E+02 -0.93248503411E+02  0.11483741685E+03  0.00000000000E+00 0. -1.
         21    1    1    2  505  501 -0.36275135765E+02 -0.17541069249E+02  0.18707687787E+02  0.44424679712E+02  0.00000000000E+00 0. -1.
         21    1    1    2  506  502  0.30863020912E+02 -0.38710000521E+02  0.33891812702E+01  0.49623348837E+02  0.00000000000E+00 0.  1.
<scales pt_clust_3="14000.00000" pt_clust_4="93.66005" pt_clust_5="40.29360" pt_clust_6="50.91378"></scales>
<clustering>
<clus scale="   40.294">  1  5  2 -1</clus>
<clus scale="   50.914">  1  6  2 -1</clus>
<clus scale="   93.660">  1  4  2 -1</clus>
<clus scale="   40.294">  1  3  2 -1</clus>
</clustering>
</event>
<event>
 6    0  0.1438923E+002  0.1126930E+03  0.7546771E-02  0.1255663E+00
         21   -1    0    0  504  501  0.00000000000E+00  0.00000000000E+00  0.16475363500E+04  0.16475363500E+04  0.00000000000E+00 0. -1.
         21   -1    0    0  505  502 -0.00000000000E+00 -0.00000000000E+00 -0.94067218707E+02  0.94067218707E+02  0.00000000000E+00 0. -1.
         21    1    1    2  503  502  0.13848650516E+01  0.48680096854E+02  0.25090472094E+03  0.25558726234E+03  0.00000000000E+00 0. -1.
         21    1    1    2  504  506 -0.53857773658E+02 -0.28134617641E+02  0.55874723501E+03  0.56204153683E+03  0.00000000000E+00 0. -1.
         21    1    1    2  505  501  0.53998327477E+02 -0.85048422650E+02 -0.60209323658E+02  0.11736360688E+03  0.00000000000E+00 0. -1.
         21    1    1    2  506  503 -0.15254188707E+01  0.64502943437E+02  0.80402649899E+03  0.80661116264E+03  0.00000000000E+00 0. -1.
<scales pt_clust_3="44.08777" pt_clust_4="60.76361" pt_clust_5="100.62061" pt_clust_6="44.08777"></scales>
<clustering>
<clus scale="   44.088">  3  6 -1 -1</clus>
<clus scale="   60.764">  1  4  2 -1</clus>
<clus scale="  100.621">  2  5  1 -1</clus>
<clus scale="   60.764">  1  3  2 -1</clus>
</clustering>
</event>
<event>
 6    0  0.1438923E+002  0.1304279E+03  0.7546771E-02  0.1226822E+00
         21   -1    0    0  506  501  0.00000000000E+00  0.00000000000E+00  0.33648355535E+03  0.33648355535E+03  0.00000000000E+00 0. -1.
         21   -1    0    0  504  502 -0.00000000000E+00 -0.00000000000E+00 -0.32503078074E+03  0.32503078074E+03  0.00000000000E+00 0. -1.
         21    1    1    2  503  502 -0.95662015632E+02 -0.93902579364E+02  0.14398801096E+03  0.19672687398E+03  0.00000000000E+00 0. -1.
         21    1    1    2  504  505  0.37966852750E+02  0.12585208008E+03 -0.27160908380E+03  0.30174777940E+03  0.00000000000E+00 0. -1.
         21    1    1    2  505  501  0.40601624687E+02 -0.59760084624E+01  0.11937258411E+03  0.12623002195E+03  0.00000000000E+00 0.  1.
         21    1    1    2  506  503  0.17093538194E+02 -0.25973492255E+02  0.19701263332E+02  0.36809660754E+02  0.00000000000E+00 0.  1.
<scales pt_clust_3="14000.00000" pt_clust_4="130.42793" pt_clust_5="50.14342" pt_clust_6="31.09359"></scales>
<clustering>
<clus scale="   31.094">  1  6  2 -1</clus>
<clus scale="   50.143">  1  5  2 -1</clus>
<clus scale="  130.428">  2  4  1 -1</clus>
<clus scale="   31.094">  1  3  2 -1</clus>
</clustering>
</event>
<event>
 6    0  0.1438923E+002  0.3377007E+03  0.7546771E-02  0.1067779E+00
         21   -1    0    0  505  501  0.00000000000E+00  0.00000000000E+00  0.11301005395E+04  0.11301005395E+04  0.00000000000E+00 0. -1.
         21   -1    0    0  506  502 -0.00000000000E+00 -0.00000000000E+00 -0.34870695329E+03  0.34870695329E+03  0.00000000000E+00 0. -1.
         21    1    1    2  503  504  0.77306919652E+02  0.10076004283E+03  0.28464304469E+03  0.31168992436E+03  0.00000000000E+00 0. -1.
         21    1    1    2  504  501  0.18273201293E+03  0.12803081233E+03  0.64569079197E+03  0.68315406483E+03  0.00000000000E+00 0. -1.
         21    1    1    2  505  502 -0.62681436455E+02  0.36456617124E+02  0.58922702336E+02  0.93434106507E+02  0.00000000000E+00 0. -1.
         21    1    1    2  506  503 -0.19735749612E+03 -0.26524747228E+03 -0.20786295280E+03  0.39052939707E+03  0.00000000000E+00 0. -1.
<scales pt_clust_3="49.05685" pt_clust_4="49.05685" pt_clust_5="72.51239" pt_clust_6="331.38160"></scales>
<clustering>
<clus scale="   49.057">  3  4 -1 -1</clus>
<clus scale="   72.512">  1  5  2 -1</clus>
<clus scale="  331.382">  2  6  1 -1</clus>
<clus scale="   72.512">  1  3  2 -1</clus>
</clustering>
</event>
<event>
 6    0  0.1438923E+002  0.8791969E+02  0.7546771E-02  0.1307969E+00
         21   -1    0    0  503  501  0.00000000000E+00  0.00000000000E+00  0.12127951937E+04  0.12127951937E+04  0.00000000000E+00 0. -1.
         21   -1    0    0  506  502 -0.00000000000E+00 -0.00000000000E+00 -0.54205635359E+03  0.54205635359E+03  0.00000000000E+00 0.  1.
         21    1    1    2  503  502 -0.23162585895E+01  0.32845446932E+02  0.10602991354E+03  0.11102491164E+03  0.00000000000E+00 0. -1.
         21    1    1    2  504  505  0.50569963886E+02 -0.14181212627E+03  0.20646114974E+03  0.25552731117E+03  0.00000000000E+00 0. -1.
         21    1    1    2  505  501  0.21703544751E+02  0.56729058814E+02  0.86850506543E+03  0.87062637144E+03  0.00000000000E+00 0. -1.
         21    1    1    2  506  504 -0.69957250048E+02  0.52237620523E+02 -0.51025728856E+03  0.51767295309E+03  0.00000000000E+00 0.  1.
<scales pt_clust_3="32.92702" pt_clust_4="14000.00000" pt_clust_5="84.95225" pt_clust_6="87.91969"></scales>
<clustering>
<clus scale="   32.927">  1  3  2 -1</clus>
<clus scale="   84.952">  1  5  2 -1</clus>
<clus scale="   87.920">  2  6  1 -1</clus>
<clus scale="   32.927">  1  3  2 -1</clus>
</clustering>
</event>
<event>
 6    0  0.1438923E+002  0.1687051E+03  0.7546771E-02  0.1179205E+00
         21   -1    0    0  503  501  0.00000000000E+00  0.00000000000E+00  0.89527236389E+02  0.89527236389E+02  0.00000000000E+00 0.  1.
         21   -1    0    0  504  502 -0.00000000000E+00 -0.00000000000E+00 -0.10808923011E+04  0.10808923011E+04  0.00000000000E+00 0.  1.
         21    1    1    2  503  506 -0.78305606360E+02 -0.14278983686E+03 -0.10668481504E+02  0.16320086395E+03  0.00000000000E+00 0.  1.
         21    1    1    2  504  505  0.51381340505E+02  0.92808458853E+02 -0.36552278403E+03  0.38060525197E+03  0.00000000000E+00 0.  1.
         21    1    1    2  505  501 -0.26050035277E+01  0.62201690499E+02 -0.18379909465E+03  0.19405654727E+03  0.00000000000E+00 0. -1.
         21    1    1    2  506  502  0.29529269383E+02 -0.12220312494E+02 -0.43137470452E+03  0.43255687428E+03  0.00000000000E+00 0.  1.
<scales pt_clust_3="162.44081" pt_clust_4="33.38899" pt_clust_5="33.38899" pt_clust_6="31.95800"></scales>
<clustering>
<clus scale="   31.958">  2  6  1 -1</clus>
<clus scale="   33.389">  4  5 -1 -1</clus>
<clus scale="  162.441">  1  3  2 -1</clus>
<clus scale="  162.441">  1  3  2 -1</clus>
</clustering>
</event>
<event>
 6    0  0.1438923E+002  0.9911848E+02  0.7546771E-02  0.1282161E+00
         21   -1    0    0  506  501  0.00000000000E+00  0.00000000000E+00  0.31264351649E+03  0.31264351649E+03  0.00000000000E+00 0. -1.
         21   -1    0    0  503  502 -0.00000000000E+00 -0.00000000000E+00 -0.66839489612E+03  0.66839489612E+03  0.00000000000E+00 0. -1.
         21    1    1    2  503  501  0.81607837465E+02 -0.33292943126E+02  0.28638190388E+03  0.29963787155E+03  0.00000000000E+00 0. -1.
         21    1    1    2  504  502 -0.87385287027E+01 -0.50510854749E+02 -0.46384106201E+03  0.46666501812E+03  0.00000000000E+00 0. -1.
         21    1    1    2  505  504 -0.54593261588E+01  0.36974841951E+02 -0.49813548591E+02  0.62276261951E+02  0.00000000000E+00 0. -1.
         21    1    1    2  506  505 -0.67409982604E+02  0.46828955925E+02 -0.12847867291E+03  0.15245926099E+03  0.00000000000E+00 0. -1.
<scales pt_clust_3="88.51134" pt_clust_4="51.26118" pt_clust_5="30.10421" pt_clust_6="30.10421"></scales>
<clustering>
<clus scale="   30.104">  5  6 -1 -1</clus>
<clus scale="   51.261">  2  4  1 -1</clus>
<clus scale="   88.511">  1  3  2 -1</clus>
<clus scale="   88.511">  1  3  2 -1</clus>
</clustering>
</event>
<event>
 6    0  0.1438923E+002  0.1619040E+03  0.7546771E-02  0.1186564E+00
         21   -1    0    0  504  501  0.00000000000E+00  0.00000000000E+00  0.31410295140E+04  0.31410295140E+04  0.00000000000E+00 0.  1.
         21   -1    0    0  501  502 -0.00000000000E+00 -0.00000000000E+00 -0.16582176197E+03  0.16582176197E+03  0.00000000000E+00 0. -1.
         21    1    1    2  503  506  0.75742041837E+02 -0.59052531103E+02  0.93257300250E+03  0.93750544709E+03  0.00000000000E+00 0.  1.
         21    1    1    2  504  505  0.26816624114E+02 -0.22375500620E+02  0.11526160797E+04  0.11531450999E+04  0.00000000000E+00 0.  1.
         21    1    1    2  505  503  0.54710274724E+02  0.31102382903E+02  0.10100819315E+04  0.10120405529E+04  0.00000000000E+00 0.  1.
         21    1    1    2  506  502 -0.15726894068E+03  0.50325648821E+02 -0.12006326174E+03  0.20416017596E+03  0.00000000000E+00 0. -1.
<scales pt_clust_3="14000.00000" pt_clust_4="34.92555" pt_clust_5="71.13666" pt_clust_6="161.90397"></scales>
<clustering>
<clus scale="   34.926">  1  4  2 -1</clus>
<clus scale="   71.137">  1  5  2 -1</clus>
<clus scale="  161.904">  2  6  1 -1</clus>
<clus scale="   34.926">  1  3  2 -1</clus>
</clustering>
</event>
<event>
 6    0  0.1438923E+002  0.9575640E+02  0.7546771E-02  0.1289482E+00
         21   -1    0    0  505  501  0.00000000000E+00  0.00000000000E+00  0.99605016872E+03  0.99605016872E+03  0.00000000000E+00 0.  1.
         21   -1    0    0  506  502 -0.00000000000E+00 -0.00000000000E+00 -0.58557769970E+02  0.58557769970E+02  0.00000000000E+00 0.  1.
         21    1    1    2  503  501 -0.54701912720E+02  0.96971692376E+02  0.61152265414E+03  0.62157522867E+03  0.00000000000E+00 0.  1.
         21    1    1    2  504  502  0.23861506264E+02  0.24887041027E+02 -0.30144816698E+02  0.45797884951E+02  0.00000000000E+00 0.  1.
         21    1    1    2  505  504 -0.21899574435E+02 -0.64235195001E+02  0.11231446652E+03  0.13122610650E+03  0.00000000000E+00 0.  1.
         21    1    1    2  506  503  0.52739980891E+02 -0.57623538402E+02  0.24380009479E+03  0.25600871856E+03  0.00000000000E+00 0.  1.
<scales pt_clust_3="95.75640" pt_clust_4="34.47806" pt_clust_5="53.92526" pt_clust_6="14000.00000"></scales>
<clustering>
<clus scale="   34.478">  2  4  1 -1</clus>
<clus scale="   53.925">  2  5  1 -1</clus>
<clus scale="   95.756">  1  3  2 -1</clus>
<clus scale="   95.756">  1  3  2 -1</clus>
</clustering>
</event>
<event>
 6    0  0.1438923E+002  0.3730348E+03  0.7546771E-02  0.1053539E+00
         21   -1    0    0  506  501  0.00000000000E+00  0.00000000000E+00  0.27412377350E+04  0.27412377350E+04  0.00000000000E+00 0. -1.
         21   -1    0    0  505  502 -0.00000000000E+00 -0.00000000000E+00 -0.23614832579E+03  0.23614832579E+03  0.00000000000E+00 0. -1.
         21    1    1    2  503  501 -0.93050681962E+02 -0.33797196806E+03  0.23936881068E+04  0.24192201705E+04  0.00000000000E+00 0. -1.
         21    1    1    2  504  502  0.11040026995E+03  0.38794095804E+03 -0.25240468360E+02  0.40413300752E+03  0.00000000000E+00 0. -1.
         21    1    1    2  505  503  0.11558014651E+02 -0.35506508706E+02  0.57683453265E+02  0.68714486418E+02  0.00000000000E+00 0. -1.
         21    1    1    2  506  504 -0.28907602636E+02 -0.14462481271E+02  0.78958317489E+02  0.85318396348E+02  0.00000000000E+00 0. -1.
<scales pt_clust_3="373.03482" pt_clust_4="14000.00000" pt_clust_5="37.46222" pt_clust_6="32.32357"></scales>
<clustering>
<clus scale="   32.324">  1  6  2 -1</clus>
<clus scale="   37.462">  2  5  1 -1</clus>
<clus scale="  373.035">  1  3  2 -1</clus>
<clus scale="   32.324">  1  3  2 -1</clus>
</clustering>
</event>
<event>
 6    0  0.1438923E+002  0.4284469E+03  0.7546771E-02  0.1034352E+00
         21   -1    0    0  506  501  0.00000000000E+00  0.00000000000E+00  0.42523886060E+03  0.42523886060E+03  0.00000000000E+00 0. -1.
         21   -1    0    0  504  502 -0.00000000000E+00 -0.00000000000E+00 -0.17203142414E+04  0.17203142414E+04  0.00000000000E+00 0. -1.
         21    1    1    2  503  502  0.15024378433E+03 -0.11344922801E+03 -0.98799269796E+03  0.10057700996E+04  0.00000000000E+00 0. -1.
         21    1    1    2  504  501  0.28513019687E+03  0.15976490531E+03 -0.53932835900E+03  0.63063391358E+03  0.00000000000E+00 0. -1.
         21    1    1    2  505  503 -0.35548803079E+03  0.70313632802E+01  0.16557960134E+03  0.39222160125E+03  0.00000000000E+00 0. -1.
         21    1    1    2  506  505 -0.79885950400E+02 -0.53347040579E+02  0.66666074826E+02  0.11692748754E+03  0.00000000000E+00 0.  1.
<scales pt_clust_3="188.26556" pt_clust_4="412.27136" pt_clust_5="60.61402" pt_clust_6="60.61402"></scales>
<clustering>
<clus scale="   60.614">  5  6 -1 -1</clus>
<clus scale="  188.266">  2  3  1 -1</clus>
<clus scale="  412.271">  2  4  1 -1</clus>
<clus scale="  428.447">  1  3  2 -1</clus>
</clustering>
</event>
<event>
 6    0  0.1438923E+002  0.1076558E+03  0.7546771E-02  0.1264974E+00
         21   -1    0    0  506  501  0.00000000000E+00  0.00000000000E+00  0.11305987510E+04  0.11305987510E+04  0.00000000000E+00 0.  1.
         21   -1    0    0  505  502 -0.00000000000E+00 -0.00000000000E+00 -0.11614374635E+04  0.11614374635E+04  0.00000000000E+00 0.  1.
         21    1    1    2  503  504 -0.16637060181E+02  0.10896337420E+03  0.74084627058E+02  0.13280941478E+03  0.00000000000E+00 0.  1.
         21    1    1    2  504  501 -0.45661057340E+02  0.63996470112E+01  0.94230578650E+03  0.94343313642E+03  0.00000000000E+00 0.  1.
         21    1    1    2  505  503  0.33267222386E+02 -0.13921117581E+02 -0.10980752859E+04  0.10986673014E+04  0.00000000000E+00 0.  1.
         21    1    1    2  506  502  0.29030895136E+02 -0.10144190363E+03  0.50846159838E+02  0.11712636191E+03  0.00000000000E+00 0.  1.
<scales pt_clust_3="14000.00000" pt_clust_4="45.79569" pt_clust_5="36.06252" pt_clust_6="107.65580"></scales>
<clustering>
<clus scale="   36.063">  2  5  1 -1</clus>
<clus scale="   45.796">  1  4  2 -1</clus>
<clus scale="  107.656">  1  6  2 -1</clus>
<clus scale="   45.796">  1  3  2 -1</clus>
</clustering>
</event>
<event>
 6    0  0.1438923E+002  0.1240824E+03  0.7546771E-02  0.1236510E+00
         21   -1    0    0  503  501  0.00000000000E+00  0.00000000000E+00  0.16368756182E+04  0.16368756182E+04  0.00000000000E+00 0.  1.
         21   -1    0    0  505  502 -0.00000000000E+00 -0.00000000000E+00 -0.12832916589E+03  0.12832916589E+03  0.00000000000E+00 0. -1.
         21    1    1    2  503  506 -0.10148001752E+03  0.26662222720E+01  0.65687447861E+03  0.66467238798E+03  0.00000000000E+00 0.  1.
         21    1    1    2  504  502 -0.85539377191E+00  0.12472570701E+03 -0.77808164695E+02  0.14700797319E+03  0.00000000000E+00 0. -1.
         21    1    1    2  505  501  0.72090504529E+02 -0.17950798830E+02  0.16891477303E+03  0.18453041096E+03  0.00000000000E+00 0.  1.
         21    1    1    2  506  504  0.30244906767E+02 -0.10944113046E+03  0.76056536541E+03  0.76899401200E+03  0.00000000000E+00 0.  1.
<scales pt_clust_3="69.07230" pt_clust_4="124.08238" pt_clust_5="74.29180" pt_clust_6="14000.00000"></scales>
<clustering>
<clus scale="   74.292">  1  5  2 -1</clus>
<clus scale="   69.072">  1  3  2 -1</clus>
<clus scale="  124.082">  2  4  1 -1</clus>
<clus scale="   74.292">  1  3  2 -1</clus>
</clustering>
</event>
<event>
 6    0  0.1438923E+002  0.1673328E+03  0.7546771E-02  0.1180658E+00
         21   -1    0    0  503  501  0.00000000000E+00  0.00000000000E+00  0.23926529793E+03  0.23926529793E+03  0.00000000000E+00 0.  1.
         21   -1    0    0  506  502 -0.00000000000E+00 -0.00000000000E+00 -0.14806890082E+03  0.14806890082E+03  0.00000000000E+00 0.  1.
         21    1    1    2  503  505  0.10009515589E+03  0.34887414692E+02  0.33520987451E+02  0.11117476574E+03  0.00000000000E+00 0.  1.
         21    1    1    2  504  502  0.28217826797E+02 -0.21917231584E+02 -0.12024166446E+02  0.37698691864E+02  0.00000000000E+00 0.  1.
         21    1    1    2  505  504  0.45721663026E+02 -0.16296794314E+02  0.37739961402E+02  0.61484637605E+02  0.00000000000E+00 0.  1.
         21    1    1    2  506  501 -0.17403464572E+03  0.33266112060E+01  0.31959614699E+02  0.17697610354E+03  0.00000000000E+00 0.  1.
<scales pt_clust_3="37.93652" pt_clust_4="35.72969" pt_clust_5="37.93652" pt_clust_6="157.71903"></scales>
<clustering>
<clus scale="   35.730">  2  4  1 -1</clus>
<clus scale="   37.937">  3  5 -1 -1</clus>
<clus scale="  157.719">  2  6  1 -1</clus>
<clus scale="  167.333">  1  3  2 -1</clus>
</clustering>
</event>
<event>
 6    0  0.1438923E+002  0.1141573E+03  0.7546771E-02  0.1253059E+00
         21   -1    0    0  504  501  0.00000000000E+00  0.00000000000E+00  0.10840130288E+03  0.10840130288E+03  0.00000000000E+00 0. -1.
         21   -1    0    0  505  502 -0.00000000000E+00 -0.00000000000E+00 -0.15741810995E+04  0.15741810995E+04  0.00000000000E+00 0. -1.
         21    1    1    2  503  502 -0.82120995423E+02 -0.59640232857E+02 -0.62103421080E+02  0.11898592427E+03  0.00000000000E+00 0. -1.
         21    1    1    2  504  503  0.49225731383E+02 -0.84095134664E+02  0.38617851794E+02  0.10481651960E+03  0.00000000000E+00 0. -1.
         21    1    1    2  505  506  0.25713799649E+02  0.11442235669E+03 -0.14088853548E+04  0.14137579772E+04  0.00000000000E+00 0. -1.
         21    1    1    2  506  501  0.71814643913E+01  0.29313010829E+02 -0.33408872575E+02  0.45021981314E+02  0.00000000000E+00 0.  1.
<scales pt_clust_3="114.15729" pt_clust_4="83.59499" pt_clust_5="14000.00000" pt_clust_6="30.17989"></scales>
<clustering>
<clus scale="   30.180">  1  6  2 -1</clus>
<clus scale="   83.595">  1  4  2 -1</clus>
<clus scale="  114.157">  1  3  2 -1</clus>
<clus scale="   30.180">  1  3  2 -1</clus>
</clustering>
</event>
<event>
 6    0  0.1438923E+002  0.1522447E+03  0.7546771E-02  0.1197742E+00
         21   -1    0    0  504  501  0.00000000000E+00  0.00000000000E+00  0.17887665372E+03  0.17887665372E+03  0.00000000000E+00 0.  1.
         21   -1    0    0  506  502 -0.00000000000E+00 -0.00000000000E+00 -0.21163869118E+03  0.21163869118E+03  0.00000000000E+00 0. -1.
         21    1    1    2  503  502 -0.51865646369E+01 -0.52480279027E+02  0.39146358829E+02  0.65677374712E+02  0.00000000000E+00 0.  1.
         21    1    1    2  504  505  0.34244488329E+02 -0.45789308738E+02  0.37676330961E+02  0.68475190327E+02  0.00000000000E+00 0.  1.
         21    1    1    2  505  503  0.40399255065E+02 -0.95419644309E+01  0.41151114716E+02  0.58451374127E+02  0.00000000000E+00 0.  1.
         21    1    1    2  506  501 -0.69457178757E+02  0.10781155220E+03 -0.15073584197E+03  0.19791140574E+03  0.00000000000E+00 0. -1.
<scales pt_clust_3="52.21246" pt_clust_4="52.21246" pt_clust_5="30.28496" pt_clust_6="128.24832"></scales>
<clustering>
<clus scale="   30.285">  4  5 -1 -1</clus>
<clus scale="   52.212">  3  4 -1 -1</clus>
<clus scale="  128.248">  2  6  1 -1</clus>
<clus scale="  152.245">  1  3  2 -1</clus>
</clustering>
</event>
<event>
 6    0  0.1438923E+002  0.1072421E+03  0.7546771E-02  0.1265764E+00
         21   -1    0    0  503  501  0.00000000000E+00  0.00000000000E+00  0.11219604950E+03  0.11219604950E+03  0.00000000000E+00 0.  1.
         21   -1    0    0  505  502 -0.00000000000E+00 -0.00000000000E+00 -0.48116325946E+03  0.48116325946E+03  0.00000000000E+00 0.  1.
         21    1    1    2  503  506  0.18789282467E+02  0.27593476810E+02  0.46197462027E+01  0.33701322719E+02  0.00000000000E+00 0.  1.
         21    1    1    2  504  501 -0.11460814907E+03 -0.47244030076E+02 -0.61115099776E+01  0.12411436970E+03  0.00000000000E+00 0.  1.
         21    1    1    2  505  504 -0.87601205503E+01  0.33971045254E+02 -0.31629585787E+03  0.31823551237E+03  0.00000000000E+00 0.  1.
         21    1    1    2  506  502  0.10457898715E+03 -0.14320491988E+02 -0.51179588319E+02  0.11730810418E+03  0.00000000000E+00 0.  1.
<scales pt_clust_3="33.38319" pt_clust_4="107.24207" pt_clust_5="35.31295" pt_clust_6="14000.00000"></scales>
<clustering>
<clus scale="   33.383">  1  3  2 -1</clus>
<clus scale="   35.313">  2  5  1 -1</clus>
<clus scale="  107.242">  1  4  2 -1</clus>
<clus scale="   33.383">  1  3  2 -1</clus>
</clustering>
</event>
<event>
 6    0  0.1438923E+002  0.7933676E+02  0.7546771E-02  0.1330944E+00
         21   -1    0    0  504  501  0.00000000000E+00  0.00000000000E+00  0.84838344909E+02  0.84838344909E+02  0.00000000000E+00 0. -1.
         21   -1    0    0  505  502 -0.00000000000E+00 -0.00000000000E+00 -0.18363874452E+04  0.18363874452E+04  0.00000000000E+00 0. -1.
         21    1    1    2  503  506  0.83270636816E+02  0.88164308185E+02 -0.12751823130E+03  0.17597682662E+03  0.00000000000E+00 0. -1.
         21    1    1    2  504  502  0.18875324239E+02 -0.24024026912E+02 -0.44721809189E+02  0.54161535718E+02  0.00000000000E+00 0. -1.
         21    1    1    2  505  503 -0.37589227200E+02 -0.68179515740E+02 -0.16152261901E+04  0.16171014321E+04  0.00000000000E+00 0. -1.
         21    1    1    2  506  501 -0.64556733854E+02  0.40392344667E+01  0.35917130354E+02  0.73985995661E+02  0.00000000000E+00 0. -1.
<scales pt_clust_3="79.33676" pt_clust_4="30.55212" pt_clust_5="14000.00000" pt_clust_6="53.08824"></scales>
<clustering>
<clus scale="   30.552">  1  4  2 -1</clus>
<clus scale="   53.088">  1  6  2 -1</clus>
<clus scale="   79.337">  1  3  2 -1</clus>
<clus scale="   30.552">  1  3  2 -1</clus>
</clustering>
</event>
<event>
 6    0  0.1438923E+002  0.1976097E+03  0.7546771E-02  0.1151771E+00
         21   -1    0    0  503  501  0.00000000000E+00  0.00000000000E+00  0.11547500920E+03  0.11547500920E+03  0.00000000000E+00 0. -1.
         21   -1    0    0  505  502 -0.00000000000E+00 -0.00000000000E+00 -0.47121014973E+03  0.47121014973E+03  0.00000000000E+00 0.  1.
         21    1    1    2  503  502 -0.16094978270E+02 -0.29015813845E+02 -0.50903112492E+01  0.33568989369E+02  0.00000000000E+00 0. -1.
         21    1    1    2  504  501 -0.31016755491E+02  0.74836781860E+02 -0.11401261595E+02  0.81808140221E+02  0.00000000000E+00 0. -1.
         21    1    1    2  505  506  0.69255511199E+02 -0.17204103248E+03 -0.26423197393E+03  0.32282035056E+03  0.00000000000E+00 0.  1.
         21    1    1    2  506  504 -0.22143777437E+02  0.12622006447E+03 -0.75011593745E+02  0.14848767878E+03  0.00000000000E+00 0. -1.
<scales pt_clust_3="33.18080" pt_clust_4="38.06891" pt_clust_5="191.65207" pt_clust_6="38.06891"></scales>
<clustering>
<clus scale="   33.181">  1  3  2 -1</clus>
<clus scale="   38.069">  4  6 -1 -1</clus>
<clus scale="  191.652">  2  5  1 -1</clus>
<clus scale="   33.181">  1  3  2 -1</clus>
</clustering>
</event>
<event>
 6    0  0.1438923E+002  0.1286072E+03  0.7546771E-02  0.1229537E+00
         21   -1    0    0  504  501  0.00000000000E+00  0.00000000000E+00  0.45312962804E+03  0.45312962804E+03  0.00000000000E+00 0. -1.
         21   -1    0    0  505  502 -0.00000000000E+00 -0.00000000000E+00 -0.92484153609E+02  0.92484153609E+02  0.00000000000E+00 0.  1.
         21    1    1    2  503  506 -0.58222230767E+02  0.22163188130E+02  0.14722087387E+03  0.15985937810E+03  0.00000000000E+00 0. -1.
         21    1    1    2  504  502  0.91948480463E+02  0.13445505350E+02 -0.39148358475E+02  0.10083599876E+03  0.00000000000E+00 0.  1.
         21    1    1    2  505  503  0.36411045704E+02 -0.26046078250E+02  0.37185320346E+02  0.58197169095E+02  0.00000000000E+00 0.  1.
         21    1    1    2  506  501 -0.70137295401E+02 -0.95626152301E+01  0.21538763869E+03  0.22672123570E+03  0.00000000000E+00 0. -1.
<scales pt_clust_3="34.14449" pt_clust_4="123.34962" pt_clust_5="44.76787" pt_clust_6="34.14449"></scales>
<clustering>
<clus scale="   34.144">  3  6 -1 -1</clus>
<clus scale="   44.768">  2  5  1 -1</clus>
<clus scale="  123.350">  2  4  1 -1</clus>
<clus scale="  128.607">  1  3  2 -1</clus>
</clustering>
</event>
<event>
 6    0  0.1438923E+002  0.1076739E+03  0.7546771E-02  0.1264939E+00
         21   -1    0    0  504  501  0.00000000000E+00  0.00000000000E+00  0.37787302436E+03  0.37787302436E+03  0.00000000000E+00 0. -1.
         21   -1    0    0  506  502 -0.00000000000E+00 -0.00000000000E+00 -0.61142562423E+03  0.61142562423E+03  0.00000000000E+00 0. -1.
         21    1    1    2  503  505 -0.64529255311E+02 -0.45143778490E+02  0.50769729793E+02  0.93699258218E+02  0.00000000000E+00 0. -1.
         21    1    1    2  504  503  0.12415274230E+03  0.39448976284E+02  0.25950351976E+03  0.29036563488E+03  0.00000000000E+00 0. -1.
         21    1    1    2  505  502 -0.98885186667E+02  0.52621770477E+01 -0.52009166530E+02  0.11185224205E+03  0.00000000000E+00 0. -1.
         21    1    1    2  506  501  0.39261699675E+02  0.43262515816E+00 -0.49181668290E+03  0.49338151344E+03  0.00000000000E+00 0. -1.
<scales pt_clust_3="107.67390" pt_clust_4="14000.00000" pt_clust_5="72.02925" pt_clust_6="39.26408"></scales>
<clustering>
<clus scale="   39.264">  2  6  1 -1</clus>
<clus scale="   72.029">  2  5  1 -1</clus>
<clus scale="  107.674">  2  3  1 -1</clus>
<clus scale="  107.674">  1  3  2 -1</clus>
</clustering>
</event>
<event>
 6    0  0.1438923E+002  0.2547806E+03  0.7546771E-02  0.1110320E+00
         21   -1    0    0  504  501  0.00000000000E+00  0.00000000000E+00  0.62075504033E+03  0.62075504033E+03  0.00000000000E+00 0.  1.
         21   -1    0    0  506  502 -0.00000000000E+00 -0.00000000000E+00 -0.27662036849E+03  0.27662036849E+03  0.00000000000E+00 0.  1.
         21    1    1    2  503  501 -0.82086019869E+01  0.56417727402E+02  0.18332822718E+03  0.19198848922E+03  0.00000000000E+00 0. -1.
         21    1    1    2  504  502 -0.26707764629E+02  0.16376500839E+02 -0.19565083020E+01  0.31389845427E+02  0.00000000000E+00 0.  1.
         21    1    1    2  505  503  0.19412727459E+02  0.18739356988E+03  0.31873121063E+03  0.37024692929E+03  0.00000000000E+00 0.  1.
         21    1    1    2  506  505  0.15503639157E+02 -0.26018779812E+03 -0.15596825767E+03  0.30375014489E+03  0.00000000000E+00 0.  1.
<scales pt_clust_3="36.77702" pt_clust_4="31.32881" pt_clust_5="36.77702" pt_clust_6="245.84072"></scales>
<clustering>
<clus scale="   31.329">  2  4  1 -1</clus>
<clus scale="   36.777">  3  5 -1 -1</clus>
<clus scale="  245.841">  2  6  1 -1</clus>
<clus scale="  254.781">  1  3  2 -1</clus>
</clustering>
</event>
<event>
 6    0  0.1438923E+002  0.1319538E+03  0.7546771E-02  0.1224585E+00
         21   -1    0    0  506  501  0.00000000000E+00  0.00000000000E+00  0.86647426586E+03  0.86647426586E+03  0.00000000000E+00 0.  1.
         21   -1    0    0  503  502 -0.00000000000E+00 -0.00000000000E+00 -0.73381402483E+03  0.73381402483E+03  0.00000000000E+00 0. -1.
         21    1    1    2  503  505 -0.23971186482E+02  0.36964147694E+02  0.40107107342E+03  0.40348354605E+03  0.00000000000E+00 0.  1.
         21    1    1    2  504  502  0.39965782580E+02  0.11224503446E+02 -0.68496672832E+03  0.68622348558E+03  0.00000000000E+00 0. -1.
         21    1    1    2  505  501 -0.78638039814E+02  0.31110155434E+02  0.39918200786E+03  0.40804173619E+03  0.00000000000E+00 0.  1.
         21    1    1    2  506  504  0.62643443716E+02 -0.79298806575E+02  0.17373888073E+02  0.10253952288E+03  0.00000000000E+00 0.  1.
<scales pt_clust_3="39.56955" pt_clust_4="41.51209" pt_clust_5="39.56955" pt_clust_6="120.02612"></scales>
<clustering>
<clus scale="   39.570">  3  5 -1 -1</clus>
<clus scale="   41.512">  2  4  1 -1</clus>
<clus scale="  120.026">  2  6  1 -1</clus>
<clus scale="  131.954">  1  3  2 -1</clus>
</clustering>
</event>
<event>
 6    0  0.1438923E+002  0.8778019E+02  0.7546771E-02  0.1308318E+00
         21   -1    0    0  505  501  0.00000000000E+00  0.00000000000E+00  0.44237543981E+03  0.44237543981E+03  0.00000000000E+00 0.  1.
         21   -1    0    0  504  502 -0.00000000000E+00 -0.00000000000E+00 -0.72623549081E+02  0.72623549081E+02  0.00000000000E+00 0.  1.
         21    1    1    2  503  502 -0.76267185364E+02  0.60868604476E+02  0.49738761245E+01  0.97705731756E+02  0.00000000000E+00 0.  1.
         21    1    1    2  504  506  0.50667926126E+02 -0.33435486513E+02  0.13646603999E+03  0.14935913285E+03  0.00000000000E+00 0.  1.
         21    1    1    2  505  503  0.48456625766E+02  0.28619035037E+02  0.18534811826E+03  0.19370342974E+03  0.00000000000E+00 0.  1.
         21    1    1    2  506  501 -0.22857366528E+02 -0.56052153001E+02  0.42963856353E+02  0.74230694549E+02  0.00000000000E+00 0.  1.
<scales pt_clust_3="87.78019" pt_clust_4="14000.00000" pt_clust_5="56.27694" pt_clust_6="50.76924"></scales>
<clustering>
<clus scale="   56.277">  1  5  2 -1</clus>
<clus scale="   50.769">  1  6  2 -1</clus>
<clus scale="   87.780">  2  3  1 -1</clus>
<clus scale="   56.277">  1  3  2 -1</clus>
</clustering>
</event>
<event>
 6    0  0.1438923E+002  0.1367972E+03  0.7546771E-02  0.1217705E+00
         21   -1    0    0  505  501  0.00000000000E+00  0.00000000000E+00  0.44897323881E+03  0.44897323881E+03  0.00000000000E+00 0. -1.
         21   -1    0    0  506  502 -0.00000000000E+00 -0.00000000000E+00 -0.32104748637E+03  0.32104748637E+03  0.00000000000E+00 0. -1.
         21    1    1    2  503  501  0.13722320870E+02 -0.50403722328E+02  0.53722498283E+02  0.74932930921E+02  0.00000000000E+00 0. -1.
         21    1    1    2  504  502  0.30541529640E+02 -0.82205221821E+02  0.32817419747E+03  0.33968925125E+03  0.00000000000E+00 0. -1.
         21    1    1    2  505  504 -0.33571627061E+02 -0.63498174648E+01  0.25814558544E+02  0.42822491266E+02  0.00000000000E+00 0. -1.
         21    1    1    2  506  503 -0.10692223450E+02  0.13895876161E+03 -0.27978550186E+03  0.31257605174E+03  0.00000000000E+00 0. -1.
<scales pt_clust_3="52.08935" pt_clust_4="136.79721" pt_clust_5="34.16686" pt_clust_6="14000.00000"></scales>
<clustering>
<clus scale="   34.167">  1  5  2 -1</clus>
<clus scale="   52.089">  1  3  2 -1</clus>
<clus scale="  136.797">  1  4  2 -1</clus>
<clus scale="   34.167">  1  3  2 -1</clus>
</clustering>
</event>
<event>
 6    0  0.2215835E+002  0.2818402E+03  0.7546771E-02  0.1094688E+00
         21   -1    0    0  506  501  0.00000000000E+00  0.00000000000E+00  0.10958631215E+04  0.10958631215E+04  0.00000000000E+00 0.  1.
         21   -1    0    0  503  502 -0.00000000000E+00 -0.00000000000E+00 -0.74345149643E+03  0.74345149643E+03  0.00000000000E+00 0.  1.
         21    1    1    2  503  505 -0.25345226551E+02  0.40767459369E+02 -0.25820930662E+03  0.26263360843E+03  0.00000000000E+00 0. -1.
         21    1    1    2  504  502  0.14928015630E+03 -0.20512516016E+03 -0.37789416549E+03  0.45515370668E+03  0.00000000000E+00 0.  1.
         21    1    1    2  505  501 -0.16471386057E+03  0.20871297426E+03  0.10196230579E+04  0.10537186255E+04  0.00000000000E+00 0.  1.
         21    1    1    2  506  504  0.40778930824E+02 -0.44355273462E+02 -0.31107960812E+02  0.67808677239E+02  0.00000000000E+00 0.  1.
<scales pt_clust_3="48.00381" pt_clust_4="43.16169" pt_clust_5="267.56292" pt_clust_6="43.16169"></scales>
<clustering>
<clus scale="   43.162">  4  6 -1 -1</clus>
<clus scale="   48.004">  2  3  1 -1</clus>
<clus scale="  267.563">  1  5  2 -1</clus>
<clus scale="  267.563">  1  3  2 -1</clus>
</clustering>
</event>
<event>
 6    0  0.1438923E+002  0.1805043E+03  0.7546771E-02  0.1167316E+00
         21   -1    0    0  506  501  0.00000000000E+00  0.00000000000E+00  0.53437232344E+03  0.53437232344E+03  0.00000000000E+00 0.  1.
         21   -1    0    0  505  502 -0.00000000000E+00 -0.00000000000E+00 -0.21825780507E+03  0.21825780507E+03  0.00000000000E+00 0.  1.
         21    1    1    2  503  504  0.95957998489E+02 -0.31725469921E+02  0.15170616715E+03  0.18228879304E+03  0.00000000000E+00 0.  1.
         21    1    1    2  504  501  0.33790197588E+02 -0.49949403252E+02  0.16684747419E+03  0.17741138628E+03  0.00000000000E+00 0.  1.
         21    1    1    2  505  503 -0.15152768693E+02  0.21285395743E+03 -0.33475913988E+02  0.21600243149E+03  0.00000000000E+00 0.  1.
         21    1    1    2  506  502 -0.11459542738E+03 -0.13117908426E+03  0.31036791017E+02  0.17692751770E+03  0.00000000000E+00 0.  1.
<scales pt_clust_3="167.05627" pt_clust_4="51.25301" pt_clust_5="14000.00000" pt_clust_6="180.50429"></scales>
<clustering>
<clus scale="   51.253">  3  4 -1 -1</clus>
<clus scale="  167.056">  1  3  2 -1</clus>
<clus scale="  180.504">  1  6  2 -1</clus>
<clus scale="  167.056">  1  3  2 -1</clus>
</clustering>
</event>
<event>
 6    0  0.1438923E+002  0.1813585E+03  0.7546771E-02  0.1166495E+00
         21   -1    0    0  503  501  0.00000000000E+00  0.00000000000E+00  0.45997010032E+04  0.45997010032E+04  0.00000000000E+00 0. -1.
         21   -1    0    0  505  502 -0.00000000000E+00 -0.00000000000E+00 -0.43218796285E+02  0.43218796285E+02  0.00000000000E+00 0. -1.
         21    1    1    2  503  506  0.46135677383E+02 -0.39106594094E+01  0.69875311061E+03  0.70028544435E+03  0.00000000000E+00 0.  1.
         21    1    1    2  504  502 -0.58507543314E+02 -0.17372181893E+03  0.18013924940E+03  0.25700691074E+03  0.00000000000E+00 0. -1.
         21    1    1    2  505  501 -0.72792419211E+02  0.12018465746E+03  0.21555481107E+04  0.21601228543E+04  0.00000000000E+00 0. -1.
         21    1    1    2  506  504  0.85164285142E+02  0.57447820876E+02  0.15220417362E+04  0.15255045901E+04  0.00000000000E+00 0. -1.
<scales pt_clust_3="30.80629" pt_clust_4="175.45737" pt_clust_5="140.51010" pt_clust_6="30.80629"></scales>
<clustering>
<clus scale="   30.806">  3  6 -1 -1</clus>
<clus scale="  140.510">  1  5  2 -1</clus>
<clus scale="  175.457">  2  4  1 -1</clus>
<clus scale="  140.510">  1  3  2 -1</clus>
</clustering>
</event>
<event>
 6    0  0.1438923E+002  0.1000977E+03  0.7546771E-02  0.1280091E+00
         21   -1    0    0  504  501  0.00000000000E+00  0.00000000000E+00  0.29427856855E+02  0.29427856855E+02  0.00000000000E+00 0.  1.
         21   -1    0    0  506  502 -0.00000000000E+00 -0.00000000000E+00 -0.77183398173E+03  0.77183398173E+03  0.00000000000E+00 0.  1.
         21    1    1    2  503  502  0.36550974134E+02 -0.50894970794E+02 -0.11044287864E+03  0.12697992442E+03  0.00000000000E+00 0.  1.
         21    1    1    2  504  505  0.28843108594E+02  0.87013995110E+02 -0.14325114353E+03  0.17007130969E+03  0.00000000000E+00 0.  1.
         21    1    1    2  505  503 -0.74466199153E+01 -0.45617448942E+02 -0.89775035545E+02  0.10097505040E+03  0.00000000000E+00 0. -1.
         21    1    1    2  506  501 -0.57947462813E+02  0.94984246258E+01 -0.39893706716E+03  0.40323555408E+03  0.00000000000E+00 0.  1.
<scales pt_clust_3="35.56317" pt_clust_4="91.13182" pt_clust_5="35.56317" pt_clust_6="58.72077"></scales>
<clustering>
<clus scale="   35.563">  3  5 -1 -1</clus>
<clus scale="   58.721">  2  6  1 -1</clus>
<clus scale="   91.132">  1  4  2 -1</clus>
<clus scale="   91.132">  1  3  2 -1</clus>
</clustering>
</event>
<event>
 6    0  0.1438923E+002  0.1073624E+03  0.7546771E-02  0.1265534E+00
         21   -1    0    0  503  501  0.00000000000E+00  0.00000000000E+00  0.61279606300E+03  0.61279606300E+03  0.00000000000E+00 0.  1.
         21   -1    0    0  505  502 -0.00000000000E+00 -0.00000000000E+00 -0.17866916212E+03  0.17866916212E+03  0.00000000000E+00 0.  1.
         21    1    1    2  503  504 -0.29496754874E+02  0.29523488210E+02  0.12149829939E+03  0.12846607201E+03  0.00000000000E+00 0.  1.
         21    1    1    2  504  502 -0.93352641042E+02 -0.59798411515E+02 -0.14466238043E+03  0.18225742761E+03  0.00000000000E+00 0.  1.
         21    1    1    2  505  506  0.84846815088E+02  0.80110534897E+00  0.17619695344E+03  0.19556326394E+03  0.00000000000E+00 0.  1.
         21    1    1    2  506  501  0.38002580827E+02  0.29473817956E+02  0.28109402848E+03  0.28517846157E+03  0.00000000000E+00 0.  1.
<scales pt_clust_3="41.73362" pt_clust_4="107.36235" pt_clust_5="14000.00000" pt_clust_6="51.07383"></scales>
<clustering>
<clus scale="   41.734">  1  3  2 -1</clus>
<clus scale="   51.074">  1  6  2 -1</clus>
<clus scale="  107.362">  2  4  1 -1</clus>
<clus scale="   41.734">  1  3  2 -1</clus>
</clustering>
</event>
<event>
 6    0  0.1438923E+002  0.1635731E+03  0.7546771E-02  0.1184721E+00
         21   -1    0    0  504  501  0.00000000000E+00  0.00000000000E+00  0.24648347438E+03  0.24648347438E+03  0.00000000000E+00 0. -1.
         21   -1    0    0  501  502 -0.00000000000E+00 -0.00000000000E+00 -0.75690619771E+03  0.75690619771E+03  0.00000000000E+00 0.  1.
         21    1    1    2  503  502 -0.15283363942E+02  0.55659936498E+02 -0.54866733361E+03  0.55169507223E+03  0.00000000000E+00 0.  1.
         21    1    1    2  504  505 -0.13085745053E+02  0.30507803800E+02  0.26529430419E+02  0.42494393685E+02  0.00000000000E+00 0. -1.
         21    1    1    2  505  506 -0.86335030603E+02 -0.16771533793E+03  0.12689237722E+03  0.22734081789E+03  0.00000000000E+00 0. -1.
         21    1    1    2  506  503  0.11470413960E+03  0.81547597630E+02 -0.11517719735E+03  0.18185938829E+03  0.00000000000E+00 0. -1.
<scales pt_clust_3="57.95496" pt_clust_4="33.19583" pt_clust_5="163.57306" pt_clust_6="14000.00000"></scales>
<clustering>
<clus scale="   33.196">  1  4  2 -1</clus>
<clus scale="   57.955">  2  3  1 -1</clus>
<clus scale="  163.573">  1  5  2 -1</clus>
<clus scale="   33.196">  1  3  2 -1</clus>
</clustering>
</event>
<event>
 6    0  0.1438923E+002  0.1249043E+03  0.7546771E-02  0.1235219E+00
         21   -1    0    0  503  501  0.00000000000E+00  0.00000000000E+00  0.50574118162E+03  0.50574118162E+03  0.00000000000E+00 0. -1.
         21   -1    0    0  506  502 -0.00000000000E+00 -0.00000000000E+00 -0.83261379056E+02  0.83261379056E+02  0.00000000000E+00 0. -1.
         21    1    1    2  503  505 -0.44639857339E+02  0.11268038110E+02  0.18896699436E+03  0.19449475701E+03  0.00000000000E+00 0. -1.
         21    1    1    2  504  502  0.35064509930E+02 -0.49299848213E+01 -0.40337262846E+02  0.53674196602E+02  0.00000000000E+00 0. -1.
         21    1    1    2  505  504 -0.83458250942E+02 -0.18146276145E+02  0.21183193992E+03  0.22840170262E+03  0.00000000000E+00 0. -1.
         21    1    1    2  506  501  0.93033598351E+02  0.11808222856E+02  0.62018131129E+02  0.11243190445E+03  0.00000000000E+00 0. -1.
<scales pt_clust_3="30.67184" pt_clust_4="35.40939" pt_clust_5="30.67184" pt_clust_6="117.71106"></scales>
<clustering>
<clus scale="   30.672">  3  5 -1 -1</clus>
<clus scale="   35.409">  2  4  1 -1</clus>
<clus scale="  117.711">  2  6  1 -1</clus>
<clus scale="  124.904">  1  3  2 -1</clus>
</clustering>
</event>
<event>
 6    0  0.1438923E+002  0.1351261E+03  0.7546771E-02  0.1220042E+00
         21   -1    0    0  502  501  0.00000000000E+00  0.00000000000E+00  0.11413168459E+03  0.11413168459E+03  0.00000000000E+00 0.  1.
         21   -1    0    0  505  502 -0.00000000000E+00 -0.00000000000E+00 -0.25790477825E+03  0.25790477825E+03  0.00000000000E+00 0.  1.
         21    1    1    2  503  504  0.59197331506E+02  0.67301918080E+02  0.13870429029E+02  0.90698737787E+02  0.00000000000E+00 0.  1.
         21    1    1    2  504  501 -0.10738861722E+02  0.43307873263E+02  0.56446547829E+01  0.44975072710E+02  0.00000000000E+00 0.  1.
         21    1    1    2  505  506  0.38744287086E+02 -0.15305377589E+02 -0.37254984396E+02  0.55886565713E+02  0.00000000000E+00 0. -1.
         21    1    1    2  506  503 -0.87202756869E+02 -0.95304413754E+02 -0.12603319308E+03  0.18047608663E+03  0.00000000000E+00 0.  1.
<scales pt_clust_3="41.40469" pt_clust_4="41.40469" pt_clust_5="41.65782" pt_clust_6="121.71796"></scales>
<clustering>
<clus scale="   41.405">  3  4 -1 -1</clus>
<clus scale="   41.658">  2  5  1 -1</clus>
<clus scale="  121.718">  2  6  1 -1</clus>
<clus scale="  135.126">  1  3  2 -1</clus>
</clustering>
</event>
<event>
 6    0  0.1664362E+002  0.8170111E+02  0.7546771E-02  0.1324292E+00
         21   -1    0    0  506  501  0.00000000000E+00  0.00000000000E+00  0.31988266079E+03  0.31988266079E+03  0.00000000000E+00 0. -1.
         21   -1    0    0  504  502 -0.00000000000E+00 -0.00000000000E+00 -0.92565086938E+03  0.92565086938E+03  0.00000000000E+00 0. -1.
         21    1    1    2  503  505 -0.45577987079E+02 -0.83327161827E+02  0.90698931965E+02  0.13132808178E+03  0.00000000000E+00 0. -1.
         21    1    1    2  504  501  0.69471352211E+01  0.45657861981E+02 -0.92200586156E+01  0.47094718699E+02  0.00000000000E+00 0. -1.
         21    1    1    2  505  502  0.67522873931E+02  0.45904720855E+02 -0.87407625554E+03  0.87788147400E+03  0.00000000000E+00 0. -1.
         21    1    1    2  506  503 -0.28892022073E+02 -0.82354210091E+01  0.18682917360E+03  0.18922925569E+03  0.00000000000E+00 0. -1.
<scales pt_clust_3="81.70111" pt_clust_4="44.56296" pt_clust_5="14000.00000" pt_clust_6="30.04282"></scales>
<clustering>
<clus scale="   30.043">  1  6  2 -1</clus>
<clus scale="   44.563">  1  4  2 -1</clus>
<clus scale="   81.701">  1  3  2 -1</clus>
<clus scale="   30.043">  1  3  2 -1</clus>
</clustering>
</event>
<event>
 6    0  0.1438923E+002  0.1345155E+03  0.7546771E-02  0.1220905E+00
         21   -1    0    0  506  501  0.00000000000E+00  0.00000000000E+00  0.20395628756E+04  0.20395628756E+04  0.00000000000E+00 0.  1.
         21   -1    0    0  504  502 -0.00000000000E+00 -0.00000000000E+00 -0.42440788285E+02  0.42440788285E+02  0.00000000000E+00 0.  1.
         21    1    1    2  503  502  0.31219931645E+02 -0.83509812926E+02  0.58009581352E+03  0.58690691413E+03  0.00000000000E+00 0.  1.
         21    1    1    2  504  505 -0.46909442604E+02  0.49531552287E+02  0.43990584538E+00  0.68220700631E+02  0.00000000000E+00 0.  1.
         21    1    1    2  505  501 -0.15356793936E+02  0.88370059626E+02  0.48760498736E+03  0.49578596416E+03  0.00000000000E+00 0.  1.
         21    1    1    2  506  503  0.31046304895E+02 -0.54391798987E+02  0.92898138054E+03  0.93109008492E+03  0.00000000000E+00 0.  1.
<scales pt_clust_3="53.71245" pt_clust_4="68.21928" pt_clust_5="118.26857" pt_clust_6="53.71245"></scales>
<clustering>
<clus scale="   53.712">  3  6 -1 -1</clus>
<clus scale="   68.219">  2  4  1 -1</clus>
<clus scale="  118.269">  2  5  1 -1</clus>
<clus scale="  134.516">  1  3  2 -1</clus>
</clustering>
</event>
<event>
 6    0  0.1438923E+002  0.6833489E+02  0.7546771E-02  0.1365849E+00
         21   -1    0    0  504  501  0.00000000000E+00  0.00000000000E+00  0.11053458068E+04  0.11053458068E+04  0.00000000000E+00 0. -1.
         21   -1    0    0  506  502 -0.00000000000E+00 -0.00000000000E+00 -0.21692257135E+02  0.21692257135E+02  0.00000000000E+00 0.  1.
         21    1    1    2  503  501 -0.61456693443E+02  0.75837929019E+01  0.45009866589E+03  0.45433825298E+03  0.00000000000E+00 0. -1.
         21    1    1    2  504  502  0.47589281335E+01 -0.90019157779E+02  0.39546268300E+03  0.40560674281E+03  0.00000000000E+00 0. -1.
         21    1    1    2  505  503  0.35528158842E+02  0.46569565534E+02  0.20697766468E+03  0.21510631832E+03  0.00000000000E+00 0.  1.
         21    1    1    2  506  505  0.21169606468E+02  0.35865799343E+02  0.31114536072E+02  0.51986749807E+02  0.00000000000E+00 0.  1.
<scales pt_clust_3="59.23158" pt_clust_4="68.33489" pt_clust_5="14000.00000" pt_clust_6="41.64742"></scales>
<clustering>
<clus scale="   41.647">  2  6  1 -1</clus>
<clus scale="   59.232">  1  3  2 -1</clus>
<clus scale="   68.335">  2  4  1 -1</clus>
<clus scale="   59.232">  1  3  2 -1</clus>
</clustering>
</event>
<event>
 6    0  0.1438923E+002  0.1569263E+03  0.7546771E-02  0.1192211E+00
         21   -1    0    0  506  501  0.00000000000E+00  0.00000000000E+00  0.12826695502E+03  0.12826695502E+03  0.00000000000E+00 0. -1.
         21   -1    0    0  505  502 -0.00000000000E+00 -0.00000000000E+00 -0.57780413314E+03  0.57780413314E+03  0.00000000000E+00 0. -1.
         21    1    1    2  503  501 -0.46188269502E+02  0.17683010395E+03 -0.56536661025E+02  0.19130769964E+03  0.00000000000E+00 0. -1.
         21    1    1    2  504  502 -0.34171172150E+02 -0.34972205806E+02 -0.40624112187E+02  0.63569195968E+02  0.00000000000E+00 0. -1.
         21    1    1    2  505  503  0.31648270023E+02 -0.13699526779E+02 -0.30378270818E+03  0.30573391016E+03  0.00000000000E+00 0. -1.
         21    1    1    2  506  504  0.48711171629E+02 -0.12815837137E+03 -0.48593696727E+02  0.14546028239E+03  0.00000000000E+00 0. -1.
<scales pt_clust_3="156.92633" pt_clust_4="46.94851" pt_clust_5="34.48608" pt_clust_6="14000.00000"></scales>
<clustering>
<clus scale="   34.486">  2  5  1 -1</clus>
<clus scale="   46.949">  2  4  1 -1</clus>
<clus scale="  156.926">  2  3  1 -1</clus>
<clus scale="  156.926">  1  3  2 -1</clus>
</clustering>
</event>
<event>
 6    0  0.1438923E+002  0.9467905E+02  0.7546771E-02  0.1291901E+00
         21   -1    0    0  504  501  0.00000000000E+00  0.00000000000E+00  0.36916513190E+03  0.36916513190E+03  0.00000000000E+00 0.  1.
         21   -1    0    0  506  502 -0.00000000000E+00 -0.00000000000E+00 -0.25665027260E+03  0.25665027260E+03  0.00000000000E+00 0. -1.
         21    1    1    2  503  501 -0.27057436967E+02 -0.19106095433E+02  0.69255289042E+01  0.33839484755E+02  0.00000000000E+00 0. -1.
         21    1    1    2  504  505  0.89806959934E+02  0.97340439796E+02  0.32027383540E+03  0.34657723658E+03  0.00000000000E+00 0.  1.
         21    1    1    2  505  502 -0.22218308750E+02 -0.27314161480E+02 -0.14834217403E+03  0.15246349483E+03  0.00000000000E+00 0. -1.
         21    1    1    2  506  503 -0.40531214218E+02 -0.50920182883E+02 -0.66342330979E+02  0.92935188333E+02  0.00000000000E+00 0. -1.
<scales pt_clust_3="33.12322" pt_clust_4="94.67905" pt_clust_5="35.39809" pt_clust_6="14000.00000"></scales>
<clustering>
<clus scale="   33.123">  1  3  2 -1</clus>
<clus scale="   35.398">  2  5  1 -1</clus>
<clus scale="   94.679">  1  4  2 -1</clus>
<clus scale="   33.123">  1  3  2 -1</clus>
</clustering>
</event>
<event>
 6    0  0.1438923E+002  0.1371328E+03  0.7546771E-02  0.1217240E+00
         21   -1    0    0  503  501  0.00000000000E+00  0.00000000000E+00  0.29422127664E+03  0.29422127664E+03  0.00000000000E+00 0. -1.
         21   -1    0    0  501  502 -0.00000000000E+00 -0.00000000000E+00 -0.57265606577E+03  0.57265606577E+03  0.00000000000E+00 0. -1.
         21    1    1    2  503  506 -0.11140822768E+03 -0.63542484897E+02  0.14831405936E+03  0.19607779269E+03  0.00000000000E+00 0. -1.
         21    1    1    2  504  505  0.85655368165E+02 -0.88259096270E+01  0.52060793464E+02  0.10062338194E+03  0.00000000000E+00 0. -1.
         21    1    1    2  505  502 -0.13815528307E+02  0.38443984903E+02 -0.50853634546E+03  0.51017450294E+03  0.00000000000E+00 0. -1.
         21    1    1    2  506  504  0.39568387820E+02  0.33924409621E+02  0.29726703503E+02  0.60001664844E+02  0.00000000000E+00 0. -1.
<scales pt_clust_3="126.51132" pt_clust_4="44.25020" pt_clust_5="40.85106" pt_clust_6="44.25020"></scales>
<clustering>
<clus scale="   40.851">  2  5  1 -1</clus>
<clus scale="   44.250">  4  6 -1 -1</clus>
<clus scale="  126.511">  1  3  2 -1</clus>
<clus scale="  126.511">  1  3  2 -1</clus>
</clustering>
</event>
<event>
 6    0  0.1438923E+002  0.1849436E+03  0.7546771E-02  0.1163103E+00
         21   -1    0    0  504  501  0.00000000000E+00  0.00000000000E+00  0.12755530980E+04  0.12755530980E+04  0.00000000000E+00 0. -1.
         21   -1    0    0  506  502 -0.00000000000E+00 -0.00000000000E+00 -0.58102456409E+03  0.58102456409E+03  0.00000000000E+00 0.  1.
         21    1    1    2  503  505 -0.13526408584E+03 -0.13554214705E+03  0.23404662108E+02  0.19291403462E+03  0.00000000000E+00 0. -1.
         21    1    1    2  504  503  0.64203126995E+02  0.86209812935E+02  0.89543677317E+03  0.90186539357E+03  0.00000000000E+00 0. -1.
         21    1    1    2  505  502  0.25002063819E+02 -0.26201848724E+02 -0.48508120704E+03  0.48643130810E+03  0.00000000000E+00 0.  1.
         21    1    1    2  506  501  0.46058895024E+02  0.75534182841E+02  0.26076830565E+03  0.27536692579E+03  0.00000000000E+00 0. -1.
<scales pt_clust_3="184.94360" pt_clust_4="14000.00000" pt_clust_5="36.21657" pt_clust_6="87.79362"></scales>
<clustering>
<clus scale="   36.217">  2  5  1 -1</clus>
<clus scale="   87.794">  1  6  2 -1</clus>
<clus scale="  184.944">  2  3  1 -1</clus>
<clus scale="   87.794">  1  3  2 -1</clus>
</clustering>
</event>
<event>
 6    0  0.1438923E+002  0.8278651E+02  0.7546771E-02  0.1321325E+00
         21   -1    0    0  503  501  0.00000000000E+00  0.00000000000E+00  0.26139262229E+03  0.26139262229E+03  0.00000000000E+00 0. -1.
         21   -1    0    0  506  502 -0.00000000000E+00 -0.00000000000E+00 -0.56775359881E+03  0.56775359881E+03  0.00000000000E+00 0. -1.
         21    1    1    2  503  505 -0.71799467931E+02 -0.42366280356E+02  0.17295234788E+03  0.19199630190E+03  0.00000000000E+00 0. -1.
         21    1    1    2  504  501 -0.91015326133E+01 -0.95161899675E+02 -0.13806984968E+02  0.96588083528E+02  0.00000000000E+00 0. -1.
         21    1    1    2  505  502  0.51411291560E+02  0.67595560613E+02 -0.18188461453E+02  0.86851026732E+02  0.00000000000E+00 0. -1.
         21    1    1    2  506  504  0.29489708984E+02  0.69932619418E+02 -0.44731787798E+03  0.45371080894E+03  0.00000000000E+00 0. -1.
<scales pt_clust_3="14000.00000" pt_clust_4="62.42034" pt_clust_5="82.78651" pt_clust_6="75.89607"></scales>
<clustering>
<clus scale="   75.896">  2  6  1 -1</clus>
<clus scale="   62.420">  2  4  1 -1</clus>
<clus scale="   82.787">  2  5  1 -1</clus>
<clus scale="   82.787">  1  3  2 -1</clus>
</clustering>
</event>
<event>
 6    0  0.1438923E+002  0.1303785E+03  0.7546771E-02  0.1226895E+00
         21   -1    0    0  505  501  0.00000000000E+00  0.00000000000E+00  0.60100364418E+03  0.60100364418E+03  0.00000000000E+00 0. -1.
         21   -1    0    0  503  502 -0.00000000000E+00 -0.00000000000E+00 -0.63925132419E+02  0.63925132419E+02  0.00000000000E+00 0.  1.
         21    1    1    2  503  506 -0.20650320342E+02  0.54639287037E+02  0.70808958966E+02  0.91792135219E+02  0.00000000000E+00 0.  1.
         21    1    1    2  504  501  0.64177433155E+01 -0.81851686555E+02  0.31958324522E+03  0.32996111384E+03  0.00000000000E+00 0. -1.
         21    1    1    2  505  502  0.55029915990E+02  0.62627894064E+02 -0.36265592626E+01  0.83448766923E+02  0.00000000000E+00 0.  1.
         21    1    1    2  506  504 -0.40797338964E+02 -0.35415494546E+02  0.15031286684E+03  0.15972676062E+03  0.00000000000E+00 0. -1.
<scales pt_clust_3="58.41136" pt_clust_4="51.67613" pt_clust_5="113.75518" pt_clust_6="51.67613"></scales>
<clustering>
<clus scale="   51.676">  4  6 -1 -1</clus>
<clus scale="   58.411">  2  3  1 -1</clus>
<clus scale="  113.755">  2  5  1 -1</clus>
<clus scale="  130.378">  1  3  2 -1</clus>
</clustering>
</event>
<event>
 6    0  0.1438923E+002  0.1237892E+03  0.7546771E-02  0.1236974E+00
         21   -1    0    0  506  501  0.00000000000E+00  0.00000000000E+00  0.18766247462E+03  0.18766247462E+03  0.00000000000E+00 0.  1.
         21   -1    0    0  504  502 -0.00000000000E+00 -0.00000000000E+00 -0.10961623972E+04  0.10961623972E+04  0.00000000000E+00 0.  1.
         21    1    1    2  503  501  0.62887686555E+02 -0.22119196329E+02  0.24129681801E+02  0.70896837096E+02  0.00000000000E+00 0.  1.
         21    1    1    2  504  503  0.32540115929E+00  0.11064767870E+03 -0.10424985527E+04  0.10483540657E+04  0.00000000000E+00 0.  1.
         21    1    1    2  505  502 -0.66969591154E+02 -0.50398605322E+02  0.81434340159E+02  0.11686101709E+03  0.00000000000E+00 0.  1.
         21    1    1    2  506  505  0.37565034396E+01 -0.38129877052E+02  0.28434608150E+02  0.47712951939E+02  0.00000000000E+00 0.  1.
<scales pt_clust_3="66.66423" pt_clust_4="110.19779" pt_clust_5="38.12845" pt_clust_6="38.12845"></scales>
<clustering>
<clus scale="   38.128">  5  6 -1 -1</clus>
<clus scale="   66.664">  1  3  2 -1</clus>
<clus scale="  110.198">  2  4  1 -1</clus>
<clus scale="   66.664">  1  3  2 -1</clus>
</clustering>
</event>
<event>
 6    0  0.1438923E+002  0.1541541E+03  0.7546771E-02  0.1195459E+00
         21   -1    0    0  503  501  0.00000000000E+00  0.00000000000E+00  0.54839507883E+02  0.54839507883E+02  0.00000000000E+00 0. -1.
         21   -1    0    0  504  502 -0.00000000000E+00 -0.00000000000E+00 -0.16114331486E+04  0.16114331486E+04  0.00000000000E+00 0. -1.
         21    1    1    2  503  502  0.13107604682E+03  0.32399857459E+02 -0.10246320312E+04  0.10334899517E+04  0.00000000000E+00 0. -1.
         21    1    1    2  504  505 -0.18871294658E+02  0.78842303819E+02 -0.25561567653E+03  0.26816339930E+03  0.00000000000E+00 0. -1.
         21    1    1    2  505  506 -0.66762684719E+02  0.32941901674E+02 -0.15054563073E+03  0.16794764627E+03  0.00000000000E+00 0. -1.
         21    1    1    2  506  501 -0.45442067444E+02 -0.14418406295E+03 -0.12580030222E+03  0.19667165922E+03  0.00000000000E+00 0. -1.
<scales pt_clust_3="135.02104" pt_clust_4="70.39971" pt_clust_5="70.39971" pt_clust_6="135.52321"></scales>
<clustering>
<clus scale="   70.400">  4  5 -1 -1</clus>
<clus scale="  135.021">  2  3  1 -1</clus>
<clus scale="  135.523">  1  6  2 -1</clus>
<clus scale="  135.523">  1  3  2 -1</clus>
</clustering>
</event>
<event>
 6    0  0.1438923E+002  0.9864135E+02  0.7546771E-02  0.1283179E+00
         21   -1    0    0  506  501  0.00000000000E+00  0.00000000000E+00  0.39518537118E+02  0.39518537118E+02  0.00000000000E+00 0.  1.
         21   -1    0    0  504  502 -0.00000000000E+00 -0.00000000000E+00 -0.16075100412E+04  0.16075100412E+04  0.00000000000E+00 0. -1.
         21    1    1    2  503  501 -0.32947555835E+01 -0.31477264949E+02 -0.43230652821E+02  0.53577634946E+02  0.00000000000E+00 0.  1.
         21    1    1    2  504  503  0.56423779438E+02  0.33794361292E+02 -0.89185274667E+02  0.11081387530E+03  0.00000000000E+00 0.  1.
         21    1    1    2  505  502 -0.10597001891E+03 -0.29914232551E+01 -0.14247571799E+04  0.14286957742E+04  0.00000000000E+00 0. -1.
         21    1    1    2  506  505  0.52840995052E+02  0.67432691193E+00 -0.10818396651E+02  0.53941293839E+02  0.00000000000E+00 0.  1.
<scales pt_clust_3="31.64923" pt_clust_4="14000.00000" pt_clust_5="98.64135" pt_clust_6="54.24168"></scales>
<clustering>
<clus scale="   31.649">  1  3  2 -1</clus>
<clus scale="   54.242">  1  6  2 -1</clus>
<clus scale="   98.641">  2  5  1 -1</clus>
<clus scale="   31.649">  1  3  2 -1</clus>
</clustering>
</event>
<event>
 6    0  0.1438923E+002  0.1184035E+03  0.7546771E-02  0.1245754E+00
         21   -1    0    0  504  501  0.00000000000E+00  0.00000000000E+00  0.38850225535E+03  0.38850225535E+03  0.00000000000E+00 0.  1.
         21   -1    0    0  505  502 -0.00000000000E+00 -0.00000000000E+00 -0.31239790977E+03  0.31239790977E+03  0.00000000000E+00 0.  1.
         21    1    1    2  503  502 -0.78065329093E+02 -0.14878037532E+03  0.17632147145E+03  0.24355503891E+03  0.00000000000E+00 0.  1.
         21    1    1    2  504  503 -0.13341098375E+02  0.37963158175E+02  0.38700660022E+02  0.55829448955E+02  0.00000000000E+00 0.  1.
         21    1    1    2  505  506  0.24673295959E+02  0.53659157667E+02 -0.25170585059E+03  0.25854189594E+03  0.00000000000E+00 0.  1.
         21    1    1    2  506  501  0.66733131509E+02  0.57158059476E+02  0.11278806470E+03  0.14297378131E+03  0.00000000000E+00 0.  1.
<scales pt_clust_3="14000.00000" pt_clust_4="40.23911" pt_clust_5="59.35026" pt_clust_6="118.40347"></scales>
<clustering>
<clus scale="   40.239">  1  4  2 -1</clus>
<clus scale="   59.350">  2  5  1 -1</clus>
<clus scale="  118.403">  1  6  2 -1</clus>
<clus scale="   40.239">  1  3  2 -1</clus>
</clustering>
</event>
<event>
 6    0  0.1438923E+002  0.3323685E+03  0.7546771E-02  0.1070094E+00
         21   -1    0    0  505  501  0.00000000000E+00  0.00000000000E+00  0.92236397236E+03  0.92236397236E+03  0.00000000000E+00 0.  1.
         21   -1    0    0  504  502 -0.00000000000E+00 -0.00000000000E+00 -0.22641763634E+03  0.22641763634E+03  0.00000000000E+00 0.  1.
         21    1    1    2  503  501  0.18912222132E+03 -0.95358429487E+02  0.14537459443E+03  0.25689339691E+03  0.00000000000E+00 0.  1.
         21    1    1    2  504  506 -0.20062658253E+02 -0.36763850994E+02 -0.81161285097E+02  0.91330417686E+02  0.00000000000E+00 0.  1.
         21    1    1    2  505  502 -0.24708105324E+03  0.21151522416E+03  0.60374335703E+03  0.68577968626E+03  0.00000000000E+00 0.  1.
         21    1    1    2  506  503  0.78021490169E+02 -0.79392943676E+02  0.27989669659E+02  0.11477810785E+03  0.00000000000E+00 0.  1.
<scales pt_clust_3="58.10154" pt_clust_4="41.88187" pt_clust_5="322.93668" pt_clust_6="58.10154"></scales>
<clustering>
<clus scale="   41.882">  2  4  1 -1</clus>
<clus scale="   58.102">  3  6 -1 -1</clus>
<clus scale="  322.937">  1  5  2 -1</clus>
<clus scale="  322.937">  1  3  2 -1</clus>
</clustering>
</event>
<event>
 6    0  0.1438923E+002  0.7309164E+02  0.7546771E-02  0.1349885E+00
         21   -1    0    0  504  501  0.00000000000E+00  0.00000000000E+00  0.62864153235E+03  0.62864153235E+03  0.00000000000E+00 0. -1.
         21   -1    0    0  505  502 -0.00000000000E+00 -0.00000000000E+00 -0.63260325352E+02  0.63260325352E+02  0.00000000000E+00 0. -1.
         21    1    1    2  503  501 -0.33648955921E+02 -0.43031692202E+02  0.96611917654E+02  0.11098577117E+03  0.00000000000E+00 0. -1.
         21    1    1    2  504  506  0.22959872256E+02 -0.66701786335E+02  0.26351898544E+03  0.27279761678E+03  0.00000000000E+00 0. -1.
         21    1    1    2  505  503  0.69995827884E+02  0.67938594051E+02  0.21385962400E+03  0.23505532808E+03  0.00000000000E+00 0. -1.
         21    1    1    2  506  502 -0.59306744219E+02  0.41794884485E+02 -0.86093200933E+01  0.73063141675E+02  0.00000000000E+00 0. -1.
<scales pt_clust_3="54.62581" pt_clust_4="73.09164" pt_clust_5="14000.00000" pt_clust_6="72.79807"></scales>
<clustering>
<clus scale="   54.626">  1  3  2 -1</clus>
<clus scale="   72.798">  2  6  1 -1</clus>
<clus scale="   73.092">  2  4  1 -1</clus>
<clus scale="   54.626">  1  3  2 -1</clus>
</clustering>
</event>
<event>
 6    0  0.1438923E+002  0.7587522E+02  0.7546771E-02  0.1341182E+00
         21   -1    0    0  505  501  0.00000000000E+00  0.00000000000E+00  0.16582180709E+03  0.16582180709E+03  0.00000000000E+00 0.  1.
         21   -1    0    0  506  502 -0.00000000000E+00 -0.00000000000E+00 -0.45391363582E+03  0.45391363582E+03  0.00000000000E+00 0.  1.
         21    1    1    2  503  502 -0.68249799884E+01  0.78010613040E+02  0.10190801607E+03  0.12852034795E+03  0.00000000000E+00 0.  1.
         21    1    1    2  504  501 -0.17585961223E+02  0.25548222820E+02 -0.90760190143E+01  0.32316433011E+02  0.00000000000E+00 0.  1.
         21    1    1    2  505  503 -0.37066094300E+02 -0.57800515934E+02  0.16899851267E+01  0.68685158794E+02  0.00000000000E+00 0.  1.
         21    1    1    2  506  504  0.61477035512E+02 -0.45758319926E+02 -0.38261381092E+03  0.39021350315E+03  0.00000000000E+00 0.  1.
<scales pt_clust_3="14000.00000" pt_clust_4="31.01577" pt_clust_5="66.24526" pt_clust_6="75.87522"></scales>
<clustering>
<clus scale="   31.016">  1  4  2 -1</clus>
<clus scale="   66.245">  1  5  2 -1</clus>
<clus scale="   75.875">  2  6  1 -1</clus>
<clus scale="   31.016">  1  3  2 -1</clus>
</clustering>
</event>
<event>
 6    0  0.1438923E+002  0.9899564E+02  0.7546771E-02  0.1282422E+00
         21   -1    0    0  504  501  0.00000000000E+00  0.00000000000E+00  0.10734924467E+04  0.10734924467E+04  0.00000000000E+00 0.  1.
         21   -1    0    0  506  502 -0.00000000000E+00 -0.00000000000E+00 -0.39244842553E+03  0.39244842553E+03  0.00000000000E+00 0. -1.
         21    1    1    2  503  502 -0.46990278658E+02  0.21489252261E+02  0.40231158629E+02  0.65486031913E+02  0.00000000000E+00 0. -1.
         21    1    1    2  504  503 -0.17171018338E+02 -0.33204334982E+02  0.26530269512E+03  0.26792329456E+03  0.00000000000E+00 0.  1.
         21    1    1    2  505  501  0.50658733151E+02  0.10975889630E+03  0.74257923694E+03  0.75235446812E+03  0.00000000000E+00 0.  1.
         21    1    1    2  506  505  0.13502563846E+02 -0.98043813580E+02 -0.36706906949E+03  0.38017707767E+03  0.00000000000E+00 0. -1.
<scales pt_clust_3="51.84689" pt_clust_4="37.38144" pt_clust_5="14000.00000" pt_clust_6="98.99564"></scales>
<clustering>
<clus scale="   37.381">  1  4  2 -1</clus>
<clus scale="   51.847">  1  3  2 -1</clus>
<clus scale="   98.996">  2  6  1 -1</clus>
<clus scale="   37.381">  1  3  2 -1</clus>
</clustering>
</event>
<event>
 6    0  0.1438923E+002  0.2650671E+03  0.7546771E-02  0.1104136E+00
         21   -1    0    0  503  501  0.00000000000E+00  0.00000000000E+00  0.35181683026E+03  0.35181683026E+03  0.00000000000E+00 0.  1.
         21   -1    0    0  501  502 -0.00000000000E+00 -0.00000000000E+00 -0.75607833374E+03  0.75607833374E+03  0.00000000000E+00 0. -1.
         21    1    1    2  503  506 -0.52353191910E+01 -0.99295501082E+02  0.17676014770E+03  0.20280817271E+03  0.00000000000E+00 0.  1.
         21    1    1    2  504  502 -0.31601716040E+02  0.54957417666E+02 -0.47730510956E+02  0.79354822722E+02  0.00000000000E+00 0. -1.
         21    1    1    2  505  504 -0.37928462372E+02  0.17644392705E+03 -0.62354136611E+03  0.64913393295E+03  0.00000000000E+00 0. -1.
         21    1    1    2  506  505  0.74765497603E+02 -0.13210584363E+03  0.90250225886E+02  0.17659823563E+03  0.00000000000E+00 0.  1.
<scales pt_clust_3="97.48572" pt_clust_4="63.39547" pt_clust_5="236.61556" pt_clust_6="97.48572"></scales>
<clustering>
<clus scale="   63.395">  2  4  1 -1</clus>
<clus scale="   97.486">  3  6 -1 -1</clus>
<clus scale="  236.616">  2  5  1 -1</clus>
<clus scale="  265.067">  1  3  2 -1</clus>
</clustering>
</event>
<event>
 6    0  0.1438923E+002  0.1592101E+03  0.7546771E-02  0.1189591E+00
         21   -1    0    0  506  501  0.00000000000E+00  0.00000000000E+00  0.78292957048E+02  0.78292957048E+02  0.00000000000E+00 0.  1.
         21   -1    0    0  503  502 -0.00000000000E+00 -0.00000000000E+00 -0.16427659253E+04  0.16427659253E+04  0.00000000000E+00 0.  1.
         21    1    1    2  503  505 -0.47111268329E+02  0.15236597217E+02 -0.72634266267E+03  0.72802835736E+03  0.00000000000E+00 0.  1.
         21    1    1    2  504  501 -0.79448357979E+02  0.12110316407E+03 -0.62705724466E+02  0.15782910319E+03  0.00000000000E+00 0.  1.
         21    1    1    2  505  504 -0.32781733929E+02  0.52816344959E+02 -0.13290565727E+03  0.14672464724E+03  0.00000000000E+00 0.  1.
         21    1    1    2  506  502  0.15934136024E+03 -0.18915610624E+03 -0.64251892383E+03  0.68847677455E+03  0.00000000000E+00 0.  1.
<scales pt_clust_3="49.51389" pt_clust_4="159.21009" pt_clust_5="68.10899" pt_clust_6="14000.00000"></scales>
<clustering>
<clus scale="   49.514">  2  3  1 -1</clus>
<clus scale="   68.109">  2  5  1 -1</clus>
<clus scale="  159.210">  1  4  2 -1</clus>
<clus scale="  159.210">  1  3  2 -1</clus>
</clustering>
</event>
<event>
 6    0  0.1438923E+002  0.1423147E+03  0.7546771E-02  0.1210248E+00
         21   -1    0    0  506  501  0.00000000000E+00  0.00000000000E+00  0.33735056740E+04  0.33735056740E+04  0.00000000000E+00 0. -1.
         21   -1    0    0  501  502 -0.00000000000E+00 -0.00000000000E+00 -0.16592102475E+02  0.16592102475E+02  0.00000000000E+00 0. -1.
         21    1    1    2  503  505 -0.70760767316E+02  0.28535920854E+02  0.93523112284E+03  0.93833823225E+03  0.00000000000E+00 0. -1.
         21    1    1    2  504  503 -0.49024545596E+02  0.30542748676E+02  0.32830338267E+03  0.33334573140E+03  0.00000000000E+00 0. -1.
         21    1    1    2  505  502 -0.10836704103E+02 -0.34480035666E+02  0.21048920039E+02  0.41825399582E+02  0.00000000000E+00 0. -1.
         21    1    1    2  506  504  0.13062201701E+03 -0.24598633863E+02  0.20723301460E+04  0.20765884132E+04  0.00000000000E+00 0. -1.
<scales pt_clust_3="45.53267" pt_clust_4="45.53267" pt_clust_5="36.14287" pt_clust_6="132.02894"></scales>
<clustering>
<clus scale="   36.143">  2  5  1 -1</clus>
<clus scale="   45.533">  3  4 -1 -1</clus>
<clus scale="  132.029">  1  6  2 -1</clus>
<clus scale="  132.029">  1  3  2 -1</clus>
</clustering>
</event>
<event>
 6    0  0.1438923E+002  0.2033039E+03  0.7546771E-02  0.1146981E+00
         21   -1    0    0  505  501  0.00000000000E+00  0.00000000000E+00  0.11094676617E+04  0.11094676617E+04  0.00000000000E+00 0. -1.
         21   -1    0    0  504  502 -0.00000000000E+00 -0.00000000000E+00 -0.20767087254E+03  0.20767087254E+03  0.00000000000E+00 0. -1.
         21    1    1    2  503  501 -0.53302477934E+02 -0.26408468387E+02  0.50496006241E+03  0.50845179318E+03  0.00000000000E+00 0. -1.
         21    1    1    2  504  503 -0.89713435392E+02 -0.54040236708E+02  0.49460918755E+03  0.50557600426E+03  0.00000000000E+00 0. -1.
         21    1    1    2  505  506 -0.24598926473E+02 -0.27906424368E+02  0.44502603989E+02  0.58003081525E+02  0.00000000000E+00 0.  1.
         21    1    1    2  506  502  0.16761483980E+03  0.10835512946E+03 -0.14227506480E+03  0.24510765526E+03  0.00000000000E+00 0. -1.
<scales pt_clust_3="35.25366" pt_clust_4="35.25366" pt_clust_5="37.20048" pt_clust_6="197.84925"></scales>
<clustering>
<clus scale="   35.254">  3  4 -1 -1</clus>
<clus scale="   37.200">  1  5  2 -1</clus>
<clus scale="  197.849">  2  6  1 -1</clus>
<clus scale="   37.200">  1  3  2 -1</clus>
</clustering>
</event>
<event>
 6    0  0.1438923E+002  0.8478544E+02  0.7546771E-02  0.1315995E+00
         21   -1    0    0  504  501  0.00000000000E+00  0.00000000000E+00  0.17840968617E+03  0.17840968617E+03  0.00000000000E+00 0.  1.
         21   -1    0    0  506  502 -0.00000000000E+00 -0.00000000000E+00 -0.21122160145E+03  0.21122160145E+03  0.00000000000E+00 0.  1.
         21    1    1    2  503  502  0.49280000906E+02 -0.19930883395E+02 -0.16638709504E+02  0.55701034606E+02  0.00000000000E+00 0.  1.
         21    1    1    2  504  503  0.26975302882E+02 -0.28289171402E+02  0.59001990031E+02  0.70775553773E+02  0.00000000000E+00 0.  1.
         21    1    1    2  505  501  0.39357674871E+02  0.10975822493E+02  0.65560932382E+02  0.77251091290E+02  0.00000000000E+00 0.  1.
         21    1    1    2  506  505 -0.11561297866E+03  0.37244232304E+02 -0.14073612819E+03  0.18590360796E+03  0.00000000000E+00 0.  1.
<scales pt_clust_3="14000.00000" pt_clust_4="39.08893" pt_clust_5="56.73666" pt_clust_6="84.78544"></scales>
<clustering>
<clus scale="   39.089">  1  4  2 -1</clus>
<clus scale="   56.737">  1  5  2 -1</clus>
<clus scale="   84.785">  1  6  2 -1</clus>
<clus scale="   39.089">  1  3  2 -1</clus>
</clustering>
</event>
<event>
 6    0  0.1438923E+002  0.1941073E+03  0.7546771E-02  0.1154808E+00
         21   -1    0    0  503  501  0.00000000000E+00  0.00000000000E+00  0.19253275020E+03  0.19253275020E+03  0.00000000000E+00 0. -1.
         21   -1    0    0  504  502 -0.00000000000E+00 -0.00000000000E+00 -0.48227890040E+03  0.48227890040E+03  0.00000000000E+00 0.  1.
         21    1    1    2  503  502  0.12213711668E+02  0.78503871433E+02  0.21534062925E+02  0.82314934542E+02  0.00000000000E+00 0.  1.
         21    1    1    2  504  506  0.16591035168E+03 -0.88577228983E+02 -0.35232902061E+03  0.39938441263E+03  0.00000000000E+00 0.  1.
         21    1    1    2  505  501 -0.14129017125E+03  0.26152090124E+01  0.56880548294E+02  0.15233236224E+03  0.00000000000E+00 0. -1.
         21    1    1    2  506  505 -0.36833892093E+02  0.74581485377E+01 -0.15831740822E+02  0.40779941194E+02  0.00000000000E+00 0. -1.
<scales pt_clust_3="79.44830" pt_clust_4="184.11941" pt_clust_5="31.69619" pt_clust_6="31.69619"></scales>
<clustering>
<clus scale="   31.696">  5  6 -1 -1</clus>
<clus scale="   79.448">  1  3  2 -1</clus>
<clus scale="  184.119">  2  4  1 -1</clus>
<clus scale="   79.448">  1  3  2 -1</clus>
</clustering>
</event>
<event>
 6    0  0.1438923E+002  0.1044630E+03  0.7546771E-02  0.1271181E+00
         21   -1    0    0  503  501  0.00000000000E+00  0.00000000000E+00  0.29141535897E+03  0.29141535897E+03  0.00000000000E+00 0.  1.
         21   -1    0    0  504  502 -0.00000000000E+00 -0.00000000000E+00 -0.11834409999E+04  0.11834409999E+04  0.00000000000E+00 0.  1.
         21    1    1    2  503  502  0.36556759614E+02  0.14652808824E+03  0.21127126078E+03  0.25969679041E+03  0.00000000000E+00 0.  1.
         21    1    1    2  504  505  0.20143451418E+02 -0.23555830375E+02 -0.10145696607E+04  0.10150429706E+04  0.00000000000E+00 0.  1.
         21    1    1    2  505  506 -0.67416686123E+02 -0.68610445336E+02 -0.10497023464E+03  0.14237679915E+03  0.00000000000E+00 0.  1.
         21    1    1    2  506  501  0.10716475091E+02 -0.54361812534E+02  0.16242993710E+02  0.57739798623E+02  0.00000000000E+00 0.  1.
<scales pt_clust_3="104.46300" pt_clust_4="30.99412" pt_clust_5="14000.00000" pt_clust_6="58.76070"></scales>
<clustering>
<clus scale="   30.994">  2  4  1 -1</clus>
<clus scale="   58.761">  1  6  2 -1</clus>
<clus scale="  104.463">  1  3  2 -1</clus>
<clus scale="   58.761">  1  3  2 -1</clus>
</clustering>
</event>
<event>
 6    0  0.1438923E+002  0.8930224E+02  0.7546771E-02  0.1304550E+00
         21   -1    0    0  506  501  0.00000000000E+00  0.00000000000E+00  0.57974205060E+02  0.57974205060E+02  0.00000000000E+00 0. -1.
         21   -1    0    0  503  502 -0.00000000000E+00 -0.00000000000E+00 -0.15110120326E+04  0.15110120326E+04  0.00000000000E+00 0. -1.
         21    1    1    2  503  504 -0.30902116547E+02  0.24256872638E+02 -0.11950460650E+04  0.11956916133E+04  0.00000000000E+00 0. -1.
         21    1    1    2  504  501  0.13088564333E+03 -0.12841220665E+02 -0.11385492278E+03  0.17395083219E+03  0.00000000000E+00 0. -1.
         21    1    1    2  505  502 -0.61923040193E+02 -0.18647918029E+02 -0.14689894845E+03  0.16050392147E+03  0.00000000000E+00 0. -1.
         21    1    1    2  506  505 -0.38060486588E+02  0.72322660562E+01  0.27621086717E+01  0.38839870700E+02  0.00000000000E+00 0. -1.
<scales pt_clust_3="39.58436" pt_clust_4="89.30224" pt_clust_5="14000.00000" pt_clust_6="38.74153"></scales>
<clustering>
<clus scale="   38.742">  1  6  2 -1</clus>
<clus scale="   39.584">  2  3  1 -1</clus>
<clus scale="   89.302">  1  4  2 -1</clus>
<clus scale="   38.742">  1  3  2 -1</clus>
</clustering>
</event>
<event>
 6    0  0.1438923E+002  0.7420306E+02  0.7546771E-02  0.1346357E+00
         21   -1    0    0  505  501  0.00000000000E+00  0.00000000000E+00  0.10371754093E+03  0.10371754093E+03  0.00000000000E+00 0. -1.
         21   -1    0    0  504  502 -0.00000000000E+00 -0.00000000000E+00 -0.40659802286E+03  0.40659802286E+03  0.00000000000E+00 0.  1.
         21    1    1    2  503  501  0.84685933310E+02 -0.20858848017E+02 -0.63414103989E+01  0.87447197365E+02  0.00000000000E+00 0. -1.
         21    1    1    2  504  503 -0.27419954140E+02  0.71470367500E+02 -0.31715808184E+03  0.32626540760E+03  0.00000000000E+00 0.  1.
         21    1    1    2  505  506 -0.98358332052E+01 -0.37687700613E+02  0.26475056056E+02  0.47096018786E+02  0.00000000000E+00 0. -1.
         21    1    1    2  506  502 -0.47430145965E+02 -0.12923818869E+02 -0.58560457472E+01  0.49506940041E+02  0.00000000000E+00 0. -1.
<scales pt_clust_3="74.20306" pt_clust_4="14000.00000" pt_clust_5="38.95005" pt_clust_6="56.56727"></scales>
<clustering>
<clus scale="   38.950">  1  5  2 -1</clus>
<clus scale="   56.567">  1  6  2 -1</clus>
<clus scale="   74.203">  1  3  2 -1</clus>
<clus scale="   38.950">  1  3  2 -1</clus>
</clustering>
</event>
<event>
 6    0  0.1438923E+002  0.1385567E+03  0.7546771E-02  0.1215284E+00
         21   -1    0    0  505  501  0.00000000000E+00  0.00000000000E+00  0.91985922243E+03  0.91985922243E+03  0.00000000000E+00 0. -1.
         21   -1    0    0  504  502 -0.00000000000E+00 -0.00000000000E+00 -0.34901612880E+04  0.34901612880E+04  0.00000000000E+00 0.  1.
         21    1    1    2  503  502 -0.70718319005E+01  0.10069521565E+03 -0.34255327003E+04  0.34270196699E+04  0.00000000000E+00 0.  1.
         21    1    1    2  504  506  0.20413450859E+02  0.37954796277E+02 -0.47991021158E+02  0.64501268578E+02  0.00000000000E+00 0. -1.
         21    1    1    2  505  503 -0.38728013678E+02 -0.30335699853E+02  0.40686881431E+03  0.40983209463E+03  0.00000000000E+00 0. -1.
         21    1    1    2  506  501  0.25386394719E+02 -0.10831431208E+03  0.49635284151E+03  0.50866747735E+03  0.00000000000E+00 0. -1.
<scales pt_clust_3="138.55668" pt_clust_4="43.09612" pt_clust_5="49.17762" pt_clust_6="14000.00000"></scales>
<clustering>
<clus scale="   43.096">  2  4  1 -1</clus>
<clus scale="   49.178">  1  5  2 -1</clus>
<clus scale="  138.557">  2  3  1 -1</clus>
<clus scale="   49.178">  1  3  2 -1</clus>
</clustering>
</event>
<event>
 6    0  0.1438923E+002  0.1139100E+03  0.7546771E-02  0.1253496E+00
         21   -1    0    0  506  501  0.00000000000E+00  0.00000000000E+00  0.25138662058E+03  0.25138662058E+03  0.00000000000E+00 0. -1.
         21   -1    0    0  503  502 -0.00000000000E+00 -0.00000000000E+00 -0.33285633193E+04  0.33285633193E+04  0.00000000000E+00 0. -1.
         21    1    1    2  503  501 -0.20742828543E+02 -0.88323932870E+02  0.20777575685E+03  0.22672041634E+03  0.00000000000E+00 0. -1.
         21    1    1    2  504  505  0.67996548376E+02  0.71842475805E+02 -0.98440580745E+02  0.13955436166E+03  0.00000000000E+00 0.  1.
         21    1    1    2  505  502 -0.38701380564E+02 -0.35448127467E+02 -0.31480555924E+04  0.31484930331E+04  0.00000000000E+00 0. -1.
         21    1    1    2  506  504 -0.85523392693E+01  0.51929584532E+02 -0.38456282426E+02  0.65182128798E+02  0.00000000000E+00 0.  1.
<scales pt_clust_3="93.01793" pt_clust_4="47.95943" pt_clust_5="52.48206" pt_clust_6="47.95943"></scales>
<clustering>
<clus scale="   47.959">  4  6 -1 -1</clus>
<clus scale="   52.482">  2  5  1 -1</clus>
<clus scale="   93.018">  1  3  2 -1</clus>
<clus scale="   93.018">  1  3  2 -1</clus>
</clustering>
</event>
<event>
 6    0  0.2312396E+002  0.1395554E+03  0.7546771E-02  0.1213928E+00
         21   -1    0    0  503  501  0.00000000000E+00  0.00000000000E+00  0.15262205168E+04  0.15262205168E+04  0.00000000000E+00 0.  1.
         21   -1    0    0  506  502 -0.00000000000E+00 -0.00000000000E+00 -0.79682244339E+03  0.79682244339E+03  0.00000000000E+00 0. -1.
         21    1    1    2  503  504  0.11200713090E+03 -0.80929552077E+02  0.14050154358E+04  0.14117944484E+04  0.00000000000E+00 0.  1.
         21    1    1    2  504  502 -0.60733086033E+01 -0.36626935888E+02  0.25211989591E+01  0.37212551030E+02  0.00000000000E+00 0.  1.
         21    1    1    2  505  501 -0.10468106429E+03  0.15375067406E+03  0.87345873672E+01  0.18620872163E+03  0.00000000000E+00 0.  1.
         21    1    1    2  506  505 -0.12527580086E+01 -0.36194186097E+02 -0.68687314869E+03  0.68782723914E+03  0.00000000000E+00 0. -1.
<scales pt_clust_3="14000.00000" pt_clust_4="42.82360" pt_clust_5="139.55542" pt_clust_6="36.21586"></scales>
<clustering>
<clus scale="   36.216">  2  6  1 -1</clus>
<clus scale="   42.824">  2  4  1 -1</clus>
<clus scale="  139.555">  2  5  1 -1</clus>
<clus scale="  139.555">  1  3  2 -1</clus>
</clustering>
</event>
<event>
 6    0  0.1438923E+002  0.1187362E+03  0.7546771E-02  0.1245197E+00
         21   -1    0    0  504  501  0.00000000000E+00  0.00000000000E+00  0.30706306658E+04  0.30706306658E+04  0.00000000000E+00 0. -1.
         21   -1    0    0  505  502 -0.00000000000E+00 -0.00000000000E+00 -0.34140100095E+03  0.34140100095E+03  0.00000000000E+00 0.  1.
         21    1    1    2  503  501  0.98770353475E+00 -0.11518844541E+03  0.26953485364E+04  0.26978089418E+04  0.00000000000E+00 0. -1.
         21    1    1    2  504  506  0.32182441610E+02  0.25955930946E+02  0.79258543903E+02  0.89394276555E+02  0.00000000000E+00 0. -1.
         21    1    1    2  505  503 -0.88119196791E+02  0.79820452461E+02 -0.32168431919E+03  0.34295349347E+03  0.00000000000E+00 0.  1.
         21    1    1    2  506  502  0.54949051646E+02  0.94120620070E+01  0.27630690366E+03  0.28187495490E+03  0.00000000000E+00 0. -1.
<scales pt_clust_3="14000.00000" pt_clust_4="41.34513" pt_clust_5="118.73623" pt_clust_6="59.15333"></scales>
<clustering>
<clus scale="   41.345">  1  4  2 -1</clus>
<clus scale="   59.153">  1  6  2 -1</clus>
<clus scale="  118.736">  2  5  1 -1</clus>
<clus scale="   41.345">  1  3  2 -1</clus>
</clustering>
</event>
<event>
 6    0  0.1438923E+002  0.6526428E+02  0.7546771E-02  0.1376980E+00
         21   -1    0    0  506  501  0.00000000000E+00  0.00000000000E+00  0.14424729618E+04  0.14424729618E+04  0.00000000000E+00 0.  1.
         21   -1    0    0  505  502 -0.00000000000E+00 -0.00000000000E+00 -0.94602283073E+02  0.94602283073E+02  0.00000000000E+00 0. -1.
         21    1    1    2  503  504  0.24532723690E+02  0.54437904983E+02  0.12494752080E+03  0.13848185074E+03  0.00000000000E+00 0. -1.
         21    1    1    2  504  501  0.53397775331E+02  0.34286306090E+02  0.10194577062E+04  0.10214308043E+04  0.00000000000E+00 0.  1.
         21    1    1    2  505  503 -0.39740149043E+02 -0.73981097623E+01 -0.74651416977E+02  0.84893141835E+02  0.00000000000E+00 0. -1.
         21    1    1    2  506  502 -0.38190349978E+02 -0.81326101311E+02  0.27811686866E+03  0.29226944798E+03  0.00000000000E+00 0. -1.
<scales pt_clust_3="51.46138" pt_clust_4="65.26428" pt_clust_5="40.42291" pt_clust_6="14000.00000"></scales>
<clustering>
<clus scale="   40.423">  2  5  1 -1</clus>
<clus scale="   51.461">  2  3  1 -1</clus>
<clus scale="   65.264">  1  4  2 -1</clus>
<clus scale="   65.264">  1  3  2 -1</clus>
</clustering>
</event>
<event>
 6    0  0.1438923E+002  0.9755353E+02  0.7546771E-02  0.1285526E+00
         21   -1    0    0  506  501  0.00000000000E+00  0.00000000000E+00  0.29142705314E+03  0.29142705314E+03  0.00000000000E+00 0.  1.
         21   -1    0    0  504  502 -0.00000000000E+00 -0.00000000000E+00 -0.16850890150E+03  0.16850890150E+03  0.00000000000E+00 0.  1.
         21    1    1    2  503  502  0.20000487197E+00 -0.86891453944E+02  0.67163294362E+01  0.87150868335E+02  0.00000000000E+00 0.  1.
         21    1    1    2  504  505  0.19540381509E+02  0.38506766487E+02 -0.76517709061E+02  0.87861011687E+02  0.00000000000E+00 0.  1.
         21    1    1    2  505  501 -0.53868522547E+02 -0.48088655891E+02  0.65794754368E+01  0.72509489336E+02  0.00000000000E+00 0.  1.
         21    1    1    2  506  503  0.34128136166E+02  0.96473343348E+02  0.18614005583E+03  0.21241458527E+03  0.00000000000E+00 0.  1.
<scales pt_clust_3="97.55353" pt_clust_4="43.18099" pt_clust_5="57.16610" pt_clust_6="14000.00000"></scales>
<clustering>
<clus scale="   43.181">  2  4  1 -1</clus>
<clus scale="   57.166">  2  5  1 -1</clus>
<clus scale="   97.554">  2  3  1 -1</clus>
<clus scale="   97.554">  1  3  2 -1</clus>
</clustering>
</event>
<event>
 6    0  0.1438923E+002  0.1758336E+03  0.7546771E-02  0.1171897E+00
         21   -1    0    0  503  501  0.00000000000E+00  0.00000000000E+00  0.68536184202E+03  0.68536184202E+03  0.00000000000E+00 0.  1.
         21   -1    0    0  506  502 -0.00000000000E+00 -0.00000000000E+00 -0.57372800916E+03  0.57372800916E+03  0.00000000000E+00 0. -1.
         21    1    1    2  503  504 -0.33863782029E+02 -0.55884101222E+02  0.18112141267E+03  0.19254805798E+03  0.00000000000E+00 0.  1.
         21    1    1    2  504  502 -0.72758943639E+02  0.17798579940E+03 -0.49764303933E+03  0.53349920643E+03  0.00000000000E+00 0. -1.
         21    1    1    2  505  501  0.72522988425E+02 -0.11744719821E+03  0.46355541514E+03  0.48367039512E+03  0.00000000000E+00 0.  1.
         21    1    1    2  506  505  0.34099737243E+02 -0.46544999710E+01 -0.35399955621E+02  0.49372191647E+02  0.00000000000E+00 0. -1.
<scales pt_clust_3="65.19729" pt_clust_4="175.83362" pt_clust_5="14000.00000" pt_clust_6="34.41593"></scales>
<clustering>
<clus scale="   34.416">  2  6  1 -1</clus>
<clus scale="   65.197">  1  3  2 -1</clus>
<clus scale="  175.834">  2  4  1 -1</clus>
<clus scale="   65.197">  1  3  2 -1</clus>
</clustering>
</event>
<event>
 6    0  0.1438923E+002  0.8872375E+02  0.7546771E-02  0.1305972E+00
         21   -1    0    0  503  501  0.00000000000E+00  0.00000000000E+00  0.41002387663E+03  0.41002387663E+03  0.00000000000E+00 0.  1.
         21   -1    0    0  505  502 -0.00000000000E+00 -0.00000000000E+00 -0.56994727847E+03  0.56994727847E+03  0.00000000000E+00 0.  1.
         21    1    1    2  503  504 -0.12758993694E+02  0.49290128428E+02  0.38236071368E+02  0.63673431148E+02  0.00000000000E+00 0.  1.
         21    1    1    2  504  506 -0.63906721651E+02  0.57992719599E+02 -0.17016525028E+03  0.19079684746E+03  0.00000000000E+00 0.  1.
         21    1    1    2  505  501  0.95336199905E+02 -0.81085299109E+02  0.33679418231E+03  0.35929672693E+03  0.00000000000E+00 0.  1.
         21    1    1    2  506  502 -0.18670484560E+02 -0.26197548918E+02 -0.36478840524E+03  0.36620414957E+03  0.00000000000E+00 0.  1.
<scales pt_clust_3="49.65172" pt_clust_4="14000.00000" pt_clust_5="88.72375" pt_clust_6="32.16984"></scales>
<clustering>
<clus scale="   32.170">  2  6  1 -1</clus>
<clus scale="   49.652">  1  3  2 -1</clus>
<clus scale="   88.724">  1  5  2 -1</clus>
<clus scale="   49.652">  1  3  2 -1</clus>
</clustering>
</event>
<event>
 6    0  0.1438923E+002  0.8989385E+02  0.7546771E-02  0.1303109E+00
         21   -1    0    0  503  501  0.00000000000E+00  0.00000000000E+00  0.20436258813E+03  0.20436258813E+03  0.00000000000E+00 0. -1.
         21   -1    0    0  505  502 -0.00000000000E+00 -0.00000000000E+00 -0.15953082630E+03  0.15953082630E+03  0.00000000000E+00 0.  1.
         21    1    1    2  503  502  0.10606200048E+02 -0.33660448014E+02  0.52212709096E+02  0.63021299821E+02  0.00000000000E+00 0. -1.
         21    1    1    2  504  506 -0.48509365509E+02  0.59159409787E+02  0.85694408757E+02  0.11487613329E+03  0.00000000000E+00 0. -1.
         21    1    1    2  505  504  0.76244896440E+02 -0.52800050636E+02 -0.10224736645E+03  0.13804221646E+03  0.00000000000E+00 0.  1.
         21    1    1    2  506  501 -0.38341730980E+02  0.27301088864E+02  0.91720104234E+01  0.47953764846E+02  0.00000000000E+00 0.  1.
<scales pt_clust_3="35.29189" pt_clust_4="89.89385" pt_clust_5="14000.00000" pt_clust_6="41.79209"></scales>
<clustering>
<clus scale="   35.292">  1  3  2 -1</clus>
<clus scale="   41.792">  1  6  2 -1</clus>
<clus scale="   89.894">  1  4  2 -1</clus>
<clus scale="   35.292">  1  3  2 -1</clus>
</clustering>
</event>
<event>
 6    0  0.1438923E+002  0.1331918E+03  0.7546771E-02  0.1222795E+00
         21   -1    0    0  503  501  0.00000000000E+00  0.00000000000E+00  0.10236750182E+03  0.10236750182E+03  0.00000000000E+00 0. -1.
         21   -1    0    0  506  502 -0.00000000000E+00 -0.00000000000E+00 -0.12482103754E+04  0.12482103754E+04  0.00000000000E+00 0. -1.
         21    1    1    2  503  504 -0.18340551051E+00  0.38468555489E+02  0.38114135420E+00  0.38470880776E+02  0.00000000000E+00 0. -1.
         21    1    1    2  504  505  0.66029557836E+02  0.66677354295E+02  0.47597748358E+02  0.10522032946E+03  0.00000000000E+00 0. -1.
         21    1    1    2  505  502 -0.46416707396E+02 -0.50830435844E+02 -0.10451720398E+04  0.10474363163E+04  0.00000000000E+00 0. -1.
         21    1    1    2  506  501 -0.19429444929E+02 -0.54315473940E+02 -0.14864972352E+03  0.15945035071E+03  0.00000000000E+00 0. -1.
<scales pt_clust_3="34.79805" pt_clust_4="34.79805" pt_clust_5="121.59874" pt_clust_6="57.68600"></scales>
<clustering>
<clus scale="   34.798">  3  4 -1 -1</clus>
<clus scale="   57.686">  2  6  1 -1</clus>
<clus scale="  121.599">  2  5  1 -1</clus>
<clus scale="  133.192">  1  3  2 -1</clus>
</clustering>
</event>
<event>
 6    0  0.1438923E+002  0.1940152E+03  0.7546771E-02  0.1154889E+00
         21   -1    0    0  505  501  0.00000000000E+00  0.00000000000E+00  0.23037541255E+04  0.23037541255E+04  0.00000000000E+00 0.  1.
         21   -1    0    0  503  502 -0.00000000000E+00 -0.00000000000E+00 -0.66634645906E+02  0.66634645906E+02  0.00000000000E+00 0. -1.
         21    1    1    2  503  506  0.65943751002E+02 -0.25391201925E+02  0.17635344683E+03  0.18998376152E+03  0.00000000000E+00 0. -1.
         21    1    1    2  504  501 -0.48500345604E+02  0.35437094873E+02  0.54713307886E+03  0.55042045492E+03  0.00000000000E+00 0.  1.
         21    1    1    2  505  502  0.11610480915E+03  0.25177759892E+02  0.91282301842E+01  0.11915356011E+03  0.00000000000E+00 0. -1.
         21    1    1    2  506  504 -0.13354821454E+03 -0.35223652840E+02  0.15045047237E+04  0.15108309948E+04  0.00000000000E+00 0.  1.
<scales pt_clust_3="70.66323" pt_clust_4="52.75029" pt_clust_5="176.75906" pt_clust_6="52.75029"></scales>
<clustering>
<clus scale="   52.750">  4  6 -1 -1</clus>
<clus scale="   70.663">  2  3  1 -1</clus>
<clus scale="  176.759">  2  5  1 -1</clus>
<clus scale="  194.015">  1  3  2 -1</clus>
</clustering>
</event>
<event>
 6    0  0.1438923E+002  0.1635993E+03  0.7546771E-02  0.1184692E+00
         21   -1    0    0  504  501  0.00000000000E+00  0.00000000000E+00  0.11911980859E+04  0.11911980859E+04  0.00000000000E+00 0. -1.
         21   -1    0    0  505  502 -0.00000000000E+00 -0.00000000000E+00 -0.39449174319E+03  0.39449174319E+03  0.00000000000E+00 0. -1.
         21    1    1    2  503  502  0.47365312266E+02  0.83423261582E+01 -0.34535268140E+03  0.34868544816E+03  0.00000000000E+00 0. -1.
         21    1    1    2  504  503 -0.67909056060E+02  0.16198493900E+03  0.16855670346E+03  0.24343812898E+03  0.00000000000E+00 0. -1.
         21    1    1    2  505  506  0.31706062784E+02 -0.12638626374E+03  0.88064063709E+03  0.89022845033E+03  0.00000000000E+00 0. -1.
         21    1    1    2  506  501 -0.11162318989E+02 -0.43941001426E+02  0.92861683557E+02  0.10333780162E+03  0.00000000000E+00 0. -1.
<scales pt_clust_3="48.06602" pt_clust_4="163.59934" pt_clust_5="14000.00000" pt_clust_6="45.33662"></scales>
<clustering>
<clus scale="   45.337">  1  6  2 -1</clus>
<clus scale="   48.066">  2  3  1 -1</clus>
<clus scale="  163.599">  2  4  1 -1</clus>
<clus scale="   45.337">  1  3  2 -1</clus>
</clustering>
</event>
<event>
 6    0  0.1438923E+002  0.1509377E+03  0.7546771E-02  0.1199326E+00
         21   -1    0    0  505  501  0.00000000000E+00  0.00000000000E+00  0.77626295278E+02  0.77626295278E+02  0.00000000000E+00 0.  1.
         21   -1    0    0  504  502 -0.00000000000E+00 -0.00000000000E+00 -0.15420386859E+04  0.15420386859E+04  0.00000000000E+00 0.  1.
         21    1    1    2  503  501  0.43834523997E+02 -0.66195352556E+02 -0.90142818724E+02  0.12012084732E+03  0.00000000000E+00 0.  1.
         21    1    1    2  504  503  0.37838240472E+02 -0.23592424933E+02 -0.11343743811E+03  0.12188678075E+03  0.00000000000E+00 0.  1.
         21    1    1    2  505  506 -0.11301415628E+03  0.10255037864E+03 -0.41898129273E+02  0.15825369796E+03  0.00000000000E+00 0.  1.
         21    1    1    2  506  502  0.31341391812E+02 -0.12762601156E+02 -0.12189340045E+04  0.12194036551E+04  0.00000000000E+00 0.  1.
<scales pt_clust_3="39.11665" pt_clust_4="39.11665" pt_clust_5="142.79950" pt_clust_6="33.84031"></scales>
<clustering>
<clus scale="   33.840">  2  6  1 -1</clus>
<clus scale="   39.117">  3  4 -1 -1</clus>
<clus scale="  142.800">  1  5  2 -1</clus>
<clus scale="  142.800">  1  3  2 -1</clus>
</clustering>
</event>
<event>
 6    0  0.1438923E+002  0.2710738E+03  0.7546771E-02  0.1100667E+00
         21   -1    0    0  505  501  0.00000000000E+00  0.00000000000E+00  0.93945841116E+03  0.93945841116E+03  0.00000000000E+00 0.  1.
         21   -1    0    0  506  502 -0.00000000000E+00 -0.00000000000E+00 -0.15858368603E+04  0.15858368603E+04  0.00000000000E+00 0.  1.
         21    1    1    2  503  504 -0.24383230842E+02 -0.21343895325E+03  0.54858856469E+03  0.58915205339E+03  0.00000000000E+00 0.  1.
         21    1    1    2  504  502 -0.97306278864E+02  0.25482885628E+03 -0.15255012245E+04  0.15496968232E+04  0.00000000000E+00 0.  1.
         21    1    1    2  505  503  0.50373631889E+02 -0.40293546210E+02  0.30332515178E+03  0.31010840098E+03  0.00000000000E+00 0. -1.
         21    1    1    2  506  501  0.71315877818E+02 -0.10963568289E+01  0.27209058870E+02  0.76337993894E+02  0.00000000000E+00 0. -1.
<scales pt_clust_3="271.07380" pt_clust_4="14000.00000" pt_clust_5="64.50638" pt_clust_6="75.56548"></scales>
<clustering>
<clus scale="   64.506">  1  5  2 -1</clus>
<clus scale="   75.565">  1  6  2 -1</clus>
<clus scale="  271.074">  1  3  2 -1</clus>
<clus scale="   64.506">  1  3  2 -1</clus>
</clustering>
</event>
<event>
 6    0  0.1438923E+002  0.2967308E+03  0.7546771E-02  0.1086886E+00
         21   -1    0    0  505  501  0.00000000000E+00  0.00000000000E+00  0.11738799233E+04  0.11738799233E+04  0.00000000000E+00 0. -1.
         21   -1    0    0  503  502 -0.00000000000E+00 -0.00000000000E+00 -0.15075154754E+03  0.15075154754E+03  0.00000000000E+00 0. -1.
         21    1    1    2  503  506 -0.14656065097E+03 -0.17538432941E+03  0.13443836998E+03  0.26516666973E+03  0.00000000000E+00 0. -1.
         21    1    1    2  504  502 -0.22970344166E+02  0.29278046145E+02 -0.44919940702E+02  0.58332167540E+02  0.00000000000E+00 0. -1.
         21    1    1    2  505  504  0.22345618160E+03  0.17842101407E+03  0.84804016687E+03  0.89495186909E+03  0.00000000000E+00 0. -1.
         21    1    1    2  506  501 -0.53925186463E+02 -0.32314730799E+02  0.85569779571E+02  0.10618076444E+03  0.00000000000E+00 0. -1.
<scales pt_clust_3="41.71418" pt_clust_4="37.21345" pt_clust_5="286.15959" pt_clust_6="41.71418"></scales>
<clustering>
<clus scale="   37.213">  2  4  1 -1</clus>
<clus scale="   41.714">  3  6 -1 -1</clus>
<clus scale="  286.160">  1  5  2 -1</clus>
<clus scale="  286.160">  1  3  2 -1</clus>
</clustering>
</event>
<event>
 6    0  0.1438923E+002  0.8689699E+02  0.7546771E-02  0.1310545E+00
         21   -1    0    0  504  501  0.00000000000E+00  0.00000000000E+00  0.15923088999E+03  0.15923088999E+03  0.00000000000E+00 0. -1.
         21   -1    0    0  501  502 -0.00000000000E+00 -0.00000000000E+00 -0.30247092023E+03  0.30247092023E+03  0.00000000000E+00 0. -1.
         21    1    1    2  503  505  0.46198199711E+02  0.75886477532E+02 -0.64855188432E+02  0.10999648447E+03  0.00000000000E+00 0. -1.
         21    1    1    2  504  506 -0.78056746785E+02  0.87254706712E+01 -0.26414599423E+01  0.78587320018E+02  0.00000000000E+00 0. -1.
         21    1    1    2  505  502 -0.32260512452E+02  0.12103468704E+02 -0.13744226707E+03  0.14169548827E+03  0.00000000000E+00 0. -1.
         21    1    1    2  506  503  0.64119059526E+02 -0.96715416907E+02  0.61698885207E+02  0.13142251747E+03  0.00000000000E+00 0. -1.
<scales pt_clust_3="85.53709" pt_clust_4="86.89699" pt_clust_5="34.45627" pt_clust_6="14000.00000"></scales>
<clustering>
<clus scale="   34.456">  2  5  1 -1</clus>
<clus scale="   86.897">  1  4  2 -1</clus>
<clus scale="   85.537">  2  3  1 -1</clus>
<clus scale="   86.897">  1  3  2 -1</clus>
</clustering>
</event>
<event>
 6    0  0.1438923E+002  0.1112783E+03  0.7546771E-02  0.1258221E+00
         21   -1    0    0  505  501  0.00000000000E+00  0.00000000000E+00  0.75784634948E+02  0.75784634948E+02  0.00000000000E+00 0.  1.
         21   -1    0    0  503  502 -0.00000000000E+00 -0.00000000000E+00 -0.28833324122E+04  0.28833324122E+04  0.00000000000E+00 0.  1.
         21    1    1    2  503  504  0.27551408111E+02 -0.44779314491E+02 -0.23675094000E+03  0.24251860689E+03  0.00000000000E+00 0. -1.
         21    1    1    2  504  501 -0.99634848981E+02  0.76889307993E+02  0.58495307795E+01  0.12598922901E+03  0.00000000000E+00 0.  1.
         21    1    1    2  505  506  0.48586992900E+02  0.25769063005E+02 -0.10822578324E+03  0.12139835520E+03  0.00000000000E+00 0. -1.
         21    1    1    2  506  502  0.23496447970E+02 -0.57879056507E+02 -0.24684205848E+04  0.24692108560E+04  0.00000000000E+00 0.  1.
<scales pt_clust_3="52.57630" pt_clust_4="111.27829" pt_clust_5="55.19056" pt_clust_6="14000.00000"></scales>
<clustering>
<clus scale="   52.576">  2  3  1 -1</clus>
<clus scale="   55.191">  1  5  2 -1</clus>
<clus scale="  111.278">  1  4  2 -1</clus>
<clus scale="   55.191">  1  3  2 -1</clus>
</clustering>
</event>
<event>
 6    0  0.1438923E+002  0.1274158E+03  0.7546771E-02  0.1231341E+00
         21   -1    0    0  503  501  0.00000000000E+00  0.00000000000E+00  0.10437216615E+03  0.10437216615E+03  0.00000000000E+00 0. -1.
         21   -1    0    0  505  502 -0.00000000000E+00 -0.00000000000E+00 -0.41955055312E+03  0.41955055312E+03  0.00000000000E+00 0. -1.
         21    1    1    2  503  502 -0.41182033804E+02 -0.76584957251E+02 -0.42100630456E+02  0.96610965579E+02  0.00000000000E+00 0. -1.
         21    1    1    2  504  501  0.61662666780E+02 -0.12784282923E+02  0.68166829041E+00  0.62977670931E+02  0.00000000000E+00 0. -1.
         21    1    1    2  505  506 -0.41684407222E+02  0.12215441072E+03 -0.29346794394E+03  0.32059744850E+03  0.00000000000E+00 0. -1.
         21    1    1    2  506  504  0.21203774246E+02 -0.32785170547E+02  0.19708519138E+02  0.43736634264E+02  0.00000000000E+00 0. -1.
<scales pt_clust_3="86.95525" pt_clust_4="35.46618" pt_clust_5="119.18902" pt_clust_6="35.46618"></scales>
<clustering>
<clus scale="   35.466">  4  6 -1 -1</clus>
<clus scale="   86.955">  1  3  2 -1</clus>
<clus scale="  119.189">  2  5  1 -1</clus>
<clus scale="   86.955">  1  3  2 -1</clus>
</clustering>
</event>
<event>
 6    0  0.1438923E+002  0.1222467E+03  0.7546771E-02  0.1239436E+00
         21   -1    0    0  506  501  0.00000000000E+00  0.00000000000E+00  0.42702572832E+03  0.42702572832E+03  0.00000000000E+00 0. -1.
         21   -1    0    0  505  502 -0.00000000000E+00 -0.00000000000E+00 -0.54473791366E+03  0.54473791366E+03  0.00000000000E+00 0. -1.
         21    1    1    2  503  504 -0.11429096957E+02  0.89240756875E+02  0.30405716123E+03  0.31708877974E+03  0.00000000000E+00 0. -1.
         21    1    1    2  504  501  0.12642825702E+02  0.37634483991E+02  0.33861204298E+02  0.52180231731E+02  0.00000000000E+00 0.  1.
         21    1    1    2  505  503  0.34358017688E+02  0.97564981629E+01 -0.45986003235E+03  0.46124495876E+03  0.00000000000E+00 0. -1.
         21    1    1    2  506  502 -0.35571746433E+02 -0.13663173903E+03  0.42294814705E+01  0.14124967174E+03  0.00000000000E+00 0. -1.
<scales pt_clust_3="122.24674" pt_clust_4="42.02046" pt_clust_5="35.71642" pt_clust_6="14000.00000"></scales>
<clustering>
<clus scale="   35.716">  2  5  1 -1</clus>
<clus scale="   42.020">  1  4  2 -1</clus>
<clus scale="  122.247">  1  3  2 -1</clus>
<clus scale="   42.020">  1  3  2 -1</clus>
</clustering>
</event>
<event>
 6    0  0.1438923E+002  0.9732907E+02  0.7546771E-02  0.1286015E+00
         21   -1    0    0  504  501  0.00000000000E+00  0.00000000000E+00  0.83515776571E+03  0.83515776571E+03  0.00000000000E+00 0. -1.
         21   -1    0    0  503  502 -0.00000000000E+00 -0.00000000000E+00 -0.10126017957E+03  0.10126017957E+03  0.00000000000E+00 0. -1.
         21    1    1    2  503  505  0.24573987198E+02  0.24060000635E+02  0.47757920832E+02  0.58852217286E+02  0.00000000000E+00 0. -1.
         21    1    1    2  504  506 -0.15006546679E+02 -0.74063923641E+02  0.36659716471E+03  0.37430487895E+03  0.00000000000E+00 0. -1.
         21    1    1    2  505  501  0.52183302743E+02  0.96496334213E+02  0.38602286497E+03  0.40130822554E+03  0.00000000000E+00 0. -1.
         21    1    1    2  506  502 -0.61750743263E+02 -0.46492411207E+02 -0.66480364370E+02  0.10195262351E+03  0.00000000000E+00 0. -1.
<scales pt_clust_3="31.45640" pt_clust_4="75.56892" pt_clust_5="31.45640" pt_clust_6="79.47702"></scales>
<clustering>
<clus scale="   31.456">  3  5 -1 -1</clus>
<clus scale="   75.569">  1  4  2 -1</clus>
<clus scale="   79.477">  2  6  1 -1</clus>
<clus scale="   75.569">  1  3  2 -1</clus>
</clustering>
</event>
<event>
 6    0  0.1438923E+002  0.1343569E+03  0.7546771E-02  0.1221130E+00
         21   -1    0    0  506  501  0.00000000000E+00  0.00000000000E+00  0.70939118442E+03  0.70939118442E+03  0.00000000000E+00 0. -1.
         21   -1    0    0  503  502 -0.00000000000E+00 -0.00000000000E+00 -0.71281289432E+02  0.71281289432E+02  0.00000000000E+00 0.  1.
         21    1    1    2  503  504  0.34079346644E+02 -0.36290000528E+01 -0.28016448297E+02  0.44266159584E+02  0.00000000000E+00 0.  1.
         21    1    1    2  504  501 -0.11392320350E+03  0.57101226348E+02  0.58286415435E+03  0.59663193744E+03  0.00000000000E+00 0. -1.
         21    1    1    2  505  502  0.13628248494E+02 -0.43134846080E+02  0.32449787159E+02  0.55671651583E+02  0.00000000000E+00 0.  1.
         21    1    1    2  506  505  0.66215608358E+02 -0.10337380216E+02  0.50812401779E+02  0.84102725250E+02  0.00000000000E+00 0.  1.
<scales pt_clust_3="34.27202" pt_clust_4="121.16850" pt_clust_5="45.37008" pt_clust_6="45.37008"></scales>
<clustering>
<clus scale="   34.272">  2  3  1 -1</clus>
<clus scale="   45.370">  5  6 -1 -1</clus>
<clus scale="  121.168">  1  4  2 -1</clus>
<clus scale="  121.168">  1  3  2 -1</clus>
</clustering>
</event>
<event>
 6    0  0.1438923E+002  0.6605206E+02  0.7546771E-02  0.1374057E+00
         21   -1    0    0  504  501  0.00000000000E+00  0.00000000000E+00  0.96309344957E+02  0.96309344957E+02  0.00000000000E+00 0. -1.
         21   -1    0    0  506  502 -0.00000000000E+00 -0.00000000000E+00 -0.47917787936E+03  0.47917787936E+03  0.00000000000E+00 0. -1.
         21    1    1    2  503  501  0.17000440394E+02  0.25026259782E+02 -0.96514650252E+01  0.31756565138E+02  0.00000000000E+00 0. -1.
         21    1    1    2  504  505 -0.48691762257E+02  0.14611373898E+02  0.15113601743E+02  0.53035845581E+02  0.00000000000E+00 0. -1.
         21    1    1    2  505  502  0.65261680155E+02 -0.93414963982E+02 -0.18470528927E+02  0.11544090623E+03  0.00000000000E+00 0. -1.
         21    1    1    2  506  503 -0.33570358292E+02  0.53777330303E+02 -0.36986014220E+03  0.37525390737E+03  0.00000000000E+00 0. -1.
<scales pt_clust_3="30.25440" pt_clust_4="48.59223" pt_clust_5="14000.00000" pt_clust_6="66.05206"></scales>
<clustering>
<clus scale="   30.254">  1  3  2 -1</clus>
<clus scale="   48.592">  1  4  2 -1</clus>
<clus scale="   66.052">  2  6  1 -1</clus>
<clus scale="   30.254">  1  3  2 -1</clus>
</clustering>
</event>
<event>
 6    0  0.1438923E+002  0.1984349E+03  0.7546771E-02  0.1151066E+00
         21   -1    0    0  502  501  0.00000000000E+00  0.00000000000E+00  0.62746819496E+03  0.62746819496E+03  0.00000000000E+00 0. -1.
         21   -1    0    0  505  502 -0.00000000000E+00 -0.00000000000E+00 -0.13449911089E+04  0.13449911089E+04  0.00000000000E+00 0. -1.
         21    1    1    2  503  506 -0.22064509304E+02 -0.28618108301E+02  0.83825963742E+02  0.91283245400E+02  0.00000000000E+00 0. -1.
         21    1    1    2  504  503  0.15438755683E+03  0.72544145343E+02  0.94505845411E+02  0.19501160361E+03  0.00000000000E+00 0. -1.
         21    1    1    2  505  504  0.37471552759E+02 -0.65037540012E+02 -0.12713288369E+04  0.12735427007E+04  0.00000000000E+00 0. -1.
         21    1    1    2  506  501 -0.16979460028E+03  0.21111502970E+02  0.37547411384E+03  0.41262175416E+03  0.00000000000E+00 0. -1.
<scales pt_clust_3="35.88541" pt_clust_4="182.42530" pt_clust_5="75.05997" pt_clust_6="35.88541"></scales>
<clustering>
<clus scale="   35.885">  3  6 -1 -1</clus>
<clus scale="   75.060">  2  5  1 -1</clus>
<clus scale="  182.425">  2  4  1 -1</clus>
<clus scale="  198.435">  1  3  2 -1</clus>
</clustering>
</event>
<event>
 6    0  0.1438923E+002  0.2215240E+03  0.7546771E-02  0.1132752E+00
         21   -1    0    0  506  501  0.00000000000E+00  0.00000000000E+00  0.30107837942E+03  0.30107837942E+03  0.00000000000E+00 0. -1.
         21   -1    0    0  503  502 -0.00000000000E+00 -0.00000000000E+00 -0.40075286501E+03  0.40075286501E+03  0.00000000000E+00 0.  1.
         21    1    1    2  503  501 -0.20178108382E+02 -0.28005576060E+02 -0.15155302306E+02  0.37698163567E+02  0.00000000000E+00 0. -1.
         21    1    1    2  504  502 -0.86101016151E+02  0.20194437611E+03 -0.28962503447E+03  0.36342478812E+03  0.00000000000E+00 0.  1.
         21    1    1    2  505  504 -0.68341003246E+01 -0.55800845013E+02  0.48068295311E+02  0.73966210161E+02  0.00000000000E+00 0.  1.
         21    1    1    2  506  505  0.11311322486E+03 -0.11813795504E+03  0.15703755587E+03  0.22674208258E+03  0.00000000000E+00 0. -1.
<scales pt_clust_3="34.51765" pt_clust_4="205.58647" pt_clust_5="48.72860" pt_clust_6="48.72860"></scales>
<clustering>
<clus scale="   34.518">  2  3  1 -1</clus>
<clus scale="   48.729">  5  6 -1 -1</clus>
<clus scale="  205.586">  2  4  1 -1</clus>
<clus scale="  221.524">  1  3  2 -1</clus>
</clustering>
</event>
<event>
 6    0  0.1438923E+002  0.4355790E+03  0.7546771E-02  0.1032112E+00
         21   -1    0    0  504  501  0.00000000000E+00  0.00000000000E+00  0.44910619796E+03  0.44910619796E+03  0.00000000000E+00 0. -1.
         21   -1    0    0  501  502 -0.00000000000E+00 -0.00000000000E+00 -0.73637675985E+03  0.73637675985E+03  0.00000000000E+00 0. -1.
         21    1    1    2  503  506 -0.53385543171E+02 -0.42977332368E+03  0.67634678630E+02  0.43832587845E+03  0.00000000000E+00 0. -1.
         21    1    1    2  504  503  0.17180830895E+03  0.12065599882E+02  0.11140136302E+02  0.17259135656E+03  0.00000000000E+00 0. -1.
         21    1    1    2  505  502 -0.13045942852E+03  0.35166445002E+03 -0.32135307258E+03  0.49391835879E+03  0.00000000000E+00 0. -1.
         21    1    1    2  506  505  0.12036662747E+02  0.66043273781E+02 -0.44692304240E+02  0.80647364000E+02  0.00000000000E+00 0. -1.
<scales pt_clust_3="426.72728" pt_clust_4="172.23145" pt_clust_5="36.96084" pt_clust_6="36.96084"></scales>
<clustering>
<clus scale="   36.961">  5  6 -1 -1</clus>
<clus scale="  172.231">  1  4  2 -1</clus>
<clus scale="  426.727">  1  3  2 -1</clus>
<clus scale="  172.231">  1  3  2 -1</clus>
</clustering>
</event>
<event>
 6    0  0.1438923E+002  0.9499599E+02  0.7546771E-02  0.1291185E+00
         21   -1    0    0  504  501  0.00000000000E+00  0.00000000000E+00  0.13516107858E+04  0.13516107858E+04  0.00000000000E+00 0.  1.
         21   -1    0    0  503  502 -0.00000000000E+00 -0.00000000000E+00 -0.21038644185E+04  0.21038644185E+04  0.00000000000E+00 0. -1.
         21    1    1    2  503  505 -0.60500003796E+02 -0.84827284254E+02  0.40953798867E+03  0.42258405409E+03  0.00000000000E+00 0.  1.
         21    1    1    2  504  506 -0.70128087980E+02  0.77304193376E+02  0.50248919916E+03  0.51321465520E+03  0.00000000000E+00 0. -1.
         21    1    1    2  505  501  0.78785855342E+02 -0.42313577358E+02  0.42239685381E+03  0.43176006293E+03  0.00000000000E+00 0. -1.
         21    1    1    2  506  502  0.51842236434E+02  0.49836668235E+02 -0.20866776744E+04  0.20879164322E+04  0.00000000000E+00 0. -1.
<scales pt_clust_3="76.54272" pt_clust_4="94.99599" pt_clust_5="14000.00000" pt_clust_6="71.91183"></scales>
<clustering>
<clus scale="   71.912">  2  6  1 -1</clus>
<clus scale="   76.543">  2  3  1 -1</clus>
<clus scale="   94.996">  2  4  1 -1</clus>
<clus scale="   94.996">  1  3  2 -1</clus>
</clustering>
</event>
<event>
 6    0  0.1438923E+002  0.1348313E+03  0.7546771E-02  0.1220458E+00
         21   -1    0    0  503  501  0.00000000000E+00  0.00000000000E+00  0.10306051532E+04  0.10306051532E+04  0.00000000000E+00 0.  1.
         21   -1    0    0  506  502 -0.00000000000E+00 -0.00000000000E+00 -0.24520743707E+03  0.24520743707E+03  0.00000000000E+00 0. -1.
         21    1    1    2  503  505  0.18687740662E+02 -0.55570694775E+02  0.38879460237E+03  0.39319025497E+03  0.00000000000E+00 0.  1.
         21    1    1    2  504  501 -0.95662571698E+02  0.13172087606E+02  0.11494072050E+03  0.15012062065E+03  0.00000000000E+00 0. -1.
         21    1    1    2  505  502  0.75871272711E+02 -0.52143958261E+02  0.49271311996E+03  0.50124012308E+03  0.00000000000E+00 0.  1.
         21    1    1    2  506  504  0.11035583245E+01  0.94542565430E+02 -0.21105072667E+03  0.23126159160E+03  0.00000000000E+00 0. -1.
<scales pt_clust_3="39.14363" pt_clust_4="125.59253" pt_clust_5="39.14363" pt_clust_6="94.54901"></scales>
<clustering>
<clus scale="   39.144">  3  5 -1 -1</clus>
<clus scale="   94.549">  2  6  1 -1</clus>
<clus scale="  125.593">  2  4  1 -1</clus>
<clus scale="  134.831">  1  3  2 -1</clus>
</clustering>
</event>
<event>
 6    0  0.1438923E+002  0.2116810E+03  0.7546771E-02  0.1140242E+00
         21   -1    0    0  505  501  0.00000000000E+00  0.00000000000E+00  0.12464277358E+04  0.12464277358E+04  0.00000000000E+00 0. -1.
         21   -1    0    0  506  502 -0.00000000000E+00 -0.00000000000E+00 -0.79607234118E+02  0.79607234118E+02  0.00000000000E+00 0. -1.
         21    1    1    2  503  501  0.91555166782E+02  0.44657354749E+02  0.74948033232E+03  0.75637120281E+03  0.00000000000E+00 0. -1.
         21    1    1    2  504  503  0.78853715919E+02  0.16860205937E+02  0.21673561110E+03  0.23124986524E+03  0.00000000000E+00 0. -1.
         21    1    1    2  505  502 -0.85327065317E+01  0.39646212435E+02  0.12785657161E+03  0.13413400816E+03  0.00000000000E+00 0. -1.
         21    1    1    2  506  504 -0.16187617617E+03 -0.10116377312E+03  0.72747986628E+02  0.20427989368E+03  0.00000000000E+00 0. -1.
<scales pt_clust_3="80.82212" pt_clust_4="80.82212" pt_clust_5="40.55403" pt_clust_6="189.23610"></scales>
<clustering>
<clus scale="   40.554">  1  5  2 -1</clus>
<clus scale="   80.822">  3  4 -1 -1</clus>
<clus scale="  189.236">  2  6  1 -1</clus>
<clus scale="   40.554">  1  3  2 -1</clus>
</clustering>
</event>
<event>
 6    0  0.1438923E+002  0.6961274E+02  0.7546771E-02  0.1361415E+00
         21   -1    0    0  504  501  0.00000000000E+00  0.00000000000E+00  0.69508136245E+02  0.69508136245E+02  0.00000000000E+00 0. -1.
         21   -1    0    0  506  502 -0.00000000000E+00 -0.00000000000E+00 -0.31868881670E+03  0.31868881670E+03  0.00000000000E+00 0. -1.
         21    1    1    2  503  502 -0.51707585013E+02 -0.10730766712E+02 -0.46687365642E+02  0.70487827408E+02  0.00000000000E+00 0. -1.
         21    1    1    2  504  503 -0.67189999803E+01  0.59745831194E+02 -0.57901212676E+01  0.60400619285E+02  0.00000000000E+00 0. -1.
         21    1    1    2  505  501  0.55671600075E+02 -0.93676634648E+02 -0.89058610940E+02  0.14073405813E+03  0.00000000000E+00 0. -1.
         21    1    1    2  506  505  0.27549849181E+01  0.44661570167E+02 -0.10764458260E+03  0.11657444812E+03  0.00000000000E+00 0. -1.
<scales pt_clust_3="50.96302" pt_clust_4="69.61274" pt_clust_5="14000.00000" pt_clust_6="44.74646"></scales>
<clustering>
<clus scale="   44.746">  2  6  1 -1</clus>
<clus scale="   50.963">  2  3  1 -1</clus>
<clus scale="   69.613">  1  4  2 -1</clus>
<clus scale="   69.613">  1  3  2 -1</clus>
</clustering>
</event>
<event>
 6    0  0.1438923E+002  0.9400819E+02  0.7546771E-02  0.1293426E+00
         21   -1    0    0  506  501  0.00000000000E+00  0.00000000000E+00  0.25112054194E+04  0.25112054194E+04  0.00000000000E+00 0. -1.
         21   -1    0    0  505  502 -0.00000000000E+00 -0.00000000000E+00 -0.16173599061E+03  0.16173599061E+03  0.00000000000E+00 0. -1.
         21    1    1    2  503  502  0.37428822608E+02 -0.99534887130E+02  0.24409153946E+03  0.26624948855E+03  0.00000000000E+00 0.  1.
         21    1    1    2  504  501 -0.59533646022E+02 -0.58756777030E+01  0.73698526698E+03  0.73940926579E+03  0.00000000000E+00 0. -1.
         21    1    1    2  505  504  0.58137976729E+02  0.54392768183E+02 -0.13814824235E+03  0.15944759150E+03  0.00000000000E+00 0. -1.
         21    1    1    2  506  503 -0.36033153315E+02  0.51017796649E+02  0.15065408647E+04  0.15078350642E+04  0.00000000000E+00 0. -1.
<scales pt_clust_3="14000.00000" pt_clust_4="59.82289" pt_clust_5="79.33037" pt_clust_6="94.00819"></scales>
<clustering>
<clus scale="   59.823">  1  4  2 -1</clus>
<clus scale="   79.330">  2  5  1 -1</clus>
<clus scale="   94.008">  1  6  2 -1</clus>
<clus scale="   59.823">  1  3  2 -1</clus>
</clustering>
</event>
<event>
 6    0  0.1438923E+002  0.1508046E+03  0.7546771E-02  0.1199488E+00
         21   -1    0    0  506  501  0.00000000000E+00  0.00000000000E+00  0.15272715001E+04  0.15272715001E+04  0.00000000000E+00 0.  1.
         21   -1    0    0  503  502 -0.00000000000E+00 -0.00000000000E+00 -0.14862872259E+03  0.14862872259E+03  0.00000000000E+00 0. -1.
         21    1    1    2  503  501 -0.10402648442E+03 -0.16868232859E+02  0.51024621232E+03  0.52101558895E+03  0.00000000000E+00 0.  1.
         21    1    1    2  504  502  0.15379695920E+03  0.17254216571E+02 -0.88829323986E+02  0.17844288007E+03  0.00000000000E+00 0. -1.
         21    1    1    2  505  504 -0.24634726232E+02 -0.59815675938E+02  0.11660001376E+03  0.13334297145E+03  0.00000000000E+00 0. -1.
         21    1    1    2  506  505 -0.25135748541E+02  0.59429692226E+02  0.84062587537E+03  0.84309878218E+03  0.00000000000E+00 0.  1.
<scales pt_clust_3="14000.00000" pt_clust_4="150.80459" pt_clust_5="57.03242" pt_clust_6="64.52669"></scales>
<clustering>
<clus scale="   64.527">  1  6  2 -1</clus>
<clus scale="   57.032">  1  5  2 -1</clus>
<clus scale="  150.805">  2  4  1 -1</clus>
<clus scale="   64.527">  1  3  2 -1</clus>
</clustering>
</event>
<event>
 6    0  0.1438923E+002  0.9519764E+02  0.7546771E-02  0.1290732E+00
         21   -1    0    0  506  501  0.00000000000E+00  0.00000000000E+00  0.18442335199E+04  0.18442335199E+04  0.00000000000E+00 0.  1.
         21   -1    0    0  504  502 -0.00000000000E+00 -0.00000000000E+00 -0.35400099841E+02  0.35400099841E+02  0.00000000000E+00 0. -1.
         21    1    1    2  503  502 -0.22816711338E+02  0.31565440815E+02 -0.10828086797E+02  0.40425571534E+02  0.00000000000E+00 0. -1.
         21    1    1    2  504  501  0.31220665247E+02  0.78258043843E+02  0.70965017104E+03  0.71463446364E+03  0.00000000000E+00 0.  1.
         21    1    1    2  505  503 -0.43204688558E+02  0.17924754187E+02  0.23607170030E+03  0.24066115101E+03  0.00000000000E+00 0. -1.
         21    1    1    2  506  505  0.34800734649E+02 -0.12774823884E+03  0.87393963556E+03  0.88391243359E+03  0.00000000000E+00 0. -1.
<scales pt_clust_3="38.94842" pt_clust_4="95.19764" pt_clust_5="54.77396" pt_clust_6="14000.00000"></scales>
<clustering>
<clus scale="   38.948">  2  3  1 -1</clus>
<clus scale="   54.774">  2  5  1 -1</clus>
<clus scale="   95.198">  1  4  2 -1</clus>
<clus scale="   95.198">  1  3  2 -1</clus>
</clustering>
</event>
<event>
 6    0  0.1438923E+002  0.1154613E+03  0.7546771E-02  0.1250778E+00
         21   -1    0    0  506  501  0.00000000000E+00  0.00000000000E+00  0.53161992403E+03  0.53161992403E+03  0.00000000000E+00 0.  1.
         21   -1    0    0  504  502 -0.00000000000E+00 -0.00000000000E+00 -0.12271753879E+04  0.12271753879E+04  0.00000000000E+00 0. -1.
         21    1    1    2  503  501  0.10160301469E+03 -0.22995645029E+02  0.70689680595E+02  0.12589282437E+03  0.00000000000E+00 0.  1.
         21    1    1    2  504  505 -0.29391153309E+02 -0.20656659055E+02 -0.11803920871E+04  0.11809386169E+04  0.00000000000E+00 0. -1.
         21    1    1    2  505  503  0.46306010617E+02  0.26654531738E+02  0.73350010318E+02  0.90746540954E+02  0.00000000000E+00 0.  1.
         21    1    1    2  506  502 -0.11851787200E+03  0.16997772346E+02  0.34079693231E+03  0.36121732976E+03  0.00000000000E+00 0.  1.
<scales pt_clust_3="115.46125" pt_clust_4="35.92405" pt_clust_5="46.74232" pt_clust_6="14000.00000"></scales>
<clustering>
<clus scale="   35.924">  2  4  1 -1</clus>
<clus scale="   46.742">  2  5  1 -1</clus>
<clus scale="  115.461">  2  3  1 -1</clus>
<clus scale="  115.461">  1  3  2 -1</clus>
</clustering>
</event>
<event>
 6    0  0.1438923E+002  0.1084142E+03  0.7546771E-02  0.1263535E+00
         21   -1    0    0  503  501  0.00000000000E+00  0.00000000000E+00  0.39491047600E+03  0.39491047600E+03  0.00000000000E+00 0.  1.
         21   -1    0    0  505  502 -0.00000000000E+00 -0.00000000000E+00 -0.30921584800E+03  0.30921584800E+03  0.00000000000E+00 0. -1.
         21    1    1    2  503  504  0.98327729574E+02  0.75466246917E+02  0.12338125836E+03  0.17488977026E+03  0.00000000000E+00 0.  1.
         21    1    1    2  504  502  0.31185837021E+02 -0.12173487261E+01 -0.36063724658E+01  0.31417261035E+02  0.00000000000E+00 0.  1.
         21    1    1    2  505  506 -0.38853913203E+02 -0.27247186205E+02 -0.25238639107E+03  0.25680912391E+03  0.00000000000E+00 0. -1.
         21    1    1    2  506  501 -0.90659653392E+02 -0.47001711986E+02  0.21830613317E+03  0.24101016880E+03  0.00000000000E+00 0.  1.
<scales pt_clust_3="14000.00000" pt_clust_4="31.20959" pt_clust_5="30.60740" pt_clust_6="108.41417"></scales>
<clustering>
<clus scale="   31.210">  2  4  1 -1</clus>
<clus scale="   30.607">  2  5  1 -1</clus>
<clus scale="  108.414">  1  6  2 -1</clus>
<clus scale="  108.414">  1  3  2 -1</clus>
</clustering>
</event>
<event>
 6    0  0.2510608E+002  0.1131504E+03  0.7546771E-02  0.1254845E+00
         21   -1    0    0  506  501  0.00000000000E+00  0.00000000000E+00  0.17531454390E+04  0.17531454390E+04  0.00000000000E+00 0. -1.
         21   -1    0    0  504  502 -0.00000000000E+00 -0.00000000000E+00 -0.25624473105E+03  0.25624473105E+03  0.00000000000E+00 0. -1.
         21    1    1    2  503  505  0.91368837690E+01  0.52096256807E+02  0.20344357280E+03  0.21020654112E+03  0.00000000000E+00 0. -1.
         21    1    1    2  504  501  0.37528579360E+02  0.78414916331E+02  0.14485625405E+04  0.14511687453E+04  0.00000000000E+00 0. -1.
         21    1    1    2  505  502 -0.68605271323E+02 -0.90297692535E+02 -0.23215707631E+03  0.25837427234E+03  0.00000000000E+00 0. -1.
         21    1    1    2  506  503  0.21939808193E+02 -0.40213480603E+02  0.77051670904E+02  0.89640611303E+02  0.00000000000E+00 0. -1.
<scales pt_clust_3="48.58375" pt_clust_4="14000.00000" pt_clust_5="113.15039" pt_clust_6="45.80916"></scales>
<clustering>
<clus scale="   45.809">  1  6  2 -1</clus>
<clus scale="   48.584">  1  3  2 -1</clus>
<clus scale="  113.150">  2  5  1 -1</clus>
<clus scale="   45.809">  1  3  2 -1</clus>
</clustering>
</event>
<event>
 6    0  0.1438923E+002  0.1332889E+03  0.7546771E-02  0.1222656E+00
         21   -1    0    0  506  501  0.00000000000E+00  0.00000000000E+00  0.32555628660E+03  0.32555628660E+03  0.00000000000E+00 0.  1.
         21   -1    0    0  505  502 -0.00000000000E+00 -0.00000000000E+00 -0.28314883380E+03  0.28314883380E+03  0.00000000000E+00 0.  1.
         21    1    1    2  503  501  0.55997306563E+02 -0.54810810177E+01  0.15616548367E+03  0.16599216512E+03  0.00000000000E+00 0.  1.
         21    1    1    2  504  503  0.61181147008E+02  0.47260933579E+01  0.69328304307E+02  0.92584461363E+02  0.00000000000E+00 0.  1.
         21    1    1    2  505  504 -0.15923884187E+03 -0.19258926832E+02  0.83412361052E+00  0.16040140519E+03  0.00000000000E+00 0.  1.
         21    1    1    2  506  502  0.42060388300E+02  0.20013914492E+02 -0.18392045879E+03  0.18972708873E+03  0.00000000000E+00 0.  1.
<scales pt_clust_3="45.75337" pt_clust_4="45.75337" pt_clust_5="124.43018" pt_clust_6="46.57932"></scales>
<clustering>
<clus scale="   45.753">  3  4 -1 -1</clus>
<clus scale="   46.579">  2  6  1 -1</clus>
<clus scale="  124.430">  2  5  1 -1</clus>
<clus scale="  133.289">  1  3  2 -1</clus>
</clustering>
</event>
<event>
 6    0  0.1438923E+002  0.1015743E+03  0.7546771E-02  0.1277020E+00
         21   -1    0    0  505  501  0.00000000000E+00  0.00000000000E+00  0.61003189365E+02  0.61003189365E+02  0.00000000000E+00 0.  1.
         21   -1    0    0  504  502 -0.00000000000E+00 -0.00000000000E+00 -0.85906931602E+03  0.85906931602E+03  0.00000000000E+00 0.  1.
         21    1    1    2  503  502 -0.24218657103E+02  0.75505616228E+02 -0.12101044945E+03  0.14467608755E+03  0.00000000000E+00 0.  1.
         21    1    1    2  504  506 -0.40763895763E+02 -0.11173225061E+03 -0.59771531558E+03  0.60943366292E+03  0.00000000000E+00 0.  1.
         21    1    1    2  505  503  0.98249599617E+02  0.15578277317E+02 -0.78632836810E+02  0.12680216707E+03  0.00000000000E+00 0.  1.
         21    1    1    2  506  501 -0.33267046751E+02  0.20648357067E+02 -0.70752482449E+00  0.39160587847E+02  0.00000000000E+00 0.  1.
<scales pt_clust_3="14000.00000" pt_clust_4="101.57430" pt_clust_5="83.71062" pt_clust_6="39.15420"></scales>
<clustering>
<clus scale="   39.154">  1  6  2 -1</clus>
<clus scale="   83.711">  1  5  2 -1</clus>
<clus scale="  101.574">  2  4  1 -1</clus>
<clus scale="   39.154">  1  3  2 -1</clus>
</clustering>
</event>
<event>
 6    0  0.1438923E+002  0.1702929E+03  0.7546771E-02  0.1177543E+00
         21   -1    0    0  503  501  0.00000000000E+00  0.00000000000E+00  0.13700162091E+03  0.13700162091E+03  0.00000000000E+00 0. -1.
         21   -1    0    0  505  502 -0.00000000000E+00 -0.00000000000E+00 -0.11515911421E+04  0.11515911421E+04  0.00000000000E+00 0.  1.
         21    1    1    2  503  504  0.11386513336E+03  0.34163085479E+01 -0.87095258497E+02  0.14339638703E+03  0.00000000000E+00 0. -1.
         21    1    1    2  504  502  0.89214644882E+02 -0.27389804883E+02 -0.92848442114E+03  0.93316278031E+03  0.00000000000E+00 0.  1.
         21    1    1    2  505  506 -0.93278534425E+02 -0.82322937686E+01 -0.19856417310E+02  0.95723210109E+02  0.00000000000E+00 0. -1.
         21    1    1    2  506  501 -0.10980124382E+03  0.32205790104E+02  0.20846575781E+02  0.11631038553E+03  0.00000000000E+00 0. -1.
<scales pt_clust_3="160.80588" pt_clust_4="93.32446" pt_clust_5="50.70056" pt_clust_6="50.70056"></scales>
<clustering>
<clus scale="   50.701">  5  6 -1 -1</clus>
<clus scale="   93.324">  2  4  1 -1</clus>
<clus scale="  160.806">  2  3  1 -1</clus>
<clus scale="  170.293">  1  3  2 -1</clus>
</clustering>
</event>
<event>
 6    0  0.1438923E+002  0.1829705E+03  0.7546771E-02  0.1164959E+00
         21   -1    0    0  506  501  0.00000000000E+00  0.00000000000E+00  0.13474262582E+03  0.13474262582E+03  0.00000000000E+00 0.  1.
         21   -1    0    0  503  502 -0.00000000000E+00 -0.00000000000E+00 -0.52903253786E+03  0.52903253786E+03  0.00000000000E+00 0.  1.
         21    1    1    2  503  505 -0.78326062617E+01 -0.50959918691E+02 -0.76617263152E+02  0.92349705180E+02  0.00000000000E+00 0.  1.
         21    1    1    2  504  502 -0.61172634229E+02  0.14327429904E+03 -0.21308466419E+03  0.26395963717E+03  0.00000000000E+00 0.  1.
         21    1    1    2  505  501  0.10797706516E+02 -0.17168428273E+03 -0.11731776648E+03  0.20821993597E+03  0.00000000000E+00 0.  1.
         21    1    1    2  506  504  0.58207533975E+02  0.79369902387E+02  0.12729781775E+02  0.99245885357E+02  0.00000000000E+00 0.  1.
<scales pt_clust_3="30.73649" pt_clust_4="174.14395" pt_clust_5="30.73649" pt_clust_6="98.42611"></scales>
<clustering>
<clus scale="   30.736">  3  5 -1 -1</clus>
<clus scale="   98.426">  1  6  2 -1</clus>
<clus scale="  174.144">  2  4  1 -1</clus>
<clus scale="   98.426">  1  3  2 -1</clus>
</clustering>
</event>
<event>
 6    0  0.1438923E+002  0.1935154E+03  0.7546771E-02  0.1155328E+00
         21   -1    0    0  506  501  0.00000000000E+00  0.00000000000E+00  0.17290668147E+03  0.17290668147E+03  0.00000000000E+00 0. -1.
         21   -1    0    0  505  502 -0.00000000000E+00 -0.00000000000E+00 -0.61389060978E+03  0.61389060978E+03  0.00000000000E+00 0. -1.
         21    1    1    2  503  504  0.16501316366E+03  0.47630845088E+02 -0.23680958094E+03  0.29253515893E+03  0.00000000000E+00 0. -1.
         21    1    1    2  504  501 -0.17574664912E+03 -0.66636791264E+01  0.71094476640E+02  0.18969900871E+03  0.00000000000E+00 0. -1.
         21    1    1    2  505  503  0.55918351639E+02 -0.18991509410E+02 -0.62683433296E+02  0.86120568330E+02  0.00000000000E+00 0. -1.
         21    1    1    2  506  502 -0.45184866177E+02 -0.21975656552E+02 -0.21258539071E+03  0.21844255528E+03  0.00000000000E+00 0. -1.
<scales pt_clust_3="37.33170" pt_clust_4="182.74312" pt_clust_5="37.33170" pt_clust_6="50.24541"></scales>
<clustering>
<clus scale="   37.332">  3  5 -1 -1</clus>
<clus scale="   50.245">  2  6  1 -1</clus>
<clus scale="  182.743">  1  4  2 -1</clus>
<clus scale="  182.743">  1  3  2 -1</clus>
</clustering>
</event>
<event>
 6    0  0.1438923E+002  0.9458661E+02  0.7546771E-02  0.1292110E+00
         21   -1    0    0  503  501  0.00000000000E+00  0.00000000000E+00  0.10232608444E+04  0.10232608444E+04  0.00000000000E+00 0. -1.
         21   -1    0    0  506  502 -0.00000000000E+00 -0.00000000000E+00 -0.23446387672E+02  0.23446387672E+02  0.00000000000E+00 0. -1.
         21    1    1    2  503  504  0.12842131580E+02 -0.34171924234E+02  0.27591142962E+03  0.27831593153E+03  0.00000000000E+00 0. -1.
         21    1    1    2  504  505 -0.21295124044E+02 -0.79536123935E+02  0.27902493963E+03  0.29091991038E+03  0.00000000000E+00 0. -1.
         21    1    1    2  505  502 -0.44573748280E+02  0.10689265394E+03  0.25232887091E+03  0.27763774527E+03  0.00000000000E+00 0. -1.
         21    1    1    2  506  501  0.53026740744E+02  0.68153942330E+01  0.19254921661E+03  0.19983364494E+03  0.00000000000E+00 0. -1.
<scales pt_clust_3="36.50535" pt_clust_4="94.58661" pt_clust_5="14000.00000" pt_clust_6="56.44516"></scales>
<clustering>
<clus scale="   36.505">  1  3  2 -1</clus>
<clus scale="   56.445">  1  6  2 -1</clus>
<clus scale="   94.587">  1  4  2 -1</clus>
<clus scale="   36.505">  1  3  2 -1</clus>
</clustering>
</event>
<event>
 6    0  0.1438923E+002  0.1997797E+03  0.7546771E-02  0.1149925E+00
         21   -1    0    0  506  501  0.00000000000E+00  0.00000000000E+00  0.11377388419E+04  0.11377388419E+04  0.00000000000E+00 0. -1.
         21   -1    0    0  504  502 -0.00000000000E+00 -0.00000000000E+00 -0.15384840939E+03  0.15384840939E+03  0.00000000000E+00 0. -1.
         21    1    1    2  503  501 -0.15065305986E+03  0.21354965804E+03  0.79851673258E+03  0.84019567548E+03  0.00000000000E+00 0. -1.
         21    1    1    2  504  503  0.39000139404E+02  0.51385802450E+01 -0.58162376788E+02  0.70215938035E+02  0.00000000000E+00 0. -1.
         21    1    1    2  505  502  0.50674834837E+02 -0.89519092120E+02  0.48098902750E+01  0.10297932698E+03  0.00000000000E+00 0. -1.
         21    1    1    2  506  505  0.60978085621E+02 -0.12916914616E+03  0.23872618640E+03  0.27819631076E+03  0.00000000000E+00 0. -1.
<scales pt_clust_3="199.77970" pt_clust_4="39.33721" pt_clust_5="112.71927" pt_clust_6="14000.00000"></scales>
<clustering>
<clus scale="   39.337">  2  4  1 -1</clus>
<clus scale="  112.719">  2  5  1 -1</clus>
<clus scale="  199.780">  2  3  1 -1</clus>
<clus scale="  199.780">  1  3  2 -1</clus>
</clustering>
</event>
<event>
 6    0  0.1438923E+002  0.1341392E+03  0.7546771E-02  0.1221440E+00
         21   -1    0    0  504  501  0.00000000000E+00  0.00000000000E+00  0.42011184815E+02  0.42011184815E+02  0.00000000000E+00 0. -1.
         21   -1    0    0  506  502 -0.00000000000E+00 -0.00000000000E+00 -0.18940237850E+04  0.18940237850E+04  0.00000000000E+00 0.  1.
         21    1    1    2  503  502  0.22483564367E+01  0.11660965889E+03 -0.19139259411E+03  0.22412941069E+03  0.00000000000E+00 0. -1.
         21    1    1    2  504  505  0.30118512114E+02  0.65127165335E+01 -0.99275702417E+02  0.10394808964E+03  0.00000000000E+00 0. -1.
         21    1    1    2  505  503  0.56079916568E+02 -0.12296537039E+02 -0.21048473920E+02  0.61148999336E+02  0.00000000000E+00 0. -1.
         21    1    1    2  506  501 -0.88446785119E+02 -0.11082583838E+03 -0.15402958298E+04  0.15468084702E+04  0.00000000000E+00 0.  1.
<scales pt_clust_3="14000.00000" pt_clust_4="30.81461" pt_clust_5="71.86712" pt_clust_6="134.13922"></scales>
<clustering>
<clus scale="   30.815">  1  4  2 -1</clus>
<clus scale="   71.867">  1  5  2 -1</clus>
<clus scale="  134.139">  2  6  1 -1</clus>
<clus scale="   30.815">  1  3  2 -1</clus>
</clustering>
</event>
<event>
 6    0  0.1438923E+002  0.1286010E+03  0.7546771E-02  0.1229546E+00
         21   -1    0    0  505  501  0.00000000000E+00  0.00000000000E+00  0.17190724946E+04  0.17190724946E+04  0.00000000000E+00 0.  1.
         21   -1    0    0  506  502 -0.00000000000E+00 -0.00000000000E+00 -0.23689349507E+03  0.23689349507E+03  0.00000000000E+00 0. -1.
         21    1    1    2  503  501  0.38009084568E+02  0.19279288574E+02  0.23922172662E+02  0.48873835766E+02  0.00000000000E+00 0. -1.
         21    1    1    2  504  502  0.41714789822E+02 -0.64163991027E+02 -0.19779070209E+03  0.21208088850E+03  0.00000000000E+00 0. -1.
         21    1    1    2  505  504 -0.11102325956E+03  0.66350699323E+02  0.16517606687E+04  0.16568167932E+04  0.00000000000E+00 0.  1.
         21    1    1    2  506  503  0.31299385169E+02 -0.21465996870E+02  0.42868601959E+01  0.38194472164E+02  0.00000000000E+00 0. -1.
<scales pt_clust_3="43.69245" pt_clust_4="14000.00000" pt_clust_5="128.60103" pt_clust_6="37.95314"></scales>
<clustering>
<clus scale="   37.953">  2  6  1 -1</clus>
<clus scale="   43.692">  2  3  1 -1</clus>
<clus scale="  128.601">  1  5  2 -1</clus>
<clus scale="  128.601">  1  3  2 -1</clus>
</clustering>
</event>
<event>
 6    0  0.1438923E+002  0.1378204E+03  0.7546771E-02  0.1216292E+00
         21   -1    0    0  503  501  0.00000000000E+00  0.00000000000E+00  0.93293587869E+03  0.93293587869E+03  0.00000000000E+00 0. -1.
         21   -1    0    0  505  502 -0.00000000000E+00 -0.00000000000E+00 -0.47333871546E+02  0.47333871546E+02  0.00000000000E+00 0. -1.
         21    1    1    2  503  506  0.40559483254E+02 -0.44112280729E+02  0.17603219738E+03  0.18595241194E+03  0.00000000000E+00 0. -1.
         21    1    1    2  504  502  0.32391112892E+02  0.11925371391E+02  0.10930701682E+02  0.36206061875E+02  0.00000000000E+00 0. -1.
         21    1    1    2  505  501 -0.17304300492E+03 -0.19453515918E+02  0.50400721022E+03  0.53324064810E+03  0.00000000000E+00 0. -1.
         21    1    1    2  506  504  0.10009240877E+03  0.51640425256E+02  0.19463189786E+03  0.22487062832E+03  0.00000000000E+00 0. -1.
<scales pt_clust_3="61.97204" pt_clust_4="34.51664" pt_clust_5="137.82038" pt_clust_6="14000.00000"></scales>
<clustering>
<clus scale="   34.517">  2  4  1 -1</clus>
<clus scale="   61.972">  1  3  2 -1</clus>
<clus scale="  137.820">  1  5  2 -1</clus>
<clus scale="   61.972">  1  3  2 -1</clus>
</clustering>
</event>
<event>
 6    0  0.1438923E+002  0.2749100E+03  0.7546771E-02  0.1098502E+00
         21   -1    0    0  505  501  0.00000000000E+00  0.00000000000E+00  0.99643415650E+03  0.99643415650E+03  0.00000000000E+00 0.  1.
         21   -1    0    0  506  502 -0.00000000000E+00 -0.00000000000E+00 -0.10187542078E+03  0.10187542078E+03  0.00000000000E+00 0.  1.
         21    1    1    2  503  501  0.35396506841E+02 -0.30156134202E+02  0.90477520679E+02  0.10172751287E+03  0.00000000000E+00 0. -1.
         21    1    1    2  504  503 -0.27298550911E+02 -0.14066115742E+03  0.13735926859E+03  0.19849015280E+03  0.00000000000E+00 0.  1.
         21    1    1    2  505  502  0.49726944550E+02  0.28112329238E+03  0.57961605064E+03  0.64610977449E+03  0.00000000000E+00 0.  1.
         21    1    1    2  506  504 -0.57824900480E+02 -0.11030600076E+03  0.87105895806E+02  0.15198213712E+03  0.00000000000E+00 0.  1.
<scales pt_clust_3="46.50059" pt_clust_4="43.88489" pt_clust_5="270.85012" pt_clust_6="43.88489"></scales>
<clustering>
<clus scale="   43.885">  4  6 -1 -1</clus>
<clus scale="   46.501">  1  3  2 -1</clus>
<clus scale="  270.850">  1  5  2 -1</clus>
<clus scale="   46.501">  1  3  2 -1</clus>
</clustering>
</event>
<event>
 6    0  0.1438923E+002  0.1362614E+03  0.7546771E-02  0.1218450E+00
         21   -1    0    0  506  501  0.00000000000E+00  0.00000000000E+00  0.56573330560E+03  0.56573330560E+03  0.00000000000E+00 0. -1.
         21   -1    0    0  504  502 -0.00000000000E+00 -0.00000000000E+00 -0.16783446210E+03  0.16783446210E+03  0.00000000000E+00 0.  1.
         21    1    1    2  503  505 -0.60138982897E+02 -0.68705094146E+01  0.21020300602E+03  0.21874461114E+03  0.00000000000E+00 0. -1.
         21    1    1    2  504  503  0.13282187116E+03  0.20764287769E+01 -0.12290271873E+03  0.18097248212E+03  0.00000000000E+00 0.  1.
         21    1    1    2  505  501 -0.44138029070E+02 -0.39468599802E+02  0.23052848124E+03  0.23801116916E+03  0.00000000000E+00 0. -1.
         21    1    1    2  506  502 -0.28544859193E+02  0.44262680440E+02  0.80070074969E+02  0.95839505276E+02  0.00000000000E+00 0. -1.
<scales pt_clust_3="36.48201" pt_clust_4="131.17381" pt_clust_5="36.48201" pt_clust_6="52.66872"></scales>
<clustering>
<clus scale="   36.482">  3  5 -1 -1</clus>
<clus scale="   52.669">  1  6  2 -1</clus>
<clus scale="  131.174">  2  4  1 -1</clus>
<clus scale="   52.669">  1  3  2 -1</clus>
</clustering>
</event>
<event>
 6    0  0.1438923E+002  0.1063945E+03  0.7546771E-02  0.1267396E+00
         21   -1    0    0  504  501  0.00000000000E+00  0.00000000000E+00  0.17564368254E+03  0.17564368254E+03  0.00000000000E+00 0.  1.
         21   -1    0    0  503  502 -0.00000000000E+00 -0.00000000000E+00 -0.45083979440E+03  0.45083979440E+03  0.00000000000E+00 0.  1.
         21    1    1    2  503  506 -0.25847131003E+02  0.40537067386E+02 -0.26650010003E+03  0.27080183036E+03  0.00000000000E+00 0.  1.
         21    1    1    2  504  502 -0.57930355608E+02  0.50757757316E+02  0.16803118974E+02  0.78832866470E+02  0.00000000000E+00 0. -1.
         21    1    1    2  505  501 -0.32000947125E+02 -0.11723644490E+03  0.55079102441E+02  0.13342470594E+03  0.00000000000E+00 0.  1.
         21    1    1    2  506  505  0.11577843374E+03  0.25941620202E+02 -0.80578233246E+02  0.14342407416E+03  0.00000000000E+00 0.  1.
<scales pt_clust_3="48.07627" pt_clust_4="84.90933" pt_clust_5="14000.00000" pt_clust_6="106.39445"></scales>
<clustering>
<clus scale="   48.076">  2  3  1 -1</clus>
<clus scale="   84.909">  1  4  2 -1</clus>
<clus scale="  106.394">  2  6  1 -1</clus>
<clus scale="   84.909">  1  3  2 -1</clus>
</clustering>
</event>
<event>
 6    0  0.1923631E+002  0.1862678E+03  0.7546771E-02  0.1161871E+00
         21   -1    0    0  505  501  0.00000000000E+00  0.00000000000E+00  0.17606465289E+04  0.17606465289E+04  0.00000000000E+00 0. -1.
         21   -1    0    0  506  502 -0.00000000000E+00 -0.00000000000E+00 -0.34667118897E+03  0.34667118897E+03  0.00000000000E+00 0. -1.
         21    1    1    2  503  502 -0.10399972647E+03  0.36202875384E+02 -0.10633185175E+00  0.11012085451E+03  0.00000000000E+00 0. -1.
         21    1    1    2  504  501  0.13185632641E+03 -0.11162648181E+03  0.16718043458E+04  0.16807070932E+04  0.00000000000E+00 0. -1.
         21    1    1    2  505  503 -0.92620438504E+01  0.47773578597E+02  0.74514765441E+01  0.49230323693E+02  0.00000000000E+00 0. -1.
         21    1    1    2  506  504 -0.18594556085E+02  0.27650027831E+02 -0.26517415064E+03  0.26725944646E+03  0.00000000000E+00 0. -1.
<scales pt_clust_3="48.97484" pt_clust_4="170.98865" pt_clust_5="48.97484" pt_clust_6="33.32089"></scales>
<clustering>
<clus scale="   33.321">  2  6  1 -1</clus>
<clus scale="   48.975">  3  5 -1 -1</clus>
<clus scale="  170.989">  1  4  2 -1</clus>
<clus scale="  170.989">  1  3  2 -1</clus>
</clustering>
</event>
<event>
 6    0  0.1438923E+002  0.5857502E+02  0.7546771E-02  0.1403911E+00
         21   -1    0    0  504  501  0.00000000000E+00  0.00000000000E+00  0.62031391711E+02  0.62031391711E+02  0.00000000000E+00 0. -1.
         21   -1    0    0  505  502 -0.00000000000E+00 -0.00000000000E+00 -0.84421094121E+03  0.84421094121E+03  0.00000000000E+00 0. -1.
         21    1    1    2  503  501 -0.13004722135E+03 -0.18682914356E+02 -0.71844084050E+02  0.14974279108E+03  0.00000000000E+00 0. -1.
         21    1    1    2  504  506  0.38194433721E+02  0.83124290277E+01 -0.11315976466E+02  0.40693519963E+02  0.00000000000E+00 0. -1.
         21    1    1    2  505  503  0.49277334136E+02  0.27612564713E+02 -0.63221386488E+03  0.63473229029E+03  0.00000000000E+00 0. -1.
         21    1    1    2  506  502  0.42575453490E+02 -0.17242079384E+02 -0.66805624110E+02  0.81073731591E+02  0.00000000000E+00 0. -1.
<scales pt_clust_3="14000.00000" pt_clust_4="39.08851" pt_clust_5="58.57502" pt_clust_6="50.90723"></scales>
<clustering>
<clus scale="   39.089">  1  4  2 -1</clus>
<clus scale="   50.907">  1  6  2 -1</clus>
<clus scale="   58.575">  2  5  1 -1</clus>
<clus scale="   39.089">  1  3  2 -1</clus>
</clustering>
</event>
<event>
 6    0  0.1438923E+002  0.8691590E+02  0.7546771E-02  0.1310497E+00
         21   -1    0    0  505  501  0.00000000000E+00  0.00000000000E+00  0.26204515507E+03  0.26204515507E+03  0.00000000000E+00 0. -1.
         21   -1    0    0  503  502 -0.00000000000E+00 -0.00000000000E+00 -0.35877112303E+03  0.35877112303E+03  0.00000000000E+00 0. -1.
         21    1    1    2  503  501 -0.41240842390E+02 -0.18125940620E+02  0.17574381244E+02  0.48355099840E+02  0.00000000000E+00 0. -1.
         21    1    1    2  504  502 -0.74606485086E+02 -0.44900258087E+02 -0.30660739641E+03  0.31873226433E+03  0.00000000000E+00 0. -1.
         21    1    1    2  505  506  0.59252214253E+02 -0.65700050208E+01  0.13421232791E+03  0.14685686509E+03  0.00000000000E+00 0. -1.
         21    1    1    2  506  504  0.56595113223E+02  0.69596203728E+02  0.58094719286E+02  0.10687204884E+03  0.00000000000E+00 0. -1.
<scales pt_clust_3="45.04838" pt_clust_4="14000.00000" pt_clust_5="38.28410" pt_clust_6="86.91590"></scales>
<clustering>
<clus scale="   45.048">  1  3  2 -1</clus>
<clus scale="   38.284">  1  5  2 -1</clus>
<clus scale="   86.916">  1  6  2 -1</clus>
<clus scale="   45.048">  1  3  2 -1</clus>
</clustering>
</event>
<event>
 6    0  0.1438923E+002  0.1766313E+03  0.7546771E-02  0.1171104E+00
         21   -1    0    0  504  501  0.00000000000E+00  0.00000000000E+00  0.13953729746E+04  0.13953729746E+04  0.00000000000E+00 0.  1.
         21   -1    0    0  506  502 -0.00000000000E+00 -0.00000000000E+00 -0.77329533802E+02  0.77329533802E+02  0.00000000000E+00 0. -1.
         21    1    1    2  503  505 -0.24098587042E+02 -0.10395555559E+03  0.70557482546E+03  0.71359886054E+03  0.00000000000E+00 0.  1.
         21    1    1    2  504  503  0.27949946777E+02 -0.60930536368E+02  0.48565858578E+03  0.49026318619E+03  0.00000000000E+00 0.  1.
         21    1    1    2  505  502  0.48692525692E+01  0.19743380111E+03  0.84653360523E+02  0.21487207098E+03  0.00000000000E+00 0. -1.
         21    1    1    2  506  501 -0.87206123048E+01 -0.32547709144E+02  0.42156668984E+02  0.53968390650E+02  0.00000000000E+00 0.  1.
<scales pt_clust_3="43.62075" pt_clust_4="43.62075" pt_clust_5="167.79180" pt_clust_6="33.69573"></scales>
<clustering>
<clus scale="   33.696">  2  6  1 -1</clus>
<clus scale="   43.621">  3  4 -1 -1</clus>
<clus scale="  167.792">  2  5  1 -1</clus>
<clus scale="  176.631">  1  3  2 -1</clus>
</clustering>
</event>
<event>
 6    0  0.1438923E+002  0.1546155E+03  0.7546771E-02  0.1194914E+00
         21   -1    0    0  505  501  0.00000000000E+00  0.00000000000E+00  0.10468860454E+04  0.10468860454E+04  0.00000000000E+00 0.  1.
         21   -1    0    0  506  502 -0.00000000000E+00 -0.00000000000E+00 -0.20804131999E+04  0.20804131999E+04  0.00000000000E+00 0. -1.
         21    1    1    2  503  501  0.38100490451E+02  0.83512762468E+01  0.12730293644E+03  0.13314439084E+03  0.00000000000E+00 0. -1.
         21    1    1    2  504  503  0.46454943289E+02  0.32339527448E+02  0.76938852138E+02  0.95516981526E+02  0.00000000000E+00 0. -1.
         21    1    1    2  505  502  0.54206007181E+02  0.14903331200E+02  0.82677761212E+03  0.82868668410E+03  0.00000000000E+00 0.  1.
         21    1    1    2  506  504 -0.13876144092E+03 -0.55594134894E+02 -0.20645465553E+04  0.20699511888E+04  0.00000000000E+00 0. -1.
<scales pt_clust_3="34.88428" pt_clust_4="34.88428" pt_clust_5="56.21744" pt_clust_6="148.79515"></scales>
<clustering>
<clus scale="   34.884">  3  4 -1 -1</clus>
<clus scale="   56.217">  1  5  2 -1</clus>
<clus scale="  148.795">  2  6  1 -1</clus>
<clus scale="   56.217">  1  3  2 -1</clus>
</clustering>
</event>
<event>
 6    0  0.1438923E+002  0.1662976E+03  0.7546771E-02  0.1181765E+00
         21   -1    0    0  503  501  0.00000000000E+00  0.00000000000E+00  0.11804958077E+04  0.11804958077E+04  0.00000000000E+00 0. -1.
         21   -1    0    0  506  502 -0.00000000000E+00 -0.00000000000E+00 -0.18724701932E+03  0.18724701932E+03  0.00000000000E+00 0.  1.
         21    1    1    2  503  502 -0.27006869722E+02  0.22758740797E+02  0.66600699189E+02  0.75385571745E+02  0.00000000000E+00 0.  1.
         21    1    1    2  504  501 -0.44511834986E+02  0.43143929184E+02  0.45103937294E+03  0.45527927475E+03  0.00000000000E+00 0. -1.
         21    1    1    2  505  504  0.52065848802E+02  0.10390988080E+03  0.60917123262E+03  0.62015942031E+03  0.00000000000E+00 0. -1.
         21    1    1    2  506  505  0.19452855906E+02 -0.16981255078E+03 -0.13356251635E+03  0.21691856024E+03  0.00000000000E+00 0.  1.
<scales pt_clust_3="35.31758" pt_clust_4="76.38616" pt_clust_5="14000.00000" pt_clust_6="166.29759"></scales>
<clustering>
<clus scale="   35.318">  1  3  2 -1</clus>
<clus scale="   76.386">  1  4  2 -1</clus>
<clus scale="  166.298">  2  6  1 -1</clus>
<clus scale="   35.318">  1  3  2 -1</clus>
</clustering>
</event>
<event>
 6    0  0.1438923E+002  0.9745440E+02  0.7546771E-02  0.1285742E+00
         21   -1    0    0  506  501  0.00000000000E+00  0.00000000000E+00  0.74825372392E+03  0.74825372392E+03  0.00000000000E+00 0. -1.
         21   -1    0    0  503  502 -0.00000000000E+00 -0.00000000000E+00 -0.87570132974E+03  0.87570132974E+03  0.00000000000E+00 0.  1.
         21    1    1    2  503  504  0.51861469075E+02  0.56671544401E+02  0.22163182389E+03  0.23456756229E+03  0.00000000000E+00 0. -1.
         21    1    1    2  504  501  0.14219516336E+01  0.62922292095E+02  0.10663928574E+03  0.12382719431E+03  0.00000000000E+00 0. -1.
         21    1    1    2  505  502 -0.38441093089E+02 -0.53792836729E+02 -0.85654742820E+03  0.85909538684E+03  0.00000000000E+00 0.  1.
         21    1    1    2  506  505 -0.14842327619E+02 -0.65800999767E+02  0.40082871277E+03  0.40646491022E+03  0.00000000000E+00 0. -1.
<scales pt_clust_3="53.87796" pt_clust_4="53.87796" pt_clust_5="66.11646" pt_clust_6="77.16404"></scales>
<clustering>
<clus scale="   53.878">  3  4 -1 -1</clus>
<clus scale="   66.116">  2  5  1 -1</clus>
<clus scale="   77.164">  1  6  2 -1</clus>
<clus scale="   77.164">  1  3  2 -1</clus>
</clustering>
</event>
<event>
 6    0  0.1438923E+002  0.1484852E+03  0.7546771E-02  0.1202347E+00
         21   -1    0    0  505  501  0.00000000000E+00  0.00000000000E+00  0.25702792520E+04  0.25702792520E+04  0.00000000000E+00 0. -1.
         21   -1    0    0  506  502 -0.00000000000E+00 -0.00000000000E+00 -0.17856782373E+03  0.17856782373E+03  0.00000000000E+00 0.  1.
         21    1    1    2  503  504  0.11465458843E+03  0.10524230768E+03  0.21607110849E+04  0.21663088447E+04  0.00000000000E+00 0. -1.
         21    1    1    2  504  501  0.30643346940E+02  0.22420311960E+02  0.80277023605E+02  0.88803635168E+02  0.00000000000E+00 0. -1.
         21    1    1    2  505  502 -0.29087388758E+02 -0.35397326986E+02  0.28798082025E+03  0.29160246874E+03  0.00000000000E+00 0. -1.
         21    1    1    2  506  503 -0.11621054661E+03 -0.92265292650E+02 -0.13725750053E+03  0.20213212714E+03  0.00000000000E+00 0.  1.
<scales pt_clust_3="148.48516" pt_clust_4="37.96953" pt_clust_5="41.54241" pt_clust_6="14000.00000"></scales>
<clustering>
<clus scale="   37.970">  1  4  2 -1</clus>
<clus scale="   41.542">  1  5  2 -1</clus>
<clus scale="  148.485">  1  3  2 -1</clus>
<clus scale="   37.970">  1  3  2 -1</clus>
</clustering>
</event>
<event>
 6    0  0.2841963E+002  0.1513793E+03  0.7546771E-02  0.1198788E+00
         21   -1    0    0  506  501  0.00000000000E+00  0.00000000000E+00  0.50651707808E+03  0.50651707808E+03  0.00000000000E+00 0.  1.
         21   -1    0    0  503  502 -0.00000000000E+00 -0.00000000000E+00 -0.17047316179E+04  0.17047316179E+04  0.00000000000E+00 0. -1.
         21    1    1    2  503  501  0.34191982138E+01  0.40943490346E+02 -0.14029712846E+04  0.14035727576E+04  0.00000000000E+00 0. -1.
         21    1    1    2  504  505 -0.25369760315E+02 -0.31141966042E+02 -0.41406905240E+02  0.57688634833E+02  0.00000000000E+00 0. -1.
         21    1    1    2  505  502 -0.11647095538E+03 -0.19774415593E+02 -0.22753591456E+03  0.25637687761E+03  0.00000000000E+00 0. -1.
         21    1    1    2  506  504  0.13842151748E+03  0.99728912887E+01  0.47369956463E+03  0.49361042594E+03  0.00000000000E+00 0.  1.
<scales pt_clust_3="41.08601" pt_clust_4="34.96492" pt_clust_5="34.96492" pt_clust_6="138.99657"></scales>
<clustering>
<clus scale="   34.965">  4  5 -1 -1</clus>
<clus scale="   41.086">  2  3  1 -1</clus>
<clus scale="  138.997">  1  6  2 -1</clus>
<clus scale="  138.997">  1  3  2 -1</clus>
</clustering>
</event>
<event>
 6    0  0.1438923E+002  0.1634532E+03  0.7546771E-02  0.1184852E+00
         21   -1    0    0  503  501  0.00000000000E+00  0.00000000000E+00  0.15835351998E+03  0.15835351998E+03  0.00000000000E+00 0.  1.
         21   -1    0    0  505  502 -0.00000000000E+00 -0.00000000000E+00 -0.48957742308E+03  0.48957742308E+03  0.00000000000E+00 0.  1.
         21    1    1    2  503  506 -0.10536289282E+03 -0.16777290964E+02  0.22207753511E+02  0.10897706636E+03  0.00000000000E+00 0.  1.
         21    1    1    2  504  501  0.10626616070E+03  0.63003012769E+02 -0.13015744321E+02  0.12422272790E+03  0.00000000000E+00 0. -1.
         21    1    1    2  505  504  0.60952517976E+02  0.11865341403E+02 -0.32195568059E+03  0.32788939605E+03  0.00000000000E+00 0.  1.
         21    1    1    2  506  502 -0.61855785850E+02 -0.58091063208E+02 -0.18460231700E+02  0.86841752758E+02  0.00000000000E+00 0.  1.
<scales pt_clust_3="61.55303" pt_clust_4="148.16659" pt_clust_5="62.09666" pt_clust_6="61.55303"></scales>
<clustering>
<clus scale="   61.553">  3  6 -1 -1</clus>
<clus scale="   62.097">  2  5  1 -1</clus>
<clus scale="  148.167">  1  4  2 -1</clus>
<clus scale="  148.167">  1  3  2 -1</clus>
</clustering>
</event>
<event>
 6    0  0.1438923E+002  0.9871538E+02  0.7546771E-02  0.1283021E+00
         21   -1    0    0  503  501  0.00000000000E+00  0.00000000000E+00  0.25378536648E+03  0.25378536648E+03  0.00000000000E+00 0.  1.
         21   -1    0    0  505  502 -0.00000000000E+00 -0.00000000000E+00 -0.46639838298E+03  0.46639838298E+03  0.00000000000E+00 0. -1.
         21    1    1    2  503  504 -0.61746099923E+02 -0.48288812616E+02 -0.39358303859E+02  0.87712407117E+02  0.00000000000E+00 0. -1.
         21    1    1    2  504  502 -0.38683564293E+02 -0.12676960418E+02 -0.37966966155E+03  0.38184574814E+03  0.00000000000E+00 0. -1.
         21    1    1    2  505  506  0.47915774392E+02  0.73839797116E+02  0.13123635187E+03  0.15802283735E+03  0.00000000000E+00 0.  1.
         21    1    1    2  506  501  0.52513889824E+02 -0.12874024082E+02  0.75178597048E+02  0.92602756842E+02  0.00000000000E+00 0. -1.
<scales pt_clust_3="14000.00000" pt_clust_4="40.70778" pt_clust_5="98.71538" pt_clust_6="50.60135"></scales>
<clustering>
<clus scale="   40.708">  2  4  1 -1</clus>
<clus scale="   50.601">  1  6  2 -1</clus>
<clus scale="   98.715">  1  5  2 -1</clus>
<clus scale="   50.601">  1  3  2 -1</clus>
</clustering>
</event>
<event>
 6    0  0.1438923E+002  0.1008761E+03  0.7546771E-02  0.1278464E+00
         21   -1    0    0  505  501  0.00000000000E+00  0.00000000000E+00  0.21682560496E+03  0.21682560496E+03  0.00000000000E+00 0. -1.
         21   -1    0    0  503  502 -0.00000000000E+00 -0.00000000000E+00 -0.67688315309E+03  0.67688315309E+03  0.00000000000E+00 0. -1.
         21    1    1    2  503  504 -0.50976541512E+02 -0.37229780993E+02 -0.57076996600E+03  0.57424996166E+03  0.00000000000E+00 0. -1.
         21    1    1    2  504  501  0.23956403386E+01  0.56452910622E+02 -0.74459121486E+01  0.56992208398E+02  0.00000000000E+00 0. -1.
         21    1    1    2  505  506  0.32901953323E+02  0.70620156434E+02  0.14737429308E+03  0.16670011184E+03  0.00000000000E+00 0. -1.
         21    1    1    2  506  502  0.15678947850E+02 -0.89843286063E+02 -0.29215963062E+02  0.95766476149E+02  0.00000000000E+00 0. -1.
<scales pt_clust_3="62.80629" pt_clust_4="56.50372" pt_clust_5="14000.00000" pt_clust_6="100.87607"></scales>
<clustering>
<clus scale="   56.504">  1  4  2 -1</clus>
<clus scale="   62.806">  2  3  1 -1</clus>
<clus scale="  100.876">  2  6  1 -1</clus>
<clus scale="   56.504">  1  3  2 -1</clus>
</clustering>
</event>
<event>
 6    0  0.1438923E+002  0.1208628E+03  0.7546771E-02  0.1241681E+00
         21   -1    0    0  506  501  0.00000000000E+00  0.00000000000E+00  0.69528804287E+02  0.69528804287E+02  0.00000000000E+00 0.  1.
         21   -1    0    0  503  502 -0.00000000000E+00 -0.00000000000E+00 -0.50599281187E+03  0.50599281187E+03  0.00000000000E+00 0.  1.
         21    1    1    2  503  505 -0.65009389733E+02 -0.52824980439E+01 -0.49765339489E+02  0.82040932183E+02  0.00000000000E+00 0.  1.
         21    1    1    2  504  502  0.13372761019E+01 -0.38334992033E+02 -0.30792000819E+03  0.31030000220E+03  0.00000000000E+00 0.  1.
         21    1    1    2  505  501 -0.41036893985E+02  0.44640614696E+02 -0.30423346986E+02  0.67840925629E+02  0.00000000000E+00 0.  1.
         21    1    1    2  506  504  0.10470900762E+03 -0.10231246194E+01 -0.48355312914E+02  0.11533975614E+03  0.00000000000E+00 0.  1.
<scales pt_clust_3="50.94849" pt_clust_4="38.35831" pt_clust_5="50.94849" pt_clust_6="106.62240"></scales>
<clustering>
<clus scale="   38.358">  2  4  1 -1</clus>
<clus scale="   50.948">  3  5 -1 -1</clus>
<clus scale="  106.622">  1  6  2 -1</clus>
<clus scale="  106.622">  1  3  2 -1</clus>
</clustering>
</event>
<event>
 6    0  0.1438923E+002  0.1377693E+03  0.7546771E-02  0.1216362E+00
         21   -1    0    0  504  501  0.00000000000E+00  0.00000000000E+00  0.48560409615E+02  0.48560409615E+02  0.00000000000E+00 0.  1.
         21   -1    0    0  506  502 -0.00000000000E+00 -0.00000000000E+00 -0.59707415321E+03  0.59707415321E+03  0.00000000000E+00 0.  1.
         21    1    1    2  503  502 -0.15937489757E+02  0.44113581066E+02 -0.95823735711E+02  0.10668739354E+03  0.00000000000E+00 0. -1.
         21    1    1    2  504  505 -0.24258238955E+02  0.44621440721E+02 -0.24162204272E+02  0.56243641814E+02  0.00000000000E+00 0.  1.
         21    1    1    2  505  503  0.42659178595E+02  0.59139342012E+02 -0.11720322231E+03  0.13803572947E+03  0.00000000000E+00 0.  1.
         21    1    1    2  506  501 -0.24634498832E+01 -0.14787436380E+03 -0.31132458131E+03  0.34466779801E+03  0.00000000000E+00 0.  1.
<scales pt_clust_3="44.89659" pt_clust_4="50.78912" pt_clust_5="44.89659" pt_clust_6="125.88353"></scales>
<clustering>
<clus scale="   44.897">  3  5 -1 -1</clus>
<clus scale="   50.789">  1  4  2 -1</clus>
<clus scale="  125.884">  1  6  2 -1</clus>
<clus scale="   50.789">  1  3  2 -1</clus>
</clustering>
</event>
<event>
 6    0  0.1438923E+002  0.2679535E+03  0.7546771E-02  0.1102457E+00
         21   -1    0    0  503  501  0.00000000000E+00  0.00000000000E+00  0.95518526218E+03  0.95518526218E+03  0.00000000000E+00 0.  1.
         21   -1    0    0  504  502 -0.00000000000E+00 -0.00000000000E+00 -0.94183167430E+03  0.94183167430E+03  0.00000000000E+00 0.  1.
         21    1    1    2  503  502 -0.10559569647E+03 -0.19568019889E+03  0.56479423010E+03  0.60698740819E+03  0.00000000000E+00 0.  1.
         21    1    1    2  504  505 -0.31934295311E+02  0.10347753358E+03 -0.72284299107E+03  0.73090997319E+03  0.00000000000E+00 0.  1.
         21    1    1    2  505  506  0.28444053103E+03  0.44933373734E+02 -0.46913552990E+02  0.29176412600E+03  0.00000000000E+00 0.  1.
         21    1    1    2  506  501 -0.14691053924E+03  0.47269291575E+02  0.21831590185E+03  0.26735542910E+03  0.00000000000E+00 0.  1.
<scales pt_clust_3="14000.00000" pt_clust_4="108.29312" pt_clust_5="267.95347" pt_clust_6="161.72783"></scales>
<clustering>
<clus scale="  108.293">  2  4  1 -1</clus>
<clus scale="  161.728">  1  6  2 -1</clus>
<clus scale="  267.953">  2  5  1 -1</clus>
<clus scale="  161.728">  1  3  2 -1</clus>
</clustering>
</event>
<event>
 6    0  0.1438923E+002  0.1570418E+03  0.7546771E-02  0.1192078E+00
         21   -1    0    0  503  501  0.00000000000E+00  0.00000000000E+00  0.28995979875E+03  0.28995979875E+03  0.00000000000E+00 0. -1.
         21   -1    0    0  504  502 -0.00000000000E+00 -0.00000000000E+00 -0.14154705511E+03  0.14154705511E+03  0.00000000000E+00 0. -1.
         21    1    1    2  503  506  0.70381299016E+01 -0.59625604472E+02  0.71283194938E+02  0.93198937020E+02  0.00000000000E+00 0. -1.
         21    1    1    2  504  501  0.28668252307E+02 -0.10168491106E+02 -0.48944244289E+02  0.57626434478E+02  0.00000000000E+00 0. -1.
         21    1    1    2  505  502  0.19520929190E+02  0.14767260293E+03  0.45497063175E+02  0.15575059259E+03  0.00000000000E+00 0. -1.
         21    1    1    2  506  505 -0.55227311398E+02 -0.77878507358E+02  0.80576729816E+02  0.12493088978E+03  0.00000000000E+00 0. -1.
<scales pt_clust_3="46.58604" pt_clust_4="30.41820" pt_clust_5="146.19347" pt_clust_6="46.58604"></scales>
<clustering>
<clus scale="   30.418">  2  4  1 -1</clus>
<clus scale="   46.586">  3  6 -1 -1</clus>
<clus scale="  146.193">  2  5  1 -1</clus>
<clus scale="  157.042">  1  3  2 -1</clus>
</clustering>
</event>
<event>
 6    0  0.1438923E+002  0.1903331E+03  0.7546771E-02  0.1158161E+00
         21   -1    0    0  504  501  0.00000000000E+00  0.00000000000E+00  0.12054422934E+04  0.12054422934E+04  0.00000000000E+00 0.  1.
         21   -1    0    0  506  502 -0.00000000000E+00 -0.00000000000E+00 -0.93542909808E+02  0.93542909808E+02  0.00000000000E+00 0.  1.
         21    1    1    2  503  501  0.40208089849E+00 -0.11091320640E+03  0.44252634753E+03  0.45621428000E+03  0.00000000000E+00 0. -1.
         21    1    1    2  504  502 -0.19260624426E+03  0.85635573517E+02  0.48743276058E+03  0.53105678874E+03  0.00000000000E+00 0.  1.
         21    1    1    2  505  503  0.18578074626E+03  0.76665860674E+02  0.15105640483E+03  0.25141634257E+03  0.00000000000E+00 0.  1.
         21    1    1    2  506  505  0.64234171059E+01 -0.51388227788E+02  0.30883870700E+02  0.60297791932E+02  0.00000000000E+00 0. -1.
<scales pt_clust_3="115.37835" pt_clust_4="190.33313" pt_clust_5="14000.00000" pt_clust_6="51.78813"></scales>
<clustering>
<clus scale="   51.788">  2  6  1 -1</clus>
<clus scale="  115.378">  1  3  2 -1</clus>
<clus scale="  190.333">  1  4  2 -1</clus>
<clus scale="  115.378">  1  3  2 -1</clus>
</clustering>
</event>
<event>
 6    0  0.1438923E+002  0.1753522E+03  0.7546771E-02  0.1172379E+00
         21   -1    0    0  503  501  0.00000000000E+00  0.00000000000E+00  0.98755574818E+02  0.98755574818E+02  0.00000000000E+00 0.  1.
         21   -1    0    0  504  502 -0.00000000000E+00 -0.00000000000E+00 -0.46990301655E+03  0.46990301655E+03  0.00000000000E+00 0.  1.
         21    1    1    2  503  506 -0.53495379452E+01 -0.58881870251E+02  0.56265807799E+01  0.59391502858E+02  0.00000000000E+00 0.  1.
         21    1    1    2  504  505 -0.56538452064E+02  0.47065115039E+02 -0.97757941805E+02  0.12234515438E+03  0.00000000000E+00 0.  1.
         21    1    1    2  505  501 -0.10219336778E+03 -0.92659213261E+01 -0.10921285270E+03  0.14985589382E+03  0.00000000000E+00 0.  1.
         21    1    1    2  506  502  0.16408135779E+03  0.21082676538E+02 -0.16980322800E+03  0.23706604030E+03  0.00000000000E+00 0.  1.
<scales pt_clust_3="59.12438" pt_clust_4="57.62549" pt_clust_5="57.62549" pt_clust_6="161.60587"></scales>
<clustering>
<clus scale="   57.625">  4  5 -1 -1</clus>
<clus scale="   59.124">  1  3  2 -1</clus>
<clus scale="  161.606">  1  6  2 -1</clus>
<clus scale="   59.124">  1  3  2 -1</clus>
</clustering>
</event>
<event>
 6    0  0.1438923E+002  0.7348725E+02  0.7546771E-02  0.1348621E+00
         21   -1    0    0  506  501  0.00000000000E+00  0.00000000000E+00  0.61972607918E+03  0.61972607918E+03  0.00000000000E+00 0.  1.
         21   -1    0    0  504  502 -0.00000000000E+00 -0.00000000000E+00 -0.56944832958E+02  0.56944832958E+02  0.00000000000E+00 0.  1.
         21    1    1    2  503  501  0.55081931909E+02  0.10116560066E+03  0.35044437574E+03  0.36888990019E+03  0.00000000000E+00 0.  1.
         21    1    1    2  504  503 -0.51570506318E+02 -0.12770290751E+02 -0.14295749880E+02  0.55017869028E+02  0.00000000000E+00 0.  1.
         21    1    1    2  505  502  0.20529310564E+02 -0.38838506546E+02  0.44691951415E+02  0.62667796389E+02  0.00000000000E+00 0.  1.
         21    1    1    2  506  505 -0.24040736155E+02 -0.49556803359E+02  0.18194066895E+03  0.19009534653E+03  0.00000000000E+00 0.  1.
<scales pt_clust_3="14000.00000" pt_clust_4="54.92851" pt_clust_5="43.93042" pt_clust_6="73.48725"></scales>
<clustering>
<clus scale="   43.930">  2  5  1 -1</clus>
<clus scale="   54.929">  2  4  1 -1</clus>
<clus scale="   73.487">  1  6  2 -1</clus>
<clus scale="   73.487">  1  3  2 -1</clus>
</clustering>
</event>
<event>
 6    0  0.1438923E+002  0.9868936E+02  0.7546771E-02  0.1283076E+00
         21   -1    0    0  506  501  0.00000000000E+00  0.00000000000E+00  0.14589226142E+03  0.14589226142E+03  0.00000000000E+00 0.  1.
         21   -1    0    0  505  502 -0.00000000000E+00 -0.00000000000E+00 -0.18964571012E+03  0.18964571012E+03  0.00000000000E+00 0. -1.
         21    1    1    2  503  502  0.93294391920E+01  0.60249874576E+02  0.68017419534E+01  0.61346145075E+02  0.00000000000E+00 0.  1.
         21    1    1    2  504  503  0.27586421002E+02  0.59119044480E+02  0.39614127026E+02  0.76323987736E+02  0.00000000000E+00 0.  1.
         21    1    1    2  505  501 -0.17771620446E+02 -0.49091927002E+02 -0.11052766939E+03  0.12223834705E+03  0.00000000000E+00 0. -1.
         21    1    1    2  506  504 -0.19144239748E+02 -0.70276992053E+02  0.20358351712E+02  0.75629491682E+02  0.00000000000E+00 0.  1.
<scales pt_clust_3="33.30488" pt_clust_4="33.30488" pt_clust_5="52.20965" pt_clust_6="92.48068"></scales>
<clustering>
<clus scale="   33.305">  3  4 -1 -1</clus>
<clus scale="   52.210">  2  5  1 -1</clus>
<clus scale="   92.481">  1  6  2 -1</clus>
<clus scale="   92.481">  1  3  2 -1</clus>
</clustering>
</event>
<event>
 6    0  0.1438923E+002  0.2361715E+03  0.7546771E-02  0.1122370E+00
         21   -1    0    0  505  501  0.00000000000E+00  0.00000000000E+00  0.17342987133E+04  0.17342987133E+04  0.00000000000E+00 0.  1.
         21   -1    0    0  506  502 -0.00000000000E+00 -0.00000000000E+00 -0.36911801464E+02  0.36911801464E+02  0.00000000000E+00 0.  1.
         21    1    1    2  503  502 -0.56417203749E+01 -0.39732151081E+02  0.48900785640E+02  0.63259463122E+02  0.00000000000E+00 0.  1.
         21    1    1    2  504  503 -0.43808196273E+02 -0.18835347773E+03  0.67004713984E+03  0.69739469473E+03  0.00000000000E+00 0.  1.
         21    1    1    2  505  504  0.14750761121E+02  0.20760206341E+03  0.73889562314E+03  0.76764766891E+03  0.00000000000E+00 0.  1.
         21    1    1    2  506  501  0.34699155527E+02  0.20483565403E+02  0.23954336324E+03  0.24290868802E+03  0.00000000000E+00 0.  1.
<scales pt_clust_3="38.76227" pt_clust_4="38.76227" pt_clust_5="220.31049" pt_clust_6="40.29402"></scales>
<clustering>
<clus scale="   38.762">  3  4 -1 -1</clus>
<clus scale="   40.294">  1  6  2 -1</clus>
<clus scale="  220.310">  1  5  2 -1</clus>
<clus scale="   40.294">  1  3  2 -1</clus>
</clustering>
</event>
<event>
 6    0  0.1438923E+002  0.1815580E+03  0.7546771E-02  0.1166304E+00
         21   -1    0    0  506  501  0.00000000000E+00  0.00000000000E+00  0.38429497913E+03  0.38429497913E+03  0.00000000000E+00 0.  1.
         21   -1    0    0  504  502 -0.00000000000E+00 -0.00000000000E+00 -0.35051501832E+03  0.35051501832E+03  0.00000000000E+00 0.  1.
         21    1    1    2  503  505 -0.72232595521E+02 -0.12269989338E+03  0.18744926293E+03  0.23539336835E+03  0.00000000000E+00 0.  1.
         21    1    1    2  504  503  0.19013026757E+03  0.42572822121E+02 -0.23537840721E+03  0.30555680062E+03  0.00000000000E+00 0.  1.
         21    1    1    2  505  501 -0.33887855983E+02  0.77401713238E+02  0.68501680385E+02  0.10877450166E+03  0.00000000000E+00 0.  1.
         21    1    1    2  506  502 -0.84009816064E+02  0.27253580212E+01  0.13207424698E+02  0.85085326812E+02  0.00000000000E+00 0.  1.
<scales pt_clust_3="14000.00000" pt_clust_4="181.55797" pt_clust_5="96.18232" pt_clust_6="84.05401"></scales>
<clustering>
<clus scale="   84.054">  1  6  2 -1</clus>
<clus scale="   96.182">  1  5  2 -1</clus>
<clus scale="  181.558">  2  4  1 -1</clus>
<clus scale="   84.054">  1  3  2 -1</clus>
</clustering>
</event>
<event>
 6    0  0.1438923E+002  0.2112333E+03  0.7546771E-02  0.1140593E+00
         21   -1    0    0  506  501  0.00000000000E+00  0.00000000000E+00  0.60869316788E+03  0.60869316788E+03  0.00000000000E+00 0.  1.
         21   -1    0    0  503  502 -0.00000000000E+00 -0.00000000000E+00 -0.64349694085E+02  0.64349694085E+02  0.00000000000E+00 0.  1.
         21    1    1    2  503  504 -0.41740136502E+02  0.40528748386E+02  0.67524158017E+02  0.89130973050E+02  0.00000000000E+00 0.  1.
         21    1    1    2  504  505 -0.53118728402E+02 -0.26674869154E+01  0.11088275945E+03  0.12297845801E+03  0.00000000000E+00 0.  1.
         21    1    1    2  505  501 -0.89176246750E+02 -0.29560685495E+02  0.97831505798E+02  0.13563642814E+03  0.00000000000E+00 0.  1.
         21    1    1    2  506  502  0.18403511165E+03 -0.83005759752E+01  0.26810505053E+03  0.32529700276E+03  0.00000000000E+00 0.  1.
<scales pt_clust_3="55.94474" pt_clust_4="33.92934" pt_clust_5="55.94474" pt_clust_6="184.22221"></scales>
<clustering>
<clus scale="   33.929">  4  5 -1 -1</clus>
<clus scale="   55.945">  3  4 -1 -1</clus>
<clus scale="  184.222">  1  6  2 -1</clus>
<clus scale="  184.222">  1  3  2 -1</clus>
</clustering>
</event>
<event>
 6    0  0.1648145E+002  0.1125232E+03  0.7546771E-02  0.1255967E+00
         21   -1    0    0  503  501  0.00000000000E+00  0.00000000000E+00  0.90761885213E+02  0.90761885213E+02  0.00000000000E+00 0.  1.
         21   -1    0    0  505  502 -0.00000000000E+00 -0.00000000000E+00 -0.12436798277E+04  0.12436798277E+04  0.00000000000E+00 0.  1.
         21    1    1    2  503  506 -0.28532359288E+02 -0.37389375699E+02  0.41080787593E+02  0.62447514370E+02  0.00000000000E+00 0.  1.
         21    1    1    2  504  502 -0.31444944445E+02 -0.86874634543E+01 -0.57282415539E+02  0.65920646859E+02  0.00000000000E+00 0.  1.
         21    1    1    2  505  501  0.97745018306E+02  0.89839858230E+02 -0.11404454341E+04  0.11481468011E+04  0.00000000000E+00 0.  1.
         21    1    1    2  506  504 -0.37767714572E+02 -0.43763019077E+02  0.37291195356E+01  0.57926750601E+02  0.00000000000E+00 0.  1.
<scales pt_clust_3="34.84184" pt_clust_4="32.62295" pt_clust_5="105.64486" pt_clust_6="34.84184"></scales>
<clustering>
<clus scale="   32.623">  2  4  1 -1</clus>
<clus scale="   34.842">  3  6 -1 -1</clus>
<clus scale="  105.645">  2  5  1 -1</clus>
<clus scale="  112.523">  1  3  2 -1</clus>
</clustering>
</event>
<event>
 6    0  0.1438923E+002  0.8371378E+02  0.7546771E-02  0.1318831E+00
         21   -1    0    0  505  501  0.00000000000E+00  0.00000000000E+00  0.20649997893E+03  0.20649997893E+03  0.00000000000E+00 0.  1.
         21   -1    0    0  503  502 -0.00000000000E+00 -0.00000000000E+00 -0.69298676247E+03  0.69298676247E+03  0.00000000000E+00 0.  1.
         21    1    1    2  503  501 -0.35447603455E+02  0.10256614460E+02  0.51338979584E+02  0.63225165524E+02  0.00000000000E+00 0.  1.
         21    1    1    2  504  502 -0.43553966387E+02  0.24472674145E+02 -0.60422694106E+03  0.60628875634E+03  0.00000000000E+00 0.  1.
         21    1    1    2  505  506  0.10726055172E+02  0.67731479505E+02  0.80835544661E+02  0.10600465488E+03  0.00000000000E+00 0.  1.
         21    1    1    2  506  504  0.68275514669E+02 -0.10246076811E+03 -0.14434366727E+02  0.12396816465E+03  0.00000000000E+00 0.  1.
<scales pt_clust_3="36.90164" pt_clust_4="50.20683" pt_clust_5="14000.00000" pt_clust_6="83.71378"></scales>
<clustering>
<clus scale="   36.902">  1  3  2 -1</clus>
<clus scale="   50.207">  2  4  1 -1</clus>
<clus scale="   83.714">  2  6  1 -1</clus>
<clus scale="   36.902">  1  3  2 -1</clus>
</clustering>
</event>
<event>
 6    0  0.1438923E+002  0.1627139E+03  0.7546771E-02  0.1185666E+00
         21   -1    0    0  503  501  0.00000000000E+00  0.00000000000E+00  0.63335298242E+03  0.63335298242E+03  0.00000000000E+00 0. -1.
         21   -1    0    0  505  502 -0.00000000000E+00 -0.00000000000E+00 -0.16768077332E+03  0.16768077332E+03  0.00000000000E+00 0. -1.
         21    1    1    2  503  506  0.74313084885E+02 -0.30279626889E+01  0.37899813705E+03  0.38622686472E+03  0.00000000000E+00 0. -1.
         21    1    1    2  504  502  0.46731872648E+02  0.36719897893E+02  0.70721089392E+02  0.92377980641E+02  0.00000000000E+00 0. -1.
         21    1    1    2  505  501 -0.13837107182E+03 -0.95782719904E+02 -0.95631817990E+02  0.19356220592E+03  0.00000000000E+00 0. -1.
         21    1    1    2  506  504  0.17326114290E+02  0.62090784700E+02  0.11158480064E+03  0.12886670445E+03  0.00000000000E+00 0. -1.
<scales pt_clust_3="74.37475" pt_clust_4="41.26356" pt_clust_5="156.93634" pt_clust_6="41.26356"></scales>
<clustering>
<clus scale="   41.264">  4  6 -1 -1</clus>
<clus scale="   74.375">  1  3  2 -1</clus>
<clus scale="  156.936">  2  5  1 -1</clus>
<clus scale="   74.375">  1  3  2 -1</clus>
</clustering>
</event>
<event>
 6    0  0.1438923E+002  0.8556020E+02  0.7546771E-02  0.1313974E+00
         21   -1    0    0  504  501  0.00000000000E+00  0.00000000000E+00  0.75174473062E+03  0.75174473062E+03  0.00000000000E+00 0. -1.
         21   -1    0    0  506  502 -0.00000000000E+00 -0.00000000000E+00 -0.36901166061E+03  0.36901166061E+03  0.00000000000E+00 0.  1.
         21    1    1    2  503  505  0.60558485761E+02 -0.85640720545E+02  0.13858079232E+03  0.17379959497E+03  0.00000000000E+00 0.  1.
         21    1    1    2  504  502  0.73052609457E+00  0.42423216271E+02  0.42596130937E+02  0.60122319632E+02  0.00000000000E+00 0.  1.
         21    1    1    2  505  501  0.23509747908E+02  0.54973997717E+02  0.53716316335E+03  0.54048044621E+03  0.00000000000E+00 0. -1.
         21    1    1    2  506  503 -0.84798759763E+02 -0.11756493443E+02 -0.33560701660E+03  0.34635403042E+03  0.00000000000E+00 0.  1.
<scales pt_clust_3="83.64167" pt_clust_4="42.42951" pt_clust_5="14000.00000" pt_clust_6="85.56020"></scales>
<clustering>
<clus scale="   42.430">  1  4  2 -1</clus>
<clus scale="   85.560">  2  6  1 -1</clus>
<clus scale="   83.642">  2  3  1 -1</clus>
<clus scale="   42.430">  1  3  2 -1</clus>
</clustering>
</event>
<event>
 6    0  0.1438923E+002  0.1360446E+03  0.7546771E-02  0.1218753E+00
         21   -1    0    0  506  501  0.00000000000E+00  0.00000000000E+00  0.17251911085E+04  0.17251911085E+04  0.00000000000E+00 0.  1.
         21   -1    0    0  505  502 -0.00000000000E+00 -0.00000000000E+00 -0.99832641253E+02  0.99832641253E+02  0.00000000000E+00 0. -1.
         21    1    1    2  503  504  0.84295631908E+02 -0.25428460564E+02  0.82265676336E+03  0.82735512959E+03  0.00000000000E+00 0.  1.
         21    1    1    2  504  501  0.56348367199E+02  0.57182830543E+02  0.70262934654E+03  0.70720082948E+03  0.00000000000E+00 0.  1.
         21    1    1    2  505  503  0.37833690329E+02  0.30818762068E+02  0.88406414774E+02  0.10097959394E+03  0.00000000000E+00 0. -1.
         21    1    1    2  506  502 -0.17847768944E+03 -0.62573132046E+02  0.11665942553E+02  0.18948819672E+03  0.00000000000E+00 0. -1.
<scales pt_clust_3="14000.00000" pt_clust_4="81.46619" pt_clust_5="48.79738" pt_clust_6="136.04462"></scales>
<clustering>
<clus scale="   48.797">  2  5  1 -1</clus>
<clus scale="   81.466">  1  4  2 -1</clus>
<clus scale="  136.045">  2  6  1 -1</clus>
<clus scale="   81.466">  1  3  2 -1</clus>
</clustering>
</event>
<event>
 6    0  0.1438923E+002  0.7967833E+02  0.7546771E-02  0.1329967E+00
         21   -1    0    0  505  501  0.00000000000E+00  0.00000000000E+00  0.88511992784E+02  0.88511992784E+02  0.00000000000E+00 0.  1.
         21   -1    0    0  506  502 -0.00000000000E+00 -0.00000000000E+00 -0.16892691236E+04  0.16892691236E+04  0.00000000000E+00 0.  1.
         21    1    1    2  503  501  0.73768057145E+02  0.53451005940E+02  0.20269890595E+02  0.93325263223E+02  0.00000000000E+00 0.  1.
         21    1    1    2  504  502 -0.12129940204E+03 -0.67921793236E+01 -0.19528760068E+03  0.22999331646E+03  0.00000000000E+00 0.  1.
         21    1    1    2  505  504 -0.10535639083E+02 -0.33750990124E+02 -0.90129652161E+01  0.36487841361E+02  0.00000000000E+00 0.  1.
         21    1    1    2  506  503  0.58066983982E+02 -0.12907836493E+02 -0.14167264555E+04  0.14179746953E+04  0.00000000000E+00 0.  1.
<scales pt_clust_3="79.67833" pt_clust_4="14000.00000" pt_clust_5="35.35716" pt_clust_6="59.46036"></scales>
<clustering>
<clus scale="   35.357">  1  5  2 -1</clus>
<clus scale="   59.460">  2  6  1 -1</clus>
<clus scale="   79.678">  1  3  2 -1</clus>
<clus scale="   35.357">  1  3  2 -1</clus>
</clustering>
</event>
<event>
 6    0  0.1438923E+002  0.1822808E+03  0.7546771E-02  0.1165614E+00
         21   -1    0    0  504  501  0.00000000000E+00  0.00000000000E+00  0.11527851559E+03  0.11527851559E+03  0.00000000000E+00 0. -1.
         21   -1    0    0  506  502 -0.00000000000E+00 -0.00000000000E+00 -0.22897087687E+04  0.22897087687E+04  0.00000000000E+00 0.  1.
         21    1    1    2  503  501 -0.43351275540E+02 -0.64446624637E+01 -0.78403081757E+02  0.89821545267E+02  0.00000000000E+00 0. -1.
         21    1    1    2  504  505  0.91543678395E+02 -0.16638144681E+03  0.12700701330E+02  0.19032692587E+03  0.00000000000E+00 0. -1.
         21    1    1    2  505  502 -0.37756742656E+02  0.20918340966E+03 -0.19551691347E+04  0.19666900152E+04  0.00000000000E+00 0.  1.
         21    1    1    2  506  503 -0.10435660199E+02 -0.36357300395E+02 -0.15355873796E+03  0.15814879797E+03  0.00000000000E+00 0.  1.
<scales pt_clust_3="44.46602" pt_clust_4="182.28080" pt_clust_5="14000.00000" pt_clust_6="37.82534"></scales>
<clustering>
<clus scale="   37.825">  2  6  1 -1</clus>
<clus scale="   44.466">  1  3  2 -1</clus>
<clus scale="  182.281">  1  4  2 -1</clus>
<clus scale="   44.466">  1  3  2 -1</clus>
</clustering>
</event>
<event>
 6    0  0.1438923E+002  0.7831013E+02  0.7546771E-02  0.1333917E+00
         21   -1    0    0  506  501  0.00000000000E+00  0.00000000000E+00  0.20654847832E+03  0.20654847832E+03  0.00000000000E+00 0. -1.
         21   -1    0    0  504  502 -0.00000000000E+00 -0.00000000000E+00 -0.10621771879E+04  0.10621771879E+04  0.00000000000E+00 0.  1.
         21    1    1    2  503  505  0.45873560505E+02  0.25542337161E+02  0.27785597767E+02  0.59403989633E+02  0.00000000000E+00 0. -1.
         21    1    1    2  504  503 -0.12635125759E+03  0.68497464183E+02  0.93255153249E+02  0.17132736647E+03  0.00000000000E+00 0. -1.
         21    1    1    2  505  501  0.42848227295E+02 -0.25935134581E+02  0.75955335173E+01  0.50658601614E+02  0.00000000000E+00 0.  1.
         21    1    1    2  506  502  0.37629469794E+02 -0.68104666763E+02 -0.98426499416E+03  0.98733570854E+03  0.00000000000E+00 0.  1.
<scales pt_clust_3="59.57061" pt_clust_4="78.31013" pt_clust_5="50.08594" pt_clust_6="14000.00000"></scales>
<clustering>
<clus scale="   50.086">  1  5  2 -1</clus>
<clus scale="   59.571">  1  3  2 -1</clus>
<clus scale="   78.310">  1  4  2 -1</clus>
<clus scale="   50.086">  1  3  2 -1</clus>
</clustering>
</event>
<event>
 6    0  0.1438923E+002  0.4173837E+03  0.7546771E-02  0.1037921E+00
         21   -1    0    0  503  501  0.00000000000E+00  0.00000000000E+00  0.38486884284E+03  0.38486884284E+03  0.00000000000E+00 0. -1.
         21   -1    0    0  505  502 -0.00000000000E+00 -0.00000000000E+00 -0.84591510886E+03  0.84591510886E+03  0.00000000000E+00 0. -1.
         21    1    1    2  503  502  0.15941364463E+02  0.42751596355E+02 -0.30470747833E+03  0.30810464690E+03  0.00000000000E+00 0. -1.
         21    1    1    2  504  506 -0.96325948484E+02  0.17956095372E+03  0.59065165782E+02  0.21215446793E+03  0.00000000000E+00 0. -1.
         21    1    1    2  505  504  0.19999251803E+03 -0.38808760370E+03 -0.25014883461E+03  0.50317336463E+03  0.00000000000E+00 0. -1.
         21    1    1    2  506  501 -0.11960793401E+03  0.16577505362E+03  0.34744881133E+02  0.20735147225E+03  0.00000000000E+00 0. -1.
<scales pt_clust_3="45.62703" pt_clust_4="36.00492" pt_clust_5="415.82289" pt_clust_6="36.00492"></scales>
<clustering>
<clus scale="   36.005">  4  6 -1 -1</clus>
<clus scale="   45.627">  2  3  1 -1</clus>
<clus scale="  415.823">  2  5  1 -1</clus>
<clus scale="  417.384">  1  3  2 -1</clus>
</clustering>
</event>
<event>
 6    0  0.1438923E+002  0.6760638E+02  0.7546771E-02  0.1368427E+00
         21   -1    0    0  505  501  0.00000000000E+00  0.00000000000E+00  0.46748626631E+03  0.46748626631E+03  0.00000000000E+00 0.  1.
         21   -1    0    0  504  502 -0.00000000000E+00 -0.00000000000E+00 -0.38318543769E+03  0.38318543769E+03  0.00000000000E+00 0. -1.
         21    1    1    2  503  506 -0.74046908887E+02 -0.65933386635E+02  0.17218352636E+03  0.19868901062E+03  0.00000000000E+00 0.  1.
         21    1    1    2  504  503  0.56300827386E+02  0.36472926520E+02 -0.34902116836E+03  0.35540938859E+03  0.00000000000E+00 0. -1.
         21    1    1    2  505  502  0.10035209136E+02  0.65943567332E+02  0.53206011465E+02  0.85323731464E+02  0.00000000000E+00 0. -1.
         21    1    1    2  506  501  0.77108723641E+01 -0.36483107217E+02  0.20793245915E+03  0.21124957334E+03  0.00000000000E+00 0.  1.
<scales pt_clust_3="14000.00000" pt_clust_4="67.60638" pt_clust_5="57.43538" pt_clust_6="37.28907"></scales>
<clustering>
<clus scale="   37.289">  1  6  2 -1</clus>
<clus scale="   57.435">  1  5  2 -1</clus>
<clus scale="   67.606">  2  4  1 -1</clus>
<clus scale="   37.289">  1  3  2 -1</clus>
</clustering>
</event>
<event>
 6    0  0.1438923E+002  0.9315676E+02  0.7546771E-02  0.1295382E+00
         21   -1    0    0  503  501  0.00000000000E+00  0.00000000000E+00  0.14457634836E+03  0.14457634836E+03  0.00000000000E+00 0. -1.
         21   -1    0    0  505  502 -0.00000000000E+00 -0.00000000000E+00 -0.27179566498E+03  0.27179566498E+03  0.00000000000E+00 0. -1.
         21    1    1    2  503  504 -0.75364036870E+02  0.79463927360E+01  0.53607374915E+02  0.92825825373E+02  0.00000000000E+00 0. -1.
         21    1    1    2  504  506  0.60137407328E+02  0.49008804815E+02  0.21010710928E+02  0.80373009669E+02  0.00000000000E+00 0. -1.
         21    1    1    2  505  501 -0.24675013789E+02 -0.63086735617E+02 -0.18905982831E+03  0.20082930861E+03  0.00000000000E+00 0. -1.
         21    1    1    2  506  502  0.39901643332E+02  0.61315380660E+01 -0.12777574152E+02  0.42343869696E+02  0.00000000000E+00 0. -1.
<scales pt_clust_3="82.06585" pt_clust_4="31.80082" pt_clust_5="67.74063" pt_clust_6="31.80082"></scales>
<clustering>
<clus scale="   31.801">  4  6 -1 -1</clus>
<clus scale="   67.741">  2  5  1 -1</clus>
<clus scale="   82.066">  1  3  2 -1</clus>
<clus scale="   82.066">  1  3  2 -1</clus>
</clustering>
</event>
<event>
 6    0  0.1438923E+002  0.2193582E+03  0.7546771E-02  0.1134362E+00
         21   -1    0    0  505  501  0.00000000000E+00  0.00000000000E+00  0.88503258901E+03  0.88503258901E+03  0.00000000000E+00 0.  1.
         21   -1    0    0  506  502 -0.00000000000E+00 -0.00000000000E+00 -0.61752193272E+02  0.61752193272E+02  0.00000000000E+00 0.  1.
         21    1    1    2  503  504 -0.10089894214E+03 -0.95089240874E+02  0.18415286011E+03  0.23050994803E+03  0.00000000000E+00 0.  1.
         21    1    1    2  504  501  0.15471447302E+03  0.13856534502E+03  0.37645239775E+03  0.42994573003E+03  0.00000000000E+00 0.  1.
         21    1    1    2  505  502 -0.13378166465E+02  0.27999908863E+02  0.88035787334E+02  0.93344898553E+02  0.00000000000E+00 0.  1.
         21    1    1    2  506  503 -0.40437364421E+02 -0.71476013009E+02  0.17463935055E+03  0.19298420567E+03  0.00000000000E+00 0.  1.
<scales pt_clust_3="40.75211" pt_clust_4="212.65587" pt_clust_5="31.03176" pt_clust_6="40.75211"></scales>
<clustering>
<clus scale="   31.032">  1  5  2 -1</clus>
<clus scale="   40.752">  3  6 -1 -1</clus>
<clus scale="  212.656">  1  4  2 -1</clus>
<clus scale="   31.032">  1  3  2 -1</clus>
</clustering>
</event>
<event>
 6    0  0.1709858E+002  0.1252689E+03  0.7546771E-02  0.1234650E+00
         21   -1    0    0  503  501  0.00000000000E+00  0.00000000000E+00  0.54227929039E+03  0.54227929039E+03  0.00000000000E+00 0. -1.
         21   -1    0    0  505  502 -0.00000000000E+00 -0.00000000000E+00 -0.80596195267E+03  0.80596195267E+03  0.00000000000E+00 0.  1.
         21    1    1    2  503  504  0.23898747977E+02  0.69261712342E+02  0.38272774545E+03  0.38967789530E+03  0.00000000000E+00 0. -1.
         21    1    1    2  504  502 -0.13418177374E+02  0.45638175749E+02  0.12243932880E+03  0.13135554730E+03  0.00000000000E+00 0. -1.
         21    1    1    2  505  506  0.26089218914E+02 -0.29821563910E+02 -0.72261885159E+03  0.72370434412E+03  0.00000000000E+00 0.  1.
         21    1    1    2  506  501 -0.36569789517E+02 -0.85078324182E+02 -0.46230884937E+02  0.10350345633E+03  0.00000000000E+00 0. -1.
<scales pt_clust_3="43.25511" pt_clust_4="43.25511" pt_clust_5="39.62289" pt_clust_6="112.79203"></scales>
<clustering>
<clus scale="   39.623">  2  5  1 -1</clus>
<clus scale="   43.255">  3  4 -1 -1</clus>
<clus scale="  112.792">  2  6  1 -1</clus>
<clus scale="  125.269">  1  3  2 -1</clus>
</clustering>
</event>
<event>
 6    0  0.1438923E+002  0.1571708E+03  0.7546771E-02  0.1191928E+00
         21   -1    0    0  504  501  0.00000000000E+00  0.00000000000E+00  0.35824465720E+02  0.35824465720E+02  0.00000000000E+00 0. -1.
         21   -1    0    0  506  502 -0.00000000000E+00 -0.00000000000E+00 -0.18100154919E+04  0.18100154919E+04  0.00000000000E+00 0.  1.
         21    1    1    2  503  501  0.62055884355E+02  0.12473112713E+02 -0.14592557757E+03  0.15906220642E+03  0.00000000000E+00 0. -1.
         21    1    1    2  504  505  0.10065394998E+02 -0.34334074075E+02 -0.95433980838E+02  0.10192048625E+03  0.00000000000E+00 0. -1.
         21    1    1    2  505  502  0.73943097777E+02 -0.67901629795E+02 -0.99624891697E+02  0.14143313644E+03  0.00000000000E+00 0. -1.
         21    1    1    2  506  503 -0.14606437713E+03  0.89762591157E+02 -0.14332065761E+04  0.14434241285E+04  0.00000000000E+00 0.  1.
<scales pt_clust_3="64.32505" pt_clust_4="35.77906" pt_clust_5="157.17077" pt_clust_6="14000.00000"></scales>
<clustering>
<clus scale="   35.779">  1  4  2 -1</clus>
<clus scale="   64.325">  1  3  2 -1</clus>
<clus scale="  157.171">  1  5  2 -1</clus>
<clus scale="   35.779">  1  3  2 -1</clus>
</clustering>
</event>
<event>
 6    0  0.1438923E+002  0.1203979E+03  0.7546771E-02  0.1242442E+00
         21   -1    0    0  504  501  0.00000000000E+00  0.00000000000E+00  0.13337026880E+04  0.13337026880E+04  0.00000000000E+00 0.  1.
         21   -1    0    0  503  502 -0.00000000000E+00 -0.00000000000E+00 -0.21852126656E+02  0.21852126656E+02  0.00000000000E+00 0.  1.
         21    1    1    2  503  501  0.28207118925E+01 -0.65215032421E+02  0.54111335628E+03  0.54503634853E+03  0.00000000000E+00 0.  1.
         21    1    1    2  504  505  0.70093709792E+02  0.53086493572E+02  0.25104580200E+03  0.26599868168E+03  0.00000000000E+00 0.  1.
         21    1    1    2  505  506  0.31234917491E+02  0.35451600305E+02  0.25097696549E+03  0.25538573422E+03  0.00000000000E+00 0.  1.
         21    1    1    2  506  502 -0.10414933918E+03 -0.23323061456E+02  0.26871443760E+03  0.28913405026E+03  0.00000000000E+00 0.  1.
<scales pt_clust_3="65.27601" pt_clust_4="30.29856" pt_clust_5="30.29856" pt_clust_6="113.08085"></scales>
<clustering>
<clus scale="   30.299">  4  5 -1 -1</clus>
<clus scale="   65.276">  1  3  2 -1</clus>
<clus scale="  113.081">  2  6  1 -1</clus>
<clus scale="   65.276">  1  3  2 -1</clus>
</clustering>
</event>
<event>
 6    0  0.1438923E+002  0.3089623E+03  0.7546771E-02  0.1080844E+00
         21   -1    0    0  504  501  0.00000000000E+00  0.00000000000E+00  0.33312897775E+03  0.33312897775E+03  0.00000000000E+00 0.  1.
         21   -1    0    0  505  502 -0.00000000000E+00 -0.00000000000E+00 -0.41106474389E+03  0.41106474389E+03  0.00000000000E+00 0.  1.
         21    1    1    2  503  501 -0.51096788184E+01  0.51304675616E+02  0.48282742524E+02  0.70636405510E+02  0.00000000000E+00 0.  1.
         21    1    1    2  504  502 -0.84911365053E+02  0.21927167969E+00  0.25264764269E+00  0.84912024037E+02  0.00000000000E+00 0.  1.
         21    1    1    2  505  506  0.17910311408E+03 -0.25801104784E+03 -0.17361578679E+03  0.35887333100E+03  0.00000000000E+00 0.  1.
         21    1    1    2  506  503 -0.89082070207E+02  0.20648710054E+03  0.47144630486E+02  0.22977196110E+03  0.00000000000E+00 0.  1.
<scales pt_clust_3="36.49757" pt_clust_4="84.91165" pt_clust_5="299.41202" pt_clust_6="36.49757"></scales>
<clustering>
<clus scale="   36.498">  3  6 -1 -1</clus>
<clus scale="   84.912">  1  4  2 -1</clus>
<clus scale="  299.412">  2  5  1 -1</clus>
<clus scale="   84.912">  1  3  2 -1</clus>
</clustering>
</event>
<event>
 6    0  0.1438923E+002  0.6218981E+02  0.7546771E-02  0.1388865E+00
         21   -1    0    0  505  501  0.00000000000E+00  0.00000000000E+00  0.46464263161E+03  0.46464263161E+03  0.00000000000E+00 0. -1.
         21   -1    0    0  506  502 -0.00000000000E+00 -0.00000000000E+00 -0.87928706439E+03  0.87928706439E+03  0.00000000000E+00 0. -1.
         21    1    1    2  503  504  0.28952615427E+02  0.66989078599E+02  0.15811594653E+03  0.17414489122E+03  0.00000000000E+00 0. -1.
         21    1    1    2  504  501  0.31202071510E+02 -0.58340093892E+02  0.23659555179E+03  0.24567171378E+03  0.00000000000E+00 0. -1.
         21    1    1    2  505  502 -0.81688830566E+02  0.16050314229E+02  0.26690602562E+02  0.87424629774E+02  0.00000000000E+00 0. -1.
         21    1    1    2  506  503  0.21534143629E+02 -0.24699298936E+02 -0.83604653366E+03  0.83668846123E+03  0.00000000000E+00 0. -1.
<scales pt_clust_3="14000.00000" pt_clust_4="62.18981" pt_clust_5="66.46799" pt_clust_6="32.76850"></scales>
<clustering>
<clus scale="   32.769">  2  6  1 -1</clus>
<clus scale="   66.468">  2  5  1 -1</clus>
<clus scale="   62.190">  1  4  2 -1</clus>
<clus scale="   62.190">  1  3  2 -1</clus>
</clustering>
</event>
<event>
 6    0  0.1438923E+002  0.3864612E+03  0.7546771E-02  0.1048571E+00
         21   -1    0    0  506  501  0.00000000000E+00  0.00000000000E+00  0.12090607988E+04  0.12090607988E+04  0.00000000000E+00 0.  1.
         21   -1    0    0  503  502 -0.00000000000E+00 -0.00000000000E+00 -0.10414769716E+04  0.10414769716E+04  0.00000000000E+00 0. -1.
         21    1    1    2  503  505  0.10927326970E+03  0.84118723236E+01  0.22093350481E+03  0.24662323616E+03  0.00000000000E+00 0.  1.
         21    1    1    2  504  502 -0.36318195680E+03 -0.17104384997E+03 -0.95519327325E+03  0.10361232174E+04  0.00000000000E+00 0. -1.
         21    1    1    2  505  501  0.11909286740E+03  0.49394662953E+01  0.17366688163E+03  0.21063640513E+03  0.00000000000E+00 0.  1.
         21    1    1    2  506  504  0.13481581970E+03  0.15769251135E+03  0.72817671401E+03  0.75715491163E+03  0.00000000000E+00 0.  1.
<scales pt_clust_3="31.03553" pt_clust_4="385.10351" pt_clust_5="31.03553" pt_clust_6="207.46622"></scales>
<clustering>
<clus scale="   31.036">  3  5 -1 -1</clus>
<clus scale="  207.466">  1  6  2 -1</clus>
<clus scale="  385.104">  2  4  1 -1</clus>
<clus scale="  207.466">  1  3  2 -1</clus>
</clustering>
</event>
<event>
 6    0  0.1438923E+002  0.8040848E+02  0.7546771E-02  0.1327896E+00
         21   -1    0    0  504  501  0.00000000000E+00  0.00000000000E+00  0.76728272308E+03  0.76728272308E+03  0.00000000000E+00 0.  1.
         21   -1    0    0  506  502 -0.00000000000E+00 -0.00000000000E+00 -0.41501648137E+02  0.41501648137E+02  0.00000000000E+00 0.  1.
         21    1    1    2  503  502 -0.17585370120E+02 -0.25799948478E+02 -0.65728577607E+00  0.31230027351E+02  0.00000000000E+00 0.  1.
         21    1    1    2  504  503 -0.68205864300E+02  0.60980446950E+02  0.35290680724E+03  0.36457354461E+03  0.00000000000E+00 0.  1.
         21    1    1    2  505  501  0.72280978414E+02  0.36048272459E+02  0.29604797811E+03  0.30686873925E+03  0.00000000000E+00 0.  1.
         21    1    1    2  506  505  0.13510256005E+02 -0.71228770930E+02  0.77483575372E+02  0.10611206000E+03  0.00000000000E+00 0. -1.
<scales pt_clust_3="31.22311" pt_clust_4="14000.00000" pt_clust_5="75.07189" pt_clust_6="80.40848"></scales>
<clustering>
<clus scale="   31.223">  2  3  1 -1</clus>
<clus scale="   75.072">  1  5  2 -1</clus>
<clus scale="   80.408">  2  6  1 -1</clus>
<clus scale="   75.072">  1  3  2 -1</clus>
</clustering>
</event>
<event>
 6    0  0.1438923E+002  0.1242110E+03  0.7546771E-02  0.1236307E+00
         21   -1    0    0  505  501  0.00000000000E+00  0.00000000000E+00  0.31096663230E+03  0.31096663230E+03  0.00000000000E+00 0.  1.
         21   -1    0    0  503  502 -0.00000000000E+00 -0.00000000000E+00 -0.13815643504E+03  0.13815643504E+03  0.00000000000E+00 0. -1.
         21    1    1    2  503  504  0.42322961943E+02 -0.17134968908E+01  0.44994946810E+02  0.61795747570E+02  0.00000000000E+00 0.  1.
         21    1    1    2  504  501  0.63377442727E+02  0.56264188705E+02  0.13269655223E+03  0.15745073563E+03  0.00000000000E+00 0.  1.
         21    1    1    2  505  506 -0.68528013312E+02 -0.91885952247E+02  0.72964439710E+02  0.13587835108E+03  0.00000000000E+00 0. -1.
         21    1    1    2  506  502 -0.37172391358E+02  0.37335260433E+02 -0.77845741485E+02  0.93998233059E+02  0.00000000000E+00 0. -1.
<scales pt_clust_3="34.24522" pt_clust_4="34.24522" pt_clust_5="114.37651" pt_clust_6="52.68499"></scales>
<clustering>
<clus scale="   34.245">  3  4 -1 -1</clus>
<clus scale="   52.685">  2  6  1 -1</clus>
<clus scale="  114.377">  2  5  1 -1</clus>
<clus scale="  124.211">  1  3  2 -1</clus>
</clustering>
</event>
<event>
 6    0  0.1438923E+002  0.1368419E+03  0.7546771E-02  0.1217643E+00
         21   -1    0    0  504  501  0.00000000000E+00  0.00000000000E+00  0.13572263405E+03  0.13572263405E+03  0.00000000000E+00 0. -1.
         21   -1    0    0  501  502 -0.00000000000E+00 -0.00000000000E+00 -0.11113133089E+04  0.11113133089E+04  0.00000000000E+00 0. -1.
         21    1    1    2  503  506 -0.57717426848E+02  0.34252084999E+02 -0.20637249110E+02  0.70216826613E+02  0.00000000000E+00 0.  1.
         21    1    1    2  504  503 -0.49657973524E+02 -0.19676852856E+02  0.31942445362E+02  0.62236747091E+02  0.00000000000E+00 0.  1.
         21    1    1    2  505  502 -0.12648087923E+03 -0.23581862183E+02 -0.81274593535E+03  0.82286661888E+03  0.00000000000E+00 0. -1.
         21    1    1    2  506  505  0.23385627961E+03  0.90066300399E+01 -0.17414993575E+03  0.29171575038E+03  0.00000000000E+00 0. -1.
<scales pt_clust_3="77.16180" pt_clust_4="53.41435" pt_clust_5="14000.00000" pt_clust_6="136.84189"></scales>
<clustering>
<clus scale="   53.414">  1  4  2 -1</clus>
<clus scale="   77.162">  1  3  2 -1</clus>
<clus scale="  136.842">  1  6  2 -1</clus>
<clus scale="   53.414">  1  3  2 -1</clus>
</clustering>
</event>
<event>
 6    0  0.1438923E+002  0.9185763E+02  0.7546771E-02  0.1298415E+00
         21   -1    0    0  504  501  0.00000000000E+00  0.00000000000E+00  0.41199693568E+03  0.41199693568E+03  0.00000000000E+00 0.  1.
         21   -1    0    0  505  502 -0.00000000000E+00 -0.00000000000E+00 -0.19269935377E+03  0.19269935377E+03  0.00000000000E+00 0.  1.
         21    1    1    2  503  502 -0.24776217985E+01  0.38387868695E+02 -0.23416134721E+01  0.38538944282E+02  0.00000000000E+00 0. -1.
         21    1    1    2  504  503 -0.60890370784E+02 -0.21470120638E+02  0.12707356161E+03  0.14253523563E+03  0.00000000000E+00 0. -1.
         21    1    1    2  505  506 -0.13486537415E+01  0.59045003950E+02 -0.14906875996E+03  0.16034221701E+03  0.00000000000E+00 0.  1.
         21    1    1    2  506  501  0.64716646324E+02 -0.75962752008E+02  0.24363439374E+03  0.26327989254E+03  0.00000000000E+00 0.  1.
<scales pt_clust_3="38.46774" pt_clust_4="64.11823" pt_clust_5="91.85763" pt_clust_6="14000.00000"></scales>
<clustering>
<clus scale="   38.468">  2  3  1 -1</clus>
<clus scale="   64.118">  1  4  2 -1</clus>
<clus scale="   91.858">  2  5  1 -1</clus>
<clus scale="   64.118">  1  3  2 -1</clus>
</clustering>
</event>
<event>
 6    0  0.1438923E+002  0.3224341E+03  0.7546771E-02  0.1074534E+00
         21   -1    0    0  506  501  0.00000000000E+00  0.00000000000E+00  0.88686894830E+03  0.88686894830E+03  0.00000000000E+00 0. -1.
         21   -1    0    0  505  502 -0.00000000000E+00 -0.00000000000E+00 -0.81686231231E+03  0.81686231231E+03  0.00000000000E+00 0.  1.
         21    1    1    2  503  502 -0.32554322441E+02  0.25144805238E+02 -0.45138666257E+03  0.45325706204E+03  0.00000000000E+00 0. -1.
         21    1    1    2  504  503 -0.10359708401E+03 -0.48106674778E+02  0.11607996853E+01  0.11422764739E+03  0.00000000000E+00 0.  1.
         21    1    1    2  505  501 -0.20226663682E+03  0.25142447602E+02 -0.23354697289E+03  0.30998084391E+03  0.00000000000E+00 0.  1.
         21    1    1    2  506  504  0.33841804327E+03 -0.21805780628E+01  0.75377947178E+03  0.82626570727E+03  0.00000000000E+00 0. -1.
<scales pt_clust_3="41.13448" pt_clust_4="117.29515" pt_clust_5="14000.00000" pt_clust_6="322.43411"></scales>
<clustering>
<clus scale="   41.134">  2  3  1 -1</clus>
<clus scale="  117.295">  2  4  1 -1</clus>
<clus scale="  322.434">  1  6  2 -1</clus>
<clus scale="  322.434">  1  3  2 -1</clus>
</clustering>
</event>
<event>
 6    0  0.1438923E+002  0.4432910E+03  0.7546771E-02  0.1029742E+00
         21   -1    0    0  504  501  0.00000000000E+00  0.00000000000E+00  0.38583893178E+03  0.38583893178E+03  0.00000000000E+00 0.  1.
         21   -1    0    0  506  502 -0.00000000000E+00 -0.00000000000E+00 -0.15232344915E+04  0.15232344915E+04  0.00000000000E+00 0.  1.
         21    1    1    2  503  505 -0.14370405447E+03  0.19769220884E+02  0.37236483266E+02  0.14976058578E+03  0.00000000000E+00 0.  1.
         21    1    1    2  504  503 -0.12108248345E+03  0.11849107567E+03  0.17043395316E+03  0.24030987329E+03  0.00000000000E+00 0.  1.
         21    1    1    2  505  502 -0.86532846529E+02  0.57199685758E+02  0.11268412123E+02  0.10433942060E+03  0.00000000000E+00 0.  1.
         21    1    1    2  506  501  0.35131938446E+03 -0.19545998231E+03 -0.13563344083E+04  0.14146635436E+04  0.00000000000E+00 0.  1.
<scales pt_clust_3="138.80019" pt_clust_4="138.80019" pt_clust_5="48.43655" pt_clust_6="402.03223"></scales>
<clustering>
<clus scale="   48.437">  3  5 -1 -1</clus>
<clus scale="  138.800">  3  4 -1 -1</clus>
<clus scale="  402.032">  2  6  1 -1</clus>
<clus scale="  443.291">  1  3  2 -1</clus>
</clustering>
</event>
<event>
 6    0  0.1438923E+002  0.9717559E+02  0.7546771E-02  0.1286350E+00
         21   -1    0    0  504  501  0.00000000000E+00  0.00000000000E+00  0.13172734689E+03  0.13172734689E+03  0.00000000000E+00 0. -1.
         21   -1    0    0  506  502 -0.00000000000E+00 -0.00000000000E+00 -0.10721462584E+04  0.10721462584E+04  0.00000000000E+00 0. -1.
         21    1    1    2  503  501  0.26169666585E+02 -0.37751267211E+02  0.97073632613E+02  0.10739320171E+03  0.00000000000E+00 0. -1.
         21    1    1    2  504  502 -0.14090651893E+03  0.23541264487E+02 -0.86675453532E+03  0.87844878206E+03  0.00000000000E+00 0. -1.
         21    1    1    2  505  503  0.72441831298E+02  0.12837399365E+02 -0.47108723370E+02  0.87360457656E+02  0.00000000000E+00 0. -1.
         21    1    1    2  506  505  0.42295021051E+02  0.13726033591E+01 -0.12362928542E+03  0.13067116384E+03  0.00000000000E+00 0. -1.
<scales pt_clust_3="46.06066" pt_clust_4="97.17559" pt_clust_5="14000.00000" pt_clust_6="42.31729"></scales>
<clustering>
<clus scale="   42.317">  2  6  1 -1</clus>
<clus scale="   46.061">  1  3  2 -1</clus>
<clus scale="   97.176">  2  4  1 -1</clus>
<clus scale="   46.061">  1  3  2 -1</clus>
</clustering>
</event>
<event>
 6    0  0.1438923E+002  0.8723736E+02  0.7546771E-02  0.1309683E+00
         21   -1    0    0  503  501  0.00000000000E+00  0.00000000000E+00  0.51797074829E+03  0.51797074829E+03  0.00000000000E+00 0.  1.
         21   -1    0    0  505  502 -0.00000000000E+00 -0.00000000000E+00 -0.63686764690E+02  0.63686764690E+02  0.00000000000E+00 0.  1.
         21    1    1    2  503  502 -0.81985186454E+01  0.37084267818E+02 -0.18765162433E+02  0.42362600826E+02  0.00000000000E+00 0.  1.
         21    1    1    2  504  501  0.98161093767E+02  0.20889361806E+02  0.32134012554E+03  0.33664735562E+03  0.00000000000E+00 0.  1.
         21    1    1    2  505  506 -0.20300339082E+02 -0.38858466925E+02  0.12138248002E+02  0.45490892310E+02  0.00000000000E+00 0.  1.
         21    1    1    2  506  504 -0.69662236039E+02 -0.19115162699E+02  0.13957077249E+03  0.15715666422E+03  0.00000000000E+00 0.  1.
<scales pt_clust_3="37.97971" pt_clust_4="14000.00000" pt_clust_5="31.69026" pt_clust_6="87.23736"></scales>
<clustering>
<clus scale="   37.980">  2  3  1 -1</clus>
<clus scale="   31.690">  2  5  1 -1</clus>
<clus scale="   87.237">  2  6  1 -1</clus>
<clus scale="   87.237">  1  3  2 -1</clus>
</clustering>
</event>
<event>
 6    0  0.1438923E+002  0.1995580E+03  0.7546771E-02  0.1150112E+00
         21   -1    0    0  503  501  0.00000000000E+00  0.00000000000E+00  0.64120275882E+02  0.64120275882E+02  0.00000000000E+00 0.  1.
         21   -1    0    0  504  502 -0.00000000000E+00 -0.00000000000E+00 -0.13577984370E+04  0.13577984370E+04  0.00000000000E+00 0.  1.
         21    1    1    2  503  505 -0.76507108094E+02  0.65849796815E+02 -0.12180840897E+03  0.15819867833E+03  0.00000000000E+00 0.  1.
         21    1    1    2  504  506 -0.58872811883E+02 -0.62153059413E+02 -0.68046832253E+03  0.68583244947E+03  0.00000000000E+00 0.  1.
         21    1    1    2  505  502 -0.56420621831E+02  0.77467635854E+02 -0.15523226643E+03  0.18243239217E+03  0.00000000000E+00 0.  1.
         21    1    1    2  506  501  0.19180054181E+03 -0.81164373256E+02 -0.33616916319E+03  0.39545519292E+03  0.00000000000E+00 0.  1.
<scales pt_clust_3="31.84760" pt_clust_4="85.60964" pt_clust_5="31.84760" pt_clust_6="196.86310"></scales>
<clustering>
<clus scale="   31.848">  3  5 -1 -1</clus>
<clus scale="   85.610">  2  4  1 -1</clus>
<clus scale="  196.863">  2  6  1 -1</clus>
<clus scale="  199.558">  1  3  2 -1</clus>
</clustering>
</event>
<event>
 6    0  0.1438923E+002  0.1661044E+03  0.7546771E-02  0.1181972E+00
         21   -1    0    0  505  501  0.00000000000E+00  0.00000000000E+00  0.16844182630E+04  0.16844182630E+04  0.00000000000E+00 0.  1.
         21   -1    0    0  504  502 -0.00000000000E+00 -0.00000000000E+00 -0.39652646857E+03  0.39652646857E+03  0.00000000000E+00 0. -1.
         21    1    1    2  503  501 -0.14471130599E+02  0.54060113138E+02  0.39036591335E+03  0.39435701561E+03  0.00000000000E+00 0. -1.
         21    1    1    2  504  506  0.12277963741E+03 -0.97290653490E+02  0.37824316129E+02  0.16115517214E+03  0.00000000000E+00 0. -1.
         21    1    1    2  505  502  0.36099130904E+02  0.33197680600E+02 -0.32663540816E+03  0.33029671980E+03  0.00000000000E+00 0. -1.
         21    1    1    2  506  503 -0.14440763771E+03  0.10032859753E+02  0.11863369731E+04  0.11951358240E+04  0.00000000000E+00 0.  1.
<scales pt_clust_3="56.64437" pt_clust_4="166.10436" pt_clust_5="49.04318" pt_clust_6="14000.00000"></scales>
<clustering>
<clus scale="   49.043">  2  5  1 -1</clus>
<clus scale="   56.644">  1  3  2 -1</clus>
<clus scale="  166.104">  2  4  1 -1</clus>
<clus scale="   56.644">  1  3  2 -1</clus>
</clustering>
</event>
<event>
 6    0  0.1438923E+002  0.1024974E+03  0.7546771E-02  0.1275130E+00
         21   -1    0    0  503  501  0.00000000000E+00  0.00000000000E+00  0.53727326927E+02  0.53727326927E+02  0.00000000000E+00 0. -1.
         21   -1    0    0  504  502 -0.00000000000E+00 -0.00000000000E+00 -0.26865363175E+04  0.26865363175E+04  0.00000000000E+00 0. -1.
         21    1    1    2  503  505 -0.63701831066E+02 -0.68271006429E+02 -0.67709227085E+01  0.93619971130E+02  0.00000000000E+00 0. -1.
         21    1    1    2  504  501 -0.15720531423E+02 -0.30455684268E+02 -0.88149645283E+02  0.94578241557E+02  0.00000000000E+00 0.  1.
         21    1    1    2  505  506  0.38851988068E+02  0.69150563208E+02 -0.22393104539E+03  0.23756344513E+03  0.00000000000E+00 0. -1.
         21    1    1    2  506  502  0.40570374422E+02  0.29576127488E+02 -0.23139573772E+04  0.23145019867E+04  0.00000000000E+00 0. -1.
<scales pt_clust_3="102.49738" pt_clust_4="34.27366" pt_clust_5="14000.00000" pt_clust_6="50.04147"></scales>
<clustering>
<clus scale="   34.274">  1  4  2 -1</clus>
<clus scale="   50.041">  2  6  1 -1</clus>
<clus scale="  102.497">  1  3  2 -1</clus>
<clus scale="   34.274">  1  3  2 -1</clus>
</clustering>
</event>
<event>
 6    0  0.1438923E+002  0.8697530E+02  0.7546771E-02  0.1310346E+00
         21   -1    0    0  504  501  0.00000000000E+00  0.00000000000E+00  0.74556236988E+03  0.74556236988E+03  0.00000000000E+00 0. -1.
         21   -1    0    0  505  502 -0.00000000000E+00 -0.00000000000E+00 -0.59434672687E+03  0.59434672687E+03  0.00000000000E+00 0. -1.
         21    1    1    2  503  502 -0.57095589733E+02 -0.12187949656E+02 -0.56716058916E+03  0.57015751015E+03  0.00000000000E+00 0. -1.
         21    1    1    2  504  506 -0.39814730878E+02  0.24974396132E+02  0.61261491480E+02  0.77213364099E+02  0.00000000000E+00 0. -1.
         21    1    1    2  505  501  0.23975755516E+01  0.61707491007E+02  0.43991659466E+03  0.44422986513E+03  0.00000000000E+00 0. -1.
         21    1    1    2  506  503  0.94512745060E+02 -0.74493937483E+02  0.21719814603E+03  0.24830835737E+03  0.00000000000E+00 0.  1.
<scales pt_clust_3="58.45672" pt_clust_4="46.99929" pt_clust_5="14000.00000" pt_clust_6="86.97530"></scales>
<clustering>
<clus scale="   46.999">  1  4  2 -1</clus>
<clus scale="   58.457">  2  3  1 -1</clus>
<clus scale="   86.975">  2  6  1 -1</clus>
<clus scale="   46.999">  1  3  2 -1</clus>
</clustering>
</event>
<event>
 6    0  0.1438923E+002  0.1390910E+03  0.7546771E-02  0.1214557E+00
         21   -1    0    0  506  501  0.00000000000E+00  0.00000000000E+00  0.31049847776E+03  0.31049847776E+03  0.00000000000E+00 0.  1.
         21   -1    0    0  504  502 -0.00000000000E+00 -0.00000000000E+00 -0.47290864816E+03  0.47290864816E+03  0.00000000000E+00 0. -1.
         21    1    1    2  503  502  0.43197532502E+02 -0.12045924536E+03 -0.43777044625E+03  0.45609146037E+03  0.00000000000E+00 0. -1.
         21    1    1    2  504  501 -0.29028133733E+02  0.18524165237E+02  0.80500884006E+01  0.35363557075E+02  0.00000000000E+00 0.  1.
         21    1    1    2  505  503 -0.66216090776E+01  0.47479660042E+02  0.56529002820E+02  0.74119444037E+02  0.00000000000E+00 0. -1.
         21    1    1    2  506  505 -0.75477896911E+01  0.54455420080E+02  0.21078118463E+03  0.21783266445E+03  0.00000000000E+00 0.  1.
<scales pt_clust_3="127.10837" pt_clust_4="34.43512" pt_clust_5="47.89665" pt_clust_6="47.89665"></scales>
<clustering>
<clus scale="   34.435">  1  4  2 -1</clus>
<clus scale="   47.897">  5  6 -1 -1</clus>
<clus scale="  127.108">  2  3  1 -1</clus>
<clus scale="   34.435">  1  3  2 -1</clus>
</clustering>
</event>
<event>
 6    0  0.1438923E+002  0.1089865E+03  0.7546771E-02  0.1262458E+00
         21   -1    0    0  504  501  0.00000000000E+00  0.00000000000E+00  0.32701280814E+03  0.32701280814E+03  0.00000000000E+00 0.  1.
         21   -1    0    0  506  502 -0.00000000000E+00 -0.00000000000E+00 -0.18580183197E+03  0.18580183197E+03  0.00000000000E+00 0.  1.
         21    1    1    2  503  502 -0.43743057583E+02  0.68359982663E+02 -0.11690522719E+03  0.14231435086E+03  0.00000000000E+00 0.  1.
         21    1    1    2  504  505 -0.84043308294E+02 -0.46284297777E+02  0.13051195172E+03  0.16198420735E+03  0.00000000000E+00 0.  1.
         21    1    1    2  505  503  0.12932367184E+03  0.12579016773E+02  0.95544059807E+02  0.16128084550E+03  0.00000000000E+00 0.  1.
         21    1    1    2  506  501 -0.15373059660E+01 -0.34654701660E+02  0.32060191831E+02  0.47235236392E+02  0.00000000000E+00 0.  1.
<scales pt_clust_3="79.90852" pt_clust_4="108.98654" pt_clust_5="14000.00000" pt_clust_6="34.68878"></scales>
<clustering>
<clus scale="   34.689">  1  6  2 -1</clus>
<clus scale="   79.909">  2  3  1 -1</clus>
<clus scale="  108.987">  1  4  2 -1</clus>
<clus scale="   34.689">  1  3  2 -1</clus>
</clustering>
</event>
<event>
 6    0  0.1438923E+002  0.1706384E+03  0.7546771E-02  0.1177184E+00
         21   -1    0    0  504  501  0.00000000000E+00  0.00000000000E+00  0.15099417739E+04  0.15099417739E+04  0.00000000000E+00 0.  1.
         21   -1    0    0  503  502 -0.00000000000E+00 -0.00000000000E+00 -0.47987005019E+02  0.47987005019E+02  0.00000000000E+00 0.  1.
         21    1    1    2  503  506  0.17675116297E+03 -0.13170228859E+01  0.15966604257E+03  0.23819310089E+03  0.00000000000E+00 0.  1.
         21    1    1    2  504  505 -0.56726481679E+02 -0.15306992464E+02  0.55972264316E+03  0.56279804105E+03  0.00000000000E+00 0.  1.
         21    1    1    2  505  502 -0.57805398177E+02 -0.33448809208E+02  0.35520254050E+03  0.36142652320E+03  0.00000000000E+00 0.  1.
         21    1    1    2  506  501 -0.62219283112E+02  0.50072824558E+02  0.38736354264E+03  0.39551111377E+03  0.00000000000E+00 0.  1.
<scales pt_clust_3="165.85896" pt_clust_4="37.61519" pt_clust_5="37.61519" pt_clust_6="79.86568"></scales>
<clustering>
<clus scale="   37.615">  4  5 -1 -1</clus>
<clus scale="   79.866">  1  6  2 -1</clus>
<clus scale="  165.859">  2  3  1 -1</clus>
<clus scale="   79.866">  1  3  2 -1</clus>
</clustering>
</event>
<event>
 6    0  0.1438923E+002  0.9209336E+02  0.7546771E-02  0.1297860E+00
         21   -1    0    0  503  501  0.00000000000E+00  0.00000000000E+00  0.15056994642E+03  0.15056994642E+03  0.00000000000E+00 0.  1.
         21   -1    0    0  505  502 -0.00000000000E+00 -0.00000000000E+00 -0.31708948370E+03  0.31708948370E+03  0.00000000000E+00 0. -1.
         21    1    1    2  503  504 -0.34022012420E+02  0.20515312325E+02  0.43629961054E+02  0.59008040728E+02  0.00000000000E+00 0.  1.
         21    1    1    2  504  506  0.11495430509E+02  0.72516073485E+02  0.34846378379E+02  0.81271126007E+02  0.00000000000E+00 0.  1.
         21    1    1    2  505  501 -0.18109497801E+02 -0.11660139812E+03 -0.52351996266E+02  0.12909132994E+03  0.00000000000E+00 0. -1.
         21    1    1    2  506  502  0.40636079712E+02  0.23570012309E+02 -0.19264388044E+03  0.19828893344E+03  0.00000000000E+00 0. -1.
<scales pt_clust_3="39.72877" pt_clust_4="92.09336" pt_clust_5="14000.00000" pt_clust_6="46.44332"></scales>
<clustering>
<clus scale="   39.729">  1  3  2 -1</clus>
<clus scale="   46.443">  2  6  1 -1</clus>
<clus scale="   92.093">  1  4  2 -1</clus>
<clus scale="   39.729">  1  3  2 -1</clus>
</clustering>
</event>
<event>
 6    0  0.1438923E+002  0.1692257E+03  0.7546771E-02  0.1178658E+00
         21   -1    0    0  505  501  0.00000000000E+00  0.00000000000E+00  0.15003243088E+04  0.15003243088E+04  0.00000000000E+00 0.  1.
         21   -1    0    0  503  502 -0.00000000000E+00 -0.00000000000E+00 -0.24904415271E+03  0.24904415271E+03  0.00000000000E+00 0.  1.
         21    1    1    2  503  504 -0.16578363186E+02  0.16529052981E+03 -0.21148713740E+03  0.26892863487E+03  0.00000000000E+00 0.  1.
         21    1    1    2  504  506  0.15657378337E+02 -0.77949873850E+02  0.23242660656E+03  0.24564906628E+03  0.00000000000E+00 0.  1.
         21    1    1    2  505  502  0.13346272743E+01 -0.46087649694E+02  0.97913590652E+03  0.98022088129E+03  0.00000000000E+00 0.  1.
         21    1    1    2  506  501 -0.41364242476E+00 -0.41253006263E+02  0.25120478042E+03  0.25456987907E+03  0.00000000000E+00 0.  1.
<scales pt_clust_3="163.58292" pt_clust_4="31.21631" pt_clust_5="46.10697" pt_clust_6="31.21631"></scales>
<clustering>
<clus scale="   31.216">  4  6 -1 -1</clus>
<clus scale="   46.107">  1  5  2 -1</clus>
<clus scale="  163.583">  2  3  1 -1</clus>
<clus scale="   46.107">  1  3  2 -1</clus>
</clustering>
</event>
<event>
 6    0  0.1438923E+002  0.1334188E+03  0.7546771E-02  0.1222469E+00
         21   -1    0    0  504  501  0.00000000000E+00  0.00000000000E+00  0.46112635550E+03  0.46112635550E+03  0.00000000000E+00 0.  1.
         21   -1    0    0  503  502 -0.00000000000E+00 -0.00000000000E+00 -0.26947224575E+03  0.26947224575E+03  0.00000000000E+00 0. -1.
         21    1    1    2  503  505  0.69422776669E+02 -0.29050827243E+02  0.15410969050E+03  0.17150297137E+03  0.00000000000E+00 0.  1.
         21    1    1    2  504  506 -0.36089518460E+02 -0.45116009350E+02  0.43112368038E+02  0.72087335366E+02  0.00000000000E+00 0. -1.
         21    1    1    2  505  501  0.36670252624E+02 -0.27830414686E+02  0.22268132218E+03  0.22738999683E+03  0.00000000000E+00 0.  1.
         21    1    1    2  506  502 -0.70003510833E+02  0.10199725128E+03 -0.22824927096E+03  0.25961829768E+03  0.00000000000E+00 0. -1.
<scales pt_clust_3="40.28440" pt_clust_4="57.77463" pt_clust_5="40.28440" pt_clust_6="123.07577"></scales>
<clustering>
<clus scale="   40.284">  3  5 -1 -1</clus>
<clus scale="   57.775">  1  4  2 -1</clus>
<clus scale="  123.076">  2  6  1 -1</clus>
<clus scale="   57.775">  1  3  2 -1</clus>
</clustering>
</event>
<event>
 6    0  0.1438923E+002  0.1980701E+03  0.7546771E-02  0.1151378E+00
         21   -1    0    0  503  501  0.00000000000E+00  0.00000000000E+00  0.66027418303E+02  0.66027418303E+02  0.00000000000E+00 0. -1.
         21   -1    0    0  505  502 -0.00000000000E+00 -0.00000000000E+00 -0.59875148362E+03  0.59875148362E+03  0.00000000000E+00 0. -1.
         21    1    1    2  503  506  0.13478105883E+02  0.14670115177E+03 -0.14082712546E+03  0.20380178246E+03  0.00000000000E+00 0. -1.
         21    1    1    2  504  501 -0.27931191228E+02 -0.14031008928E+03 -0.19021373691E+03  0.23800911392E+03  0.00000000000E+00 0. -1.
         21    1    1    2  505  504 -0.20629390924E+02 -0.38967516995E+02 -0.12519827610E+03  0.13273525337E+03  0.00000000000E+00 0. -1.
         21    1    1    2  506  502  0.35082476269E+02  0.32576454501E+02 -0.76484926851E+02  0.90232752172E+02  0.00000000000E+00 0. -1.
<scales pt_clust_3="39.21945" pt_clust_4="194.85032" pt_clust_5="32.69305" pt_clust_6="39.21945"></scales>
<clustering>
<clus scale="   32.693">  4  5 -1 -1</clus>
<clus scale="   39.219">  3  6 -1 -1</clus>
<clus scale="  194.850">  2  4  1 -1</clus>
<clus scale="  198.070">  1  3  2 -1</clus>
</clustering>
</event>
<event>
 6    0  0.1438923E+002  0.8702566E+02  0.7546771E-02  0.1310219E+00
         21   -1    0    0  502  501  0.00000000000E+00  0.00000000000E+00  0.24392563858E+03  0.24392563858E+03  0.00000000000E+00 0.  1.
         21   -1    0    0  505  502 -0.00000000000E+00 -0.00000000000E+00 -0.53557304728E+03  0.53557304728E+03  0.00000000000E+00 0. -1.
         21    1    1    2  503  501 -0.55326449156E+02 -0.90164628225E+01  0.10870448033E+03  0.12230689524E+03  0.00000000000E+00 0. -1.
         21    1    1    2  504  503  0.10126849054E+02 -0.78890627173E+02  0.80320228832E+02  0.11303814970E+03  0.00000000000E+00 0.  1.
         21    1    1    2  505  506  0.45573148379E+02  0.98976737234E+00 -0.44951426289E+03  0.45181961449E+03  0.00000000000E+00 0. -1.
         21    1    1    2  506  504 -0.37354827732E+00  0.86917322624E+02 -0.31157854978E+02  0.92334026432E+02  0.00000000000E+00 0.  1.
<scales pt_clust_3="52.44305" pt_clust_4="14000.00000" pt_clust_5="45.58390" pt_clust_6="87.02566"></scales>
<clustering>
<clus scale="   45.584">  2  5  1 -1</clus>
<clus scale="   52.443">  1  3  2 -1</clus>
<clus scale="   87.026">  2  6  1 -1</clus>
<clus scale="   52.443">  1  3  2 -1</clus>
</clustering>
</event>
<event>
 6    0  0.1438923E+002  0.1895804E+03  0.7546771E-02  0.1158840E+00
         21   -1    0    0  505  501  0.00000000000E+00  0.00000000000E+00  0.31165903710E+03  0.31165903710E+03  0.00000000000E+00 0. -1.
         21   -1    0    0  503  502 -0.00000000000E+00 -0.00000000000E+00 -0.66717198850E+03  0.66717198850E+03  0.00000000000E+00 0.  1.
         21    1    1    2  503  506 -0.69022015455E+02  0.12907583625E+03 -0.52715101069E+03  0.54709487129E+03  0.00000000000E+00 0.  1.
         21    1    1    2  504  501  0.71800933898E+02 -0.49416823331E+02  0.18904163091E+03  0.20816852489E+03  0.00000000000E+00 0. -1.
         21    1    1    2  505  502 -0.83525318412E+02 -0.48536045831E+02 -0.72673195296E+02  0.12088680604E+03  0.00000000000E+00 0. -1.
         21    1    1    2  506  504  0.80746399970E+02 -0.31122967086E+02  0.55269623669E+02  0.10268082337E+03  0.00000000000E+00 0.  1.
<scales pt_clust_3="169.58407" pt_clust_4="84.44159" pt_clust_5="96.60345" pt_clust_6="84.44159"></scales>
<clustering>
<clus scale="   84.442">  4  6 -1 -1</clus>
<clus scale="   96.603">  2  5  1 -1</clus>
<clus scale="  169.584">  2  3  1 -1</clus>
<clus scale="  189.580">  1  3  2 -1</clus>
</clustering>
</event>
<event>
 6    0  0.1438923E+002  0.1001736E+03  0.7546771E-02  0.1279931E+00
         21   -1    0    0  504  501  0.00000000000E+00  0.00000000000E+00  0.18628445789E+04  0.18628445789E+04  0.00000000000E+00 0.  1.
         21   -1    0    0  505  502 -0.00000000000E+00 -0.00000000000E+00 -0.92244632195E+02  0.92244632195E+02  0.00000000000E+00 0.  1.
         21    1    1    2  503  502  0.94387143383E+02 -0.63795586972E+01 -0.36728279310E+02  0.10148200878E+03  0.00000000000E+00 0.  1.
         21    1    1    2  504  503  0.36620408317E+02 -0.37878463880E+02  0.15771535542E+03  0.16628278824E+03  0.00000000000E+00 0.  1.
         21    1    1    2  505  506 -0.19348681590E+03  0.55320707642E+02  0.54626763688E+03  0.58215621591E+03  0.00000000000E+00 0.  1.
         21    1    1    2  506  501  0.62479264205E+02 -0.11062685065E+02  0.11033452337E+04  0.11051681982E+04  0.00000000000E+00 0.  1.
<scales pt_clust_3="14000.00000" pt_clust_4="52.68617" pt_clust_5="100.17362" pt_clust_6="93.33351"></scales>
<clustering>
<clus scale="   52.686">  1  4  2 -1</clus>
<clus scale="   93.334">  1  6  2 -1</clus>
<clus scale="  100.174">  1  5  2 -1</clus>
<clus scale="   52.686">  1  3  2 -1</clus>
</clustering>
</event>
<event>
 6    0  0.1438923E+002  0.1520896E+03  0.7546771E-02  0.1197929E+00
         21   -1    0    0  506  501  0.00000000000E+00  0.00000000000E+00  0.45699123132E+02  0.45699123132E+02  0.00000000000E+00 0. -1.
         21   -1    0    0  504  502 -0.00000000000E+00 -0.00000000000E+00 -0.55385959149E+03  0.55385959149E+03  0.00000000000E+00 0. -1.
         21    1    1    2  503  501  0.48201581859E+01  0.88174307487E+02 -0.12776967323E+03  0.15531590975E+03  0.00000000000E+00 0. -1.
         21    1    1    2  504  503 -0.29105702418E+02  0.45880283771E+02 -0.23518275991E+02  0.59205165803E+02  0.00000000000E+00 0. -1.
         21    1    1    2  505  502  0.10615310558E+02 -0.77539001686E+02 -0.13877129066E+03  0.15931871426E+03  0.00000000000E+00 0. -1.
         21    1    1    2  506  505  0.13670233674E+02 -0.56515589571E+02 -0.21810122848E+03  0.22571892481E+03  0.00000000000E+00 0. -1.
<scales pt_clust_3="53.03184" pt_clust_4="53.03184" pt_clust_5="144.55445" pt_clust_6="41.65601"></scales>
<clustering>
<clus scale="   41.656">  5  6 -1 -1</clus>
<clus scale="   53.032">  3  4 -1 -1</clus>
<clus scale="  144.554">  2  5  1 -1</clus>
<clus scale="  152.090">  1  3  2 -1</clus>
</clustering>
</event>
<event>
 6    0  0.1438923E+002  0.1260070E+03  0.7546771E-02  0.1233504E+00
         21   -1    0    0  504  501  0.00000000000E+00  0.00000000000E+00  0.20548298654E+03  0.20548298654E+03  0.00000000000E+00 0.  1.
         21   -1    0    0  503  502 -0.00000000000E+00 -0.00000000000E+00 -0.42613853992E+03  0.42613853992E+03  0.00000000000E+00 0.  1.
         21    1    1    2  503  501 -0.85291939381E+01  0.34656013116E+02 -0.29623695009E+03  0.29837914973E+03  0.00000000000E+00 0.  1.
         21    1    1    2  504  506 -0.69362352140E+02 -0.73287572542E+01  0.10148214223E+03  0.12314004941E+03  0.00000000000E+00 0.  1.
         21    1    1    2  505  502  0.12293858568E+03  0.18675697598E+01 -0.69241987419E+02  0.14110930688E+03  0.00000000000E+00 0.  1.
         21    1    1    2  506  505 -0.45047039603E+02 -0.29194825622E+02  0.43341241899E+02  0.68993020440E+02  0.00000000000E+00 0.  1.
<scales pt_clust_3="35.69014" pt_clust_4="34.17832" pt_clust_5="119.83301" pt_clust_6="34.17832"></scales>
<clustering>
<clus scale="   34.178">  4  6 -1 -1</clus>
<clus scale="   35.690">  2  3  1 -1</clus>
<clus scale="  119.833">  2  5  1 -1</clus>
<clus scale="  126.007">  1  3  2 -1</clus>
</clustering>
</event>
<event>
 6    0  0.1438923E+002  0.1116260E+03  0.7546771E-02  0.1257588E+00
         21   -1    0    0  505  501  0.00000000000E+00  0.00000000000E+00  0.15426636108E+04  0.15426636108E+04  0.00000000000E+00 0.  1.
         21   -1    0    0  503  502 -0.00000000000E+00 -0.00000000000E+00 -0.70604744686E+02  0.70604744686E+02  0.00000000000E+00 0. -1.
         21    1    1    2  503  506  0.33550417464E+02 -0.11249125288E+02 -0.50182695192E+02  0.61404203671E+02  0.00000000000E+00 0. -1.
         21    1    1    2  504  502 -0.55790016247E+02  0.12105555303E+03  0.47363226113E+03  0.49203098644E+03  0.00000000000E+00 0.  1.
         21    1    1    2  505  504 -0.98678061580E+01 -0.95033190510E+02  0.95510902224E+03  0.95987599473E+03  0.00000000000E+00 0.  1.
         21    1    1    2  506  501  0.32107404941E+02 -0.14773237227E+02  0.93500277982E+02  0.99957170693E+02  0.00000000000E+00 0.  1.
<scales pt_clust_3="35.52241" pt_clust_4="14000.00000" pt_clust_5="111.62603" pt_clust_6="35.34309"></scales>
<clustering>
<clus scale="   35.343">  1  6  2 -1</clus>
<clus scale="   35.522">  2  3  1 -1</clus>
<clus scale="  111.626">  1  5  2 -1</clus>
<clus scale="   35.343">  1  3  2 -1</clus>
</clustering>
</event>
<event>
 6    0  0.1438923E+002  0.1189412E+03  0.7546771E-02  0.1244854E+00
         21   -1    0    0  504  501  0.00000000000E+00  0.00000000000E+00  0.71315988913E+03  0.71315988913E+03  0.00000000000E+00 0.  1.
         21   -1    0    0  506  502 -0.00000000000E+00 -0.00000000000E+00 -0.17128201605E+03  0.17128201605E+03  0.00000000000E+00 0. -1.
         21    1    1    2  503  502 -0.27692149729E+02 -0.59969552351E+02  0.63571655427E+01  0.66359746228E+02  0.00000000000E+00 0. -1.
         21    1    1    2  504  503  0.36313884378E+02  0.88614557034E+02  0.59002650917E+03  0.59774787281E+03  0.00000000000E+00 0.  1.
         21    1    1    2  505  501 -0.25869156616E+02  0.38259109565E+02  0.66516872827E+02  0.80978189035E+02  0.00000000000E+00 0. -1.
         21    1    1    2  506  505  0.17247421967E+02 -0.66904114248E+02 -0.12102267446E+03  0.13935609711E+03  0.00000000000E+00 0. -1.
<scales pt_clust_3="64.73516" pt_clust_4="118.94118" pt_clust_5="46.18412" pt_clust_6="14000.00000"></scales>
<clustering>
<clus scale="   46.184">  1  5  2 -1</clus>
<clus scale="   64.735">  2  3  1 -1</clus>
<clus scale="  118.941">  1  4  2 -1</clus>
<clus scale="   46.184">  1  3  2 -1</clus>
</clustering>
</event>
<event>
 6    0  0.1438923E+002  0.1220882E+03  0.7546771E-02  0.1239691E+00
         21   -1    0    0  504  501  0.00000000000E+00  0.00000000000E+00  0.13449211739E+04  0.13449211739E+04  0.00000000000E+00 0.  1.
         21   -1    0    0  503  502 -0.00000000000E+00 -0.00000000000E+00 -0.14516798166E+03  0.14516798166E+03  0.00000000000E+00 0.  1.
         21    1    1    2  503  505  0.29612491318E+02  0.23872587906E+02 -0.11977816088E+03  0.12567262199E+03  0.00000000000E+00 0.  1.
         21    1    1    2  504  506 -0.15140001162E+03  0.41458359627E+02  0.96517304059E+03  0.97785467089E+03  0.00000000000E+00 0.  1.
         21    1    1    2  505  501  0.35907304989E+02 -0.39566311400E+01  0.17291191788E+03  0.17664518343E+03  0.00000000000E+00 0. -1.
         21    1    1    2  506  502  0.85880215318E+02 -0.61374316393E+02  0.18144639461E+03  0.20991667922E+03  0.00000000000E+00 0.  1.
<scales pt_clust_3="38.10103" pt_clust_4="14000.00000" pt_clust_5="36.12464" pt_clust_6="122.08824"></scales>
<clustering>
<clus scale="   36.125">  1  5  2 -1</clus>
<clus scale="   38.101">  2  3  1 -1</clus>
<clus scale="  122.088">  2  6  1 -1</clus>
<clus scale="   36.125">  1  3  2 -1</clus>
</clustering>
</event>
<event>
 6    0  0.1438923E+002  0.1232148E+03  0.7546771E-02  0.1237886E+00
         21   -1    0    0  503  501  0.00000000000E+00  0.00000000000E+00  0.40393610151E+03  0.40393610151E+03  0.00000000000E+00 0. -1.
         21   -1    0    0  501  502 -0.00000000000E+00 -0.00000000000E+00 -0.66195057575E+03  0.66195057575E+03  0.00000000000E+00 0. -1.
         21    1    1    2  503  504 -0.12832677449E+02 -0.33844394962E+02  0.84233805936E+01  0.37162804273E+02  0.00000000000E+00 0.  1.
         21    1    1    2  504  506 -0.25569980221E+02 -0.53035179174E+02  0.89695835271E+02  0.10729350858E+03  0.00000000000E+00 0. -1.
         21    1    1    2  505  502 -0.57123445002E+02  0.11062245040E+03 -0.62387084144E+03  0.63617233617E+03  0.00000000000E+00 0. -1.
         21    1    1    2  506  505  0.95526102672E+02 -0.23742876265E+02  0.26773715134E+03  0.28525802823E+03  0.00000000000E+00 0. -1.
<scales pt_clust_3="36.19559" pt_clust_4="68.20067" pt_clust_5="14000.00000" pt_clust_6="123.21476"></scales>
<clustering>
<clus scale="   36.196">  1  3  2 -1</clus>
<clus scale="   68.201">  1  4  2 -1</clus>
<clus scale="  123.215">  1  6  2 -1</clus>
<clus scale="   36.196">  1  3  2 -1</clus>
</clustering>
</event>
<event>
 6    0  0.1438923E+002  0.1892969E+03  0.7546771E-02  0.1159097E+00
         21   -1    0    0  506  501  0.00000000000E+00  0.00000000000E+00  0.98499169312E+03  0.98499169312E+03  0.00000000000E+00 0.  1.
         21   -1    0    0  505  502 -0.00000000000E+00 -0.00000000000E+00 -0.38286239353E+02  0.38286239353E+02  0.00000000000E+00 0.  1.
         21    1    1    2  503  501  0.77655040328E+02 -0.10495141310E+03  0.29735822718E+03  0.32475686239E+03  0.00000000000E+00 0.  1.
         21    1    1    2  504  502 -0.71545154221E+02  0.67295419831E+02  0.28606261976E+03  0.30245529430E+03  0.00000000000E+00 0. -1.
         21    1    1    2  505  503  0.23254669299E+02 -0.43794542740E+02  0.47643894745E+02  0.68765415177E+02  0.00000000000E+00 0.  1.
         21    1    1    2  506  504 -0.29364555406E+02  0.81450536008E+02  0.31564071208E+03  0.32730036061E+03  0.00000000000E+00 0.  1.
<scales pt_clust_3="36.59060" pt_clust_4="185.86362" pt_clust_5="36.59060" pt_clust_6="44.40787"></scales>
<clustering>
<clus scale="   36.591">  3  5 -1 -1</clus>
<clus scale="   44.408">  4  6 -1 -1</clus>
<clus scale="  185.864">  1  4  2 -1</clus>
<clus scale="  185.864">  1  3  2 -1</clus>
</clustering>
</event>
<event>
 6    0  0.1438923E+002  0.2752206E+03  0.7546771E-02  0.1098328E+00
         21   -1    0    0  505  501  0.00000000000E+00  0.00000000000E+00  0.20676262949E+04  0.20676262949E+04  0.00000000000E+00 0.  1.
         21   -1    0    0  501  502 -0.00000000000E+00 -0.00000000000E+00 -0.37658632654E+03  0.37658632654E+03  0.00000000000E+00 0. -1.
         21    1    1    2  503  506  0.11720606447E+03  0.11671648370E+03  0.50820266817E+03  0.53444359015E+03  0.00000000000E+00 0. -1.
         21    1    1    2  504  502 -0.65393677027E+01 -0.53258615051E+02 -0.33425416942E+03  0.33853374010E+03  0.00000000000E+00 0. -1.
         21    1    1    2  505  503 -0.22271593834E+03 -0.13237042253E+03  0.12052877866E+04  0.12328191135E+04  0.00000000000E+00 0.  1.
         21    1    1    2  506  504  0.11204924156E+03  0.68912553884E+02  0.31180368303E+03  0.33841617776E+03  0.00000000000E+00 0. -1.
<scales pt_clust_3="44.20945" pt_clust_4="53.65858" pt_clust_5="270.71899" pt_clust_6="44.20945"></scales>
<clustering>
<clus scale="   44.209">  3  6 -1 -1</clus>
<clus scale="   53.659">  2  4  1 -1</clus>
<clus scale="  270.719">  1  5  2 -1</clus>
<clus scale="  270.719">  1  3  2 -1</clus>
</clustering>
</event>
<event>
 6    0  0.1438923E+002  0.1344648E+03  0.7546771E-02  0.1220977E+00
         21   -1    0    0  504  501  0.00000000000E+00  0.00000000000E+00  0.40026060445E+03  0.40026060445E+03  0.00000000000E+00 0. -1.
         21   -1    0    0  505  502 -0.00000000000E+00 -0.00000000000E+00 -0.31881599690E+03  0.31881599690E+03  0.00000000000E+00 0. -1.
         21    1    1    2  503  501  0.32743070273E+02 -0.28521896405E+02  0.72807327954E+02  0.84773310831E+02  0.00000000000E+00 0. -1.
         21    1    1    2  504  502  0.18764598779E+02  0.40663133776E+02  0.10834721121E+03  0.11723787269E+03  0.00000000000E+00 0. -1.
         21    1    1    2  505  506 -0.61312195378E+02  0.10537212158E+03 -0.27785720743E+03  0.30342560378E+03  0.00000000000E+00 0. -1.
         21    1    1    2  506  503  0.98045263259E+01 -0.11751335895E+03  0.17814727582E+03  0.21363981406E+03  0.00000000000E+00 0. -1.
<scales pt_clust_3="32.87861" pt_clust_4="44.78393" pt_clust_5="123.06587" pt_clust_6="32.87861"></scales>
<clustering>
<clus scale="   32.879">  3  6 -1 -1</clus>
<clus scale="   44.784">  1  4  2 -1</clus>
<clus scale="  123.066">  2  5  1 -1</clus>
<clus scale="   44.784">  1  3  2 -1</clus>
</clustering>
</event>
<event>
 6    0  0.1438923E+002  0.2218637E+03  0.7546771E-02  0.1132501E+00
         21   -1    0    0  503  501  0.00000000000E+00  0.00000000000E+00  0.15449605881E+04  0.15449605881E+04  0.00000000000E+00 0.  1.
         21   -1    0    0  501  502 -0.00000000000E+00 -0.00000000000E+00 -0.26954586678E+03  0.26954586678E+03  0.00000000000E+00 0. -1.
         21    1    1    2  503  505 -0.32529527142E+02  0.31046453124E+02  0.69183440734E+03  0.69329423737E+03  0.00000000000E+00 0.  1.
         21    1    1    2  504  502  0.14005389451E+03 -0.16555558325E+03 -0.21317374040E+03  0.30408352160E+03  0.00000000000E+00 0. -1.
         21    1    1    2  505  506 -0.56876268482E+02  0.84983146836E+02  0.58416815940E+03  0.59305099580E+03  0.00000000000E+00 0.  1.
         21    1    1    2  506  504 -0.50648098887E+02  0.49525983291E+02  0.21258589495E+03  0.22407770008E+03  0.00000000000E+00 0. -1.
<scales pt_clust_3="44.96724" pt_clust_4="214.46542" pt_clust_5="44.75229" pt_clust_6="44.75229"></scales>
<clustering>
<clus scale="   44.967">  1  3  2 -1</clus>
<clus scale="   44.752">  5  6 -1 -1</clus>
<clus scale="  214.465">  2  4  1 -1</clus>
<clus scale="   44.967">  1  3  2 -1</clus>
</clustering>
</event>
<event>
 6    0  0.1438923E+002  0.1517331E+03  0.7546771E-02  0.1198359E+00
         21   -1    0    0  505  501  0.00000000000E+00  0.00000000000E+00  0.35717554088E+03  0.35717554088E+03  0.00000000000E+00 0. -1.
         21   -1    0    0  506  502 -0.00000000000E+00 -0.00000000000E+00 -0.66993935115E+03  0.66993935115E+03  0.00000000000E+00 0.  1.
         21    1    1    2  503  502  0.12541303609E+03 -0.99483479258E+02 -0.58601837752E+03  0.60748903780E+03  0.00000000000E+00 0.  1.
         21    1    1    2  504  501 -0.12862717369E+03 -0.17482521257E+02  0.21923116963E+03  0.25478008968E+03  0.00000000000E+00 0. -1.
         21    1    1    2  505  503  0.44294318200E+02  0.17219644499E+02  0.21613870748E+02  0.52207874791E+02  0.00000000000E+00 0.  1.
         21    1    1    2  506  504 -0.41080180599E+02  0.99746356016E+02  0.32409526875E+02  0.11263788976E+03  0.00000000000E+00 0. -1.
<scales pt_clust_3="151.73315" pt_clust_4="95.96513" pt_clust_5="47.52371" pt_clust_6="14000.00000"></scales>
<clustering>
<clus scale="   47.524">  1  5  2 -1</clus>
<clus scale="   95.965">  1  4  2 -1</clus>
<clus scale="  151.733">  2  3  1 -1</clus>
<clus scale="   47.524">  1  3  2 -1</clus>
</clustering>
</event>
<event>
 6    0  0.1438923E+002  0.1487914E+03  0.7546771E-02  0.1201966E+00
         21   -1    0    0  504  501  0.00000000000E+00  0.00000000000E+00  0.48082511372E+03  0.48082511372E+03  0.00000000000E+00 0.  1.
         21   -1    0    0  505  502 -0.00000000000E+00 -0.00000000000E+00 -0.24529410302E+03  0.24529410302E+03  0.00000000000E+00 0.  1.
         21    1    1    2  503  502 -0.21631125551E+03  0.18973298699E+02  0.19934521785E+03  0.29476950521E+03  0.00000000000E+00 0.  1.
         21    1    1    2  504  503  0.91328389311E+02  0.46719163898E+02  0.10721765211E+03  0.14838861106E+03  0.00000000000E+00 0.  1.
         21    1    1    2  505  506  0.35385798514E+02  0.18021747633E+02 -0.13775383372E+03  0.14336337338E+03  0.00000000000E+00 0.  1.
         21    1    1    2  506  501  0.89597067679E+02 -0.83714210230E+02  0.66721974461E+02  0.13959772708E+03  0.00000000000E+00 0.  1.
<scales pt_clust_3="148.79138" pt_clust_4="110.38940" pt_clust_5="39.71068" pt_clust_6="14000.00000"></scales>
<clustering>
<clus scale="   39.711">  2  5  1 -1</clus>
<clus scale="  110.389">  1  4  2 -1</clus>
<clus scale="  148.791">  1  3  2 -1</clus>
<clus scale="  110.389">  1  3  2 -1</clus>
</clustering>
</event>
<event>
 6    0  0.1438923E+002  0.1219817E+03  0.7546771E-02  0.1239863E+00
         21   -1    0    0  503  501  0.00000000000E+00  0.00000000000E+00  0.63252024330E+03  0.63252024330E+03  0.00000000000E+00 0.  1.
         21   -1    0    0  504  502 -0.00000000000E+00 -0.00000000000E+00 -0.22671525942E+03  0.22671525942E+03  0.00000000000E+00 0. -1.
         21    1    1    2  503  502  0.38214961511E+02  0.43174118641E+01 -0.17687515257E+03  0.18100785322E+03  0.00000000000E+00 0. -1.
         21    1    1    2  504  506  0.31181582877E+02  0.10924033947E+02 -0.33263566216E+01  0.33206780584E+02  0.00000000000E+00 0. -1.
         21    1    1    2  505  501 -0.14413302549E+03  0.65790551770E+01  0.52953674958E+03  0.54884130872E+03  0.00000000000E+00 0.  1.
         21    1    1    2  506  505  0.74736481099E+02 -0.21820500988E+02  0.56469743487E+02  0.96179560198E+02  0.00000000000E+00 0. -1.
<scales pt_clust_3="66.41004" pt_clust_4="33.03976" pt_clust_5="14000.00000" pt_clust_6="121.98174"></scales>
<clustering>
<clus scale="   33.040">  2  4  1 -1</clus>
<clus scale="   66.410">  2  3  1 -1</clus>
<clus scale="  121.982">  2  6  1 -1</clus>
<clus scale="  121.982">  1  3  2 -1</clus>
</clustering>
</event>
<event>
 6    0  0.1438923E+002  0.1112760E+03  0.7546771E-02  0.1258225E+00
         21   -1    0    0  505  501  0.00000000000E+00  0.00000000000E+00  0.10109568885E+04  0.10109568885E+04  0.00000000000E+00 0.  1.
         21   -1    0    0  503  502 -0.00000000000E+00 -0.00000000000E+00 -0.12328988085E+03  0.12328988085E+03  0.00000000000E+00 0. -1.
         21    1    1    2  503  506 -0.15021575025E+02 -0.86658132551E+02  0.12455680915E+03  0.15247845211E+03  0.00000000000E+00 0.  1.
         21    1    1    2  504  502 -0.50347249506E+02 -0.20250044394E+02 -0.92980103556E+02  0.10765783524E+03  0.00000000000E+00 0. -1.
         21    1    1    2  505  504  0.10084279594E+03  0.92858419227E+02  0.62160570424E+03  0.63654191304E+03  0.00000000000E+00 0.  1.
         21    1    1    2  506  501 -0.35473971409E+02  0.14049757718E+02  0.23448459783E+03  0.23756856896E+03  0.00000000000E+00 0.  1.
<scales pt_clust_3="14000.00000" pt_clust_4="54.52963" pt_clust_5="111.27598" pt_clust_6="38.15493"></scales>
<clustering>
<clus scale="   38.155">  1  6  2 -1</clus>
<clus scale="   54.530">  2  4  1 -1</clus>
<clus scale="  111.276">  1  5  2 -1</clus>
<clus scale="   38.155">  1  3  2 -1</clus>
</clustering>
</event>
<event>
 6    0  0.1438923E+002  0.1787674E+03  0.7546771E-02  0.1169001E+00
         21   -1    0    0  505  501  0.00000000000E+00  0.00000000000E+00  0.19294255172E+03  0.19294255172E+03  0.00000000000E+00 0.  1.
         21   -1    0    0  506  502 -0.00000000000E+00 -0.00000000000E+00 -0.28573196668E+03  0.28573196668E+03  0.00000000000E+00 0.  1.
         21    1    1    2  503  502 -0.40642875999E+02 -0.16567527202E+03 -0.17308557744E+03  0.24302007375E+03  0.00000000000E+00 0.  1.
         21    1    1    2  504  503  0.56996634301E+02  0.94450811939E+02  0.78700861734E+02  0.13551161513E+03  0.00000000000E+00 0.  1.
         21    1    1    2  505  504  0.15170761653E+02  0.62979713605E+02  0.12110400678E+02  0.65903400060E+02  0.00000000000E+00 0.  1.
         21    1    1    2  506  501 -0.31524519955E+02  0.82447464758E+01 -0.10515099939E+02  0.34239429458E+02  0.00000000000E+00 0.  1.
<scales pt_clust_3="172.13069" pt_clust_4="37.18267" pt_clust_5="37.18267" pt_clust_6="32.58483"></scales>
<clustering>
<clus scale="   32.585">  2  6  1 -1</clus>
<clus scale="   37.183">  4  5 -1 -1</clus>
<clus scale="  172.131">  2  3  1 -1</clus>
<clus scale="  178.767">  1  3  2 -1</clus>
</clustering>
</event>
<event>
 6    0  0.1438923E+002  0.6803522E+02  0.7546771E-02  0.1366905E+00
         21   -1    0    0  504  501  0.00000000000E+00  0.00000000000E+00  0.18604875665E+03  0.18604875665E+03  0.00000000000E+00 0. -1.
         21   -1    0    0  505  502 -0.00000000000E+00 -0.00000000000E+00 -0.10952228142E+04  0.10952228142E+04  0.00000000000E+00 0. -1.
         21    1    1    2  503  501  0.42492061818E+02  0.63647188133E+02  0.59484067208E+02  0.96927262039E+02  0.00000000000E+00 0. -1.
         21    1    1    2  504  506 -0.28387173074E+02  0.32179742437E+02  0.31716995480E+02  0.53360427479E+02  0.00000000000E+00 0. -1.
         21    1    1    2  505  503 -0.58776070682E+02 -0.34242551181E+02 -0.10420294121E+04  0.10442473244E+04  0.00000000000E+00 0. -1.
         21    1    1    2  506  502  0.44671181938E+02 -0.61584379390E+02  0.41654291867E+02  0.86736556950E+02  0.00000000000E+00 0.  1.
<scales pt_clust_3="14000.00000" pt_clust_4="42.91116" pt_clust_5="68.03522" pt_clust_6="57.00113"></scales>
<clustering>
<clus scale="   42.911">  1  4  2 -1</clus>
<clus scale="   57.001">  1  6  2 -1</clus>
<clus scale="   68.035">  2  5  1 -1</clus>
<clus scale="   42.911">  1  3  2 -1</clus>
</clustering>
</event>
<event>
 6    0  0.1438923E+002  0.8324162E+02  0.7546771E-02  0.1320096E+00
         21   -1    0    0  505  501  0.00000000000E+00  0.00000000000E+00  0.25567771856E+03  0.25567771856E+03  0.00000000000E+00 0.  1.
         21   -1    0    0  503  502 -0.00000000000E+00 -0.00000000000E+00 -0.13342554374E+04  0.13342554374E+04  0.00000000000E+00 0.  1.
         21    1    1    2  503  501  0.96259669073E+02  0.84894740516E+02  0.45877744211E+02  0.13630043386E+03  0.00000000000E+00 0.  1.
         21    1    1    2  504  506 -0.52751687427E+02 -0.60694172119E+02 -0.33400736739E+02  0.87075440110E+02  0.00000000000E+00 0.  1.
         21    1    1    2  505  504 -0.65420701453E+01  0.49767444873E+02  0.13173533433E+03  0.14097445003E+03  0.00000000000E+00 0.  1.
         21    1    1    2  506  502 -0.36965911501E+02 -0.73968013269E+02 -0.12227900607E+04  0.12255828320E+04  0.00000000000E+00 0.  1.
<scales pt_clust_3="14000.00000" pt_clust_4="73.41983" pt_clust_5="50.19559" pt_clust_6="83.24162"></scales>
<clustering>
<clus scale="   50.196">  1  5  2 -1</clus>
<clus scale="   73.420">  1  4  2 -1</clus>
<clus scale="   83.242">  2  6  1 -1</clus>
<clus scale="   50.196">  1  3  2 -1</clus>
</clustering>
</event>
<event>
 6    0  0.1438923E+002  0.1659415E+03  0.7546771E-02  0.1182148E+00
         21   -1    0    0  504  501  0.00000000000E+00  0.00000000000E+00  0.12075093616E+04  0.12075093616E+04  0.00000000000E+00 0.  1.
         21   -1    0    0  505  502 -0.00000000000E+00 -0.00000000000E+00 -0.42668862341E+02  0.42668862341E+02  0.00000000000E+00 0. -1.
         21    1    1    2  503  506 -0.42857667372E+02 -0.57250092810E+02  0.11641222247E+03  0.13662414984E+03  0.00000000000E+00 0. -1.
         21    1    1    2  504  502  0.10609579509E+03  0.94051940029E+02  0.64474685831E+03  0.66015194952E+03  0.00000000000E+00 0.  1.
         21    1    1    2  505  503 -0.50099683870E+02 -0.81010699393E+02  0.74286115265E+02  0.12079378569E+03  0.00000000000E+00 0. -1.
         21    1    1    2  506  501 -0.13138443851E+02  0.44208852173E+02  0.32939530326E+03  0.33260833894E+03  0.00000000000E+00 0.  1.
<scales pt_clust_3="40.09350" pt_clust_4="159.35983" pt_clust_5="40.09350" pt_clust_6="46.11986"></scales>
<clustering>
<clus scale="   40.093">  3  5 -1 -1</clus>
<clus scale="   46.120">  1  6  2 -1</clus>
<clus scale="  159.360">  1  4  2 -1</clus>
<clus scale="   46.120">  1  3  2 -1</clus>
</clustering>
</event>
<event>
 6    0  0.1438923E+002  0.1369625E+03  0.7546771E-02  0.1217476E+00
         21   -1    0    0  506  501  0.00000000000E+00  0.00000000000E+00  0.38809992160E+03  0.38809992160E+03  0.00000000000E+00 0. -1.
         21   -1    0    0  505  502 -0.00000000000E+00 -0.00000000000E+00 -0.52348093929E+03  0.52348093929E+03  0.00000000000E+00 0. -1.
         21    1    1    2  503  502 -0.41578510468E+02 -0.89581648024E+01 -0.28108986034E+02  0.50981725601E+02  0.00000000000E+00 0. -1.
         21    1    1    2  504  503 -0.96698134520E+02 -0.13421138957E+02 -0.40833373745E+03  0.41984175272E+03  0.00000000000E+00 0. -1.
         21    1    1    2  505  501  0.19193178976E+03 -0.43109606390E+02  0.29669417018E+03  0.35598269719E+03  0.00000000000E+00 0. -1.
         21    1    1    2  506  504 -0.53655144769E+02  0.65488910149E+02  0.43675356088E+01  0.84774685372E+02  0.00000000000E+00 0.  1.
<scales pt_clust_3="42.53259" pt_clust_4="14000.00000" pt_clust_5="136.96246" pt_clust_6="86.33280"></scales>
<clustering>
<clus scale="   42.533">  2  3  1 -1</clus>
<clus scale="   86.333">  1  6  2 -1</clus>
<clus scale="  136.962">  1  5  2 -1</clus>
<clus scale="   86.333">  1  3  2 -1</clus>
</clustering>
</event>
<event>
 6    0  0.1438923E+002  0.7833585E+02  0.7546771E-02  0.1333841E+00
         21   -1    0    0  505  501  0.00000000000E+00  0.00000000000E+00  0.19794353740E+04  0.19794353740E+04  0.00000000000E+00 0. -1.
         21   -1    0    0  503  502 -0.00000000000E+00 -0.00000000000E+00 -0.68584121604E+03  0.68584121604E+03  0.00000000000E+00 0.  1.
         21    1    1    2  503  506 -0.14034207559E+02 -0.57986752416E+02 -0.67539605684E+03  0.67802599952E+03  0.00000000000E+00 0.  1.
         21    1    1    2  504  501 -0.42574157162E+02  0.36001004048E+02  0.11151806797E+04  0.11165735889E+04  0.00000000000E+00 0. -1.
         21    1    1    2  505  502  0.59898528558E+02 -0.58249786134E+02  0.31394712885E+03  0.32487485440E+03  0.00000000000E+00 0. -1.
         21    1    1    2  506  504 -0.32901638372E+01  0.80235534502E+02  0.53986240625E+03  0.54580214717E+03  0.00000000000E+00 0. -1.
<scales pt_clust_3="59.62291" pt_clust_4="55.75510" pt_clust_5="78.33585" pt_clust_6="14000.00000"></scales>
<clustering>
<clus scale="   55.755">  1  4  2 -1</clus>
<clus scale="   59.623">  2  3  1 -1</clus>
<clus scale="   78.336">  1  5  2 -1</clus>
<clus scale="   55.755">  1  3  2 -1</clus>
</clustering>
</event>
<event>
 6    0  0.1438923E+002  0.1023418E+03  0.7546771E-02  0.1275447E+00
         21   -1    0    0  506  501  0.00000000000E+00  0.00000000000E+00  0.33001784303E+02  0.33001784303E+02  0.00000000000E+00 0. -1.
         21   -1    0    0  503  502 -0.00000000000E+00 -0.00000000000E+00 -0.22361097857E+04  0.22361097857E+04  0.00000000000E+00 0. -1.
         21    1    1    2  503  504 -0.82990731733E+02  0.35294516778E+02 -0.19119627111E+04  0.19140884444E+04  0.00000000000E+00 0. -1.
         21    1    1    2  504  501 -0.26713937024E+02  0.45663422217E+02 -0.12292183632E+03  0.13382286951E+03  0.00000000000E+00 0. -1.
         21    1    1    2  505  502  0.66498871564E+02 -0.51162914539E+02 -0.13542957996E+03  0.15931388788E+03  0.00000000000E+00 0. -1.
         21    1    1    2  506  505  0.43205797194E+02 -0.29795024456E+02 -0.32793874017E+02  0.61886368180E+02  0.00000000000E+00 0. -1.
<scales pt_clust_3="91.82992" pt_clust_4="52.90352" pt_clust_5="35.73182" pt_clust_6="35.73182"></scales>
<clustering>
<clus scale="   35.732">  5  6 -1 -1</clus>
<clus scale="   52.904">  1  4  2 -1</clus>
<clus scale="   91.830">  2  3  1 -1</clus>
<clus scale="   52.904">  1  3  2 -1</clus>
</clustering>
</event>
<event>
 6    0  0.1438923E+002  0.2053928E+03  0.7546771E-02  0.1145267E+00
         21   -1    0    0  504  501  0.00000000000E+00  0.00000000000E+00  0.13288101450E+04  0.13288101450E+04  0.00000000000E+00 0. -1.
         21   -1    0    0  506  502 -0.00000000000E+00 -0.00000000000E+00 -0.18625247512E+03  0.18625247512E+03  0.00000000000E+00 0. -1.
         21    1    1    2  503  502 -0.56473377261E+02  0.57136113480E+02 -0.74365898076E+02  0.10947175252E+03  0.00000000000E+00 0. -1.
         21    1    1    2  504  505  0.10104791095E+03  0.16678830761E+02  0.25201201941E+03  0.27202742808E+03  0.00000000000E+00 0. -1.
         21    1    1    2  505  503 -0.13131020868E+03 -0.22584728505E+03  0.91498266077E+03  0.95154749571E+03  0.00000000000E+00 0. -1.
         21    1    1    2  506  501  0.86735674996E+02  0.15203234081E+03  0.49928887762E+02  0.18201594381E+03  0.00000000000E+00 0.  1.
<scales pt_clust_3="80.33541" pt_clust_4="97.73897" pt_clust_5="205.39283" pt_clust_6="14000.00000"></scales>
<clustering>
<clus scale="   80.335">  2  3  1 -1</clus>
<clus scale="   97.739">  1  4  2 -1</clus>
<clus scale="  205.393">  1  5  2 -1</clus>
<clus scale="   97.739">  1  3  2 -1</clus>
</clustering>
</event>
<event>
 6    0  0.1438923E+002  0.1555940E+03  0.7546771E-02  0.1193763E+00
         21   -1    0    0  503  501  0.00000000000E+00  0.00000000000E+00  0.11493976008E+04  0.11493976008E+04  0.00000000000E+00 0.  1.
         21   -1    0    0  504  502 -0.00000000000E+00 -0.00000000000E+00 -0.26893639764E+03  0.26893639764E+03  0.00000000000E+00 0. -1.
         21    1    1    2  503  506 -0.71725515870E+02  0.24935186531E+02  0.31308169669E+03  0.32215906313E+03  0.00000000000E+00 0.  1.
         21    1    1    2  504  501  0.10117522122E+03 -0.59613809986E+02  0.16607879556E+03  0.20340206013E+03  0.00000000000E+00 0.  1.
         21    1    1    2  505  502  0.34495768065E+02 -0.15249049162E+02 -0.24172492675E+03  0.24464961011E+03  0.00000000000E+00 0. -1.
         21    1    1    2  506  505 -0.63945473414E+02  0.49927672617E+02  0.64302563768E+03  0.64812326511E+03  0.00000000000E+00 0.  1.
<scales pt_clust_3="54.28479" pt_clust_4="144.61670" pt_clust_5="37.71593" pt_clust_6="54.28479"></scales>
<clustering>
<clus scale="   37.716">  2  5  1 -1</clus>
<clus scale="   54.285">  3  6 -1 -1</clus>
<clus scale="  144.617">  2  4  1 -1</clus>
<clus scale="  155.594">  1  3  2 -1</clus>
</clustering>
</event>
<event>
 6    0  0.1438923E+002  0.6256853E+02  0.7546771E-02  0.1387358E+00
         21   -1    0    0  503  501  0.00000000000E+00  0.00000000000E+00  0.92577834526E+02  0.92577834526E+02  0.00000000000E+00 0.  1.
         21   -1    0    0  505  502 -0.00000000000E+00 -0.00000000000E+00 -0.20234507686E+03  0.20234507686E+03  0.00000000000E+00 0.  1.
         21    1    1    2  503  502  0.47048141648E+02 -0.76870660394E+02 -0.12539725482E+02  0.90993795267E+02  0.00000000000E+00 0.  1.
         21    1    1    2  504  501 -0.12416073284E+02  0.47454133010E+02 -0.22970897789E+01  0.49105297443E+02  0.00000000000E+00 0.  1.
         21    1    1    2  505  506  0.32529530393E+02  0.34570174014E+02 -0.66516113009E+02  0.81716953986E+02  0.00000000000E+00 0.  1.
         21    1    1    2  506  504 -0.67161598756E+02 -0.51536466299E+01 -0.28414314065E+02  0.73106864690E+02  0.00000000000E+00 0.  1.
<scales pt_clust_3="14000.00000" pt_clust_4="54.70181" pt_clust_5="47.46859" pt_clust_6="62.56853"></scales>
<clustering>
<clus scale="   47.469">  2  5  1 -1</clus>
<clus scale="   54.702">  1  4  2 -1</clus>
<clus scale="   62.569">  2  6  1 -1</clus>
<clus scale="   54.702">  1  3  2 -1</clus>
</clustering>
</event>
<event>
 6    0  0.1438923E+002  0.2902195E+03  0.7546771E-02  0.1090235E+00
         21   -1    0    0  504  501  0.00000000000E+00  0.00000000000E+00  0.40927591797E+03  0.40927591797E+03  0.00000000000E+00 0.  1.
         21   -1    0    0  503  502 -0.00000000000E+00 -0.00000000000E+00 -0.46700479875E+03  0.46700479875E+03  0.00000000000E+00 0. -1.
         21    1    1    2  503  505 -0.52808718905E+02 -0.14854106736E+03 -0.28445648266E+03  0.32522100180E+03  0.00000000000E+00 0. -1.
         21    1    1    2  504  506 -0.27946417137E+02  0.33126858570E+02  0.63916308714E+02  0.77224902131E+02  0.00000000000E+00 0.  1.
         21    1    1    2  505  501 -0.21929818548E+02 -0.11279581388E+03 -0.67895713101E+02  0.13346775051E+03  0.00000000000E+00 0. -1.
         21    1    1    2  506  502  0.10268495459E+03  0.22821002267E+03  0.23070700626E+03  0.34036706228E+03  0.00000000000E+00 0.  1.
<scales pt_clust_3="94.23337" pt_clust_4="43.34041" pt_clust_5="94.23337" pt_clust_6="268.08001"></scales>
<clustering>
<clus scale="   43.340">  1  4  2 -1</clus>
<clus scale="   94.233">  3  5 -1 -1</clus>
<clus scale="  268.080">  1  6  2 -1</clus>
<clus scale="   43.340">  1  3  2 -1</clus>
</clustering>
</event>
<event>
 6    0  0.1438923E+002  0.1609112E+03  0.7546771E-02  0.1187672E+00
         21   -1    0    0  504  501  0.00000000000E+00  0.00000000000E+00  0.19957952936E+04  0.19957952936E+04  0.00000000000E+00 0.  1.
         21   -1    0    0  503  502 -0.00000000000E+00 -0.00000000000E+00 -0.26215559200E+02  0.26215559200E+02  0.00000000000E+00 0.  1.
         21    1    1    2  503  506 -0.13603398569E+03  0.88950525275E+01  0.36693433046E+03  0.39143986779E+03  0.00000000000E+00 0.  1.
         21    1    1    2  504  505  0.10118122757E+03 -0.37979805553E+01  0.37952674088E+03  0.39280098334E+03  0.00000000000E+00 0.  1.
         21    1    1    2  505  502  0.10927065802E+03  0.48274264704E+00  0.56806914672E+03  0.57848324539E+03  0.00000000000E+00 0.  1.
         21    1    1    2  506  501 -0.74417899900E+02 -0.55798146193E+01  0.65504951635E+03  0.65928675630E+03  0.00000000000E+00 0.  1.
<scales pt_clust_3="157.28419" pt_clust_4="32.70172" pt_clust_5="32.70172" pt_clust_6="74.62679"></scales>
<clustering>
<clus scale="   32.702">  4  5 -1 -1</clus>
<clus scale="   74.627">  1  6  2 -1</clus>
<clus scale="  157.284">  2  3  1 -1</clus>
<clus scale="   74.627">  1  3  2 -1</clus>
</clustering>
</event>
<event>
 6    0  0.1438923E+002  0.8165185E+02  0.7546771E-02  0.1324428E+00
         21   -1    0    0  503  501  0.00000000000E+00  0.00000000000E+00  0.38423350189E+03  0.38423350189E+03  0.00000000000E+00 0.  1.
         21   -1    0    0  505  502 -0.00000000000E+00 -0.00000000000E+00 -0.91055671329E+02  0.91055671329E+02  0.00000000000E+00 0.  1.
         21    1    1    2  503  506  0.21460564194E+02  0.40253367464E+02  0.96906754393E+02  0.10710652853E+03  0.00000000000E+00 0.  1.
         21    1    1    2  504  502 -0.59668777688E+02  0.48455638415E+02  0.16518955574E+03  0.18219742383E+03  0.00000000000E+00 0.  1.
         21    1    1    2  505  501 -0.10997767350E+02 -0.86873858737E+02 -0.42588441298E+02  0.97374501543E+02  0.00000000000E+00 0.  1.
         21    1    1    2  506  504  0.49205980844E+02 -0.18351471415E+01  0.73669961726E+02  0.88610719310E+02  0.00000000000E+00 0.  1.
<scales pt_clust_3="45.61677" pt_clust_4="81.65185" pt_clust_5="14000.00000" pt_clust_6="56.22556"></scales>
<clustering>
<clus scale="   45.617">  1  3  2 -1</clus>
<clus scale="   56.226">  1  6  2 -1</clus>
<clus scale="   81.652">  1  4  2 -1</clus>
<clus scale="   45.617">  1  3  2 -1</clus>
</clustering>
</event>
<event>
 6    0  0.1438923E+002  0.1082328E+03  0.7546771E-02  0.1263878E+00
         21   -1    0    0  505  501  0.00000000000E+00  0.00000000000E+00  0.37798420749E+02  0.37798420749E+02  0.00000000000E+00 0. -1.
         21   -1    0    0  503  502 -0.00000000000E+00 -0.00000000000E+00 -0.15565323456E+04  0.15565323456E+04  0.00000000000E+00 0.  1.
         21    1    1    2  503  506  0.80438953439E+02  0.73699992802E+02 -0.21384413514E+03  0.24006546670E+03  0.00000000000E+00 0. -1.
         21    1    1    2  504  502 -0.79204892058E+02 -0.73523867058E+02 -0.11788289634E+04  0.11837723171E+04  0.00000000000E+00 0.  1.
         21    1    1    2  505  504 -0.35560018664E+02  0.17227282727E+02 -0.12595470159E+03  0.13200712500E+03  0.00000000000E+00 0. -1.
         21    1    1    2  506  501  0.34325957283E+02 -0.17403408470E+02 -0.10612480752E+00  0.38485857562E+02  0.00000000000E+00 0. -1.
<scales pt_clust_3="108.23276" pt_clust_4="14000.00000" pt_clust_5="33.25570" pt_clust_6="38.48571"></scales>
<clustering>
<clus scale="   38.486">  1  6  2 -1</clus>
<clus scale="   33.256">  1  5  2 -1</clus>
<clus scale="  108.233">  1  3  2 -1</clus>
<clus scale="   38.486">  1  3  2 -1</clus>
</clustering>
</event>
<event>
 6    0  0.1438923E+002  0.1196397E+03  0.7546771E-02  0.1243693E+00
         21   -1    0    0  505  501  0.00000000000E+00  0.00000000000E+00  0.92450703807E+02  0.92450703807E+02  0.00000000000E+00 0.  1.
         21   -1    0    0  506  502 -0.00000000000E+00 -0.00000000000E+00 -0.12667431007E+04  0.12667431007E+04  0.00000000000E+00 0. -1.
         21    1    1    2  503  501  0.80468925088E+02  0.20302118801E+01  0.33844622885E+02  0.87320262043E+02  0.00000000000E+00 0.  1.
         21    1    1    2  504  502  0.12410036363E+02 -0.36514724659E+02 -0.19735874629E+01  0.38616436487E+02  0.00000000000E+00 0.  1.
         21    1    1    2  505  504  0.27778010917E+02  0.18636334793E+02 -0.16342652685E+02  0.37229197705E+02  0.00000000000E+00 0.  1.
         21    1    1    2  506  503 -0.12065697237E+03  0.15848177986E+02 -0.11898207797E+04  0.11960279083E+04  0.00000000000E+00 0. -1.
<scales pt_clust_3="119.63965" pt_clust_4="37.32494" pt_clust_5="33.45042" pt_clust_6="14000.00000"></scales>
<clustering>
<clus scale="   33.450">  1  5  2 -1</clus>
<clus scale="   37.325">  1  4  2 -1</clus>
<clus scale="  119.640">  1  3  2 -1</clus>
<clus scale="   33.450">  1  3  2 -1</clus>
</clustering>
</event>
<event>
 6    0  0.1438923E+002  0.9259622E+02  0.7546771E-02  0.1296684E+00
         21   -1    0    0  504  501  0.00000000000E+00  0.00000000000E+00  0.99654680283E+02  0.99654680283E+02  0.00000000000E+00 0.  1.
         21   -1    0    0  505  502 -0.00000000000E+00 -0.00000000000E+00 -0.13662012736E+04  0.13662012736E+04  0.00000000000E+00 0.  1.
         21    1    1    2  503  501  0.34460179599E+02 -0.10704104624E+01  0.45104133198E+01  0.34770585052E+02  0.00000000000E+00 0.  1.
         21    1    1    2  504  506 -0.33768553685E+02 -0.88616921197E+02  0.35215445526E+02  0.10116027651E+03  0.00000000000E+00 0.  1.
         21    1    1    2  505  503  0.38050161836E+02  0.10923012605E+03 -0.28289632021E+03  0.30562945415E+03  0.00000000000E+00 0.  1.
         21    1    1    2  506  502 -0.38741787749E+02 -0.19542794395E+02 -0.10233761320E+04  0.10242956382E+04  0.00000000000E+00 0.  1.
<scales pt_clust_3="34.47680" pt_clust_4="14000.00000" pt_clust_5="92.59622" pt_clust_6="43.21787"></scales>
<clustering>
<clus scale="   34.477">  1  3  2 -1</clus>
<clus scale="   43.218">  2  6  1 -1</clus>
<clus scale="   92.596">  2  5  1 -1</clus>
<clus scale="   34.477">  1  3  2 -1</clus>
</clustering>
</event>
<event>
 6    0  0.1438923E+002  0.9480580E+02  0.7546771E-02  0.1291614E+00
         21   -1    0    0  504  501  0.00000000000E+00  0.00000000000E+00  0.39449988057E+03  0.39449988057E+03  0.00000000000E+00 0. -1.
         21   -1    0    0  505  502 -0.00000000000E+00 -0.00000000000E+00 -0.47512265836E+02  0.47512265836E+02  0.00000000000E+00 0. -1.
         21    1    1    2  503  501  0.79377935383E+01  0.89392864907E+02  0.13084140021E+03  0.15866179399E+03  0.00000000000E+00 0. -1.
         21    1    1    2  504  502  0.68021190126E+02 -0.30344832193E+02  0.62217511232E+02  0.97050037872E+02  0.00000000000E+00 0. -1.
         21    1    1    2  505  506 -0.20799596937E+02 -0.42177129030E+02  0.62933763500E+02  0.78563299537E+02  0.00000000000E+00 0. -1.
         21    1    1    2  506  503 -0.55159386727E+02 -0.16870903684E+02  0.90994939784E+02  0.10773701500E+03  0.00000000000E+00 0. -1.
<scales pt_clust_3="85.03420" pt_clust_4="74.48282" pt_clust_5="37.85124" pt_clust_6="37.85124"></scales>
<clustering>
<clus scale="   37.851">  5  6 -1 -1</clus>
<clus scale="   74.483">  2  4  1 -1</clus>
<clus scale="   85.034">  1  3  2 -1</clus>
<clus scale="   85.034">  1  3  2 -1</clus>
</clustering>
</event>
<event>
 6    0  0.1438923E+002  0.1223691E+03  0.7546771E-02  0.1239239E+00
         21   -1    0    0  502  501  0.00000000000E+00  0.00000000000E+00  0.14517405176E+04  0.14517405176E+04  0.00000000000E+00 0.  1.
         21   -1    0    0  504  502 -0.00000000000E+00 -0.00000000000E+00 -0.26264706292E+03  0.26264706292E+03  0.00000000000E+00 0.  1.
         21    1    1    2  503  505  0.17338417569E+02  0.10236811290E+03  0.69420216226E+03  0.70192342413E+03  0.00000000000E+00 0.  1.
         21    1    1    2  504  503 -0.17763113211E+02 -0.12147598322E+03 -0.23636625549E+03  0.26634742241E+03  0.00000000000E+00 0.  1.
         21    1    1    2  505  506 -0.14058116939E+02  0.68941629069E+02  0.19411846013E+03  0.20647652514E+03  0.00000000000E+00 0.  1.
         21    1    1    2  506  501  0.14482812582E+02 -0.49833758749E+02  0.53713908778E+03  0.53964020883E+03  0.00000000000E+00 0.  1.
<scales pt_clust_3="14000.00000" pt_clust_4="122.36908" pt_clust_5="59.02490" pt_clust_6="51.89562"></scales>
<clustering>
<clus scale="   51.896">  1  6  2 -1</clus>
<clus scale="   59.025">  1  5  2 -1</clus>
<clus scale="  122.369">  2  4  1 -1</clus>
<clus scale="   51.896">  1  3  2 -1</clus>
</clustering>
</event>
<event>
 6    0  0.1438923E+002  0.1700668E+03  0.7546771E-02  0.1177778E+00
         21   -1    0    0  504  501  0.00000000000E+00  0.00000000000E+00  0.53156996994E+03  0.53156996994E+03  0.00000000000E+00 0.  1.
         21   -1    0    0  506  502 -0.00000000000E+00 -0.00000000000E+00 -0.10132590666E+03  0.10132590666E+03  0.00000000000E+00 0.  1.
         21    1    1    2  503  502 -0.23690481857E+02 -0.19045121739E+02 -0.19779859560E+02  0.36265664710E+02  0.00000000000E+00 0.  1.
         21    1    1    2  504  503 -0.38003657630E+02  0.18327620007E+03  0.16245040745E+03  0.24783982405E+03  0.00000000000E+00 0.  1.
         21    1    1    2  505  501 -0.20869485678E+02 -0.29708545814E+02  0.81450353609E+02  0.89175631368E+02  0.00000000000E+00 0. -1.
         21    1    1    2  506  505  0.82563625165E+02 -0.13452253252E+03  0.20612316178E+03  0.25961475647E+03  0.00000000000E+00 0.  1.
<scales pt_clust_3="30.39664" pt_clust_4="170.06683" pt_clust_5="37.84749" pt_clust_6="14000.00000"></scales>
<clustering>
<clus scale="   30.397">  2  3  1 -1</clus>
<clus scale="   37.847">  1  5  2 -1</clus>
<clus scale="  170.067">  2  4  1 -1</clus>
<clus scale="   37.847">  1  3  2 -1</clus>
</clustering>
</event>
<event>
 6    0  0.1438923E+002  0.7689783E+02  0.7546771E-02  0.1338093E+00
         21   -1    0    0  506  501  0.00000000000E+00  0.00000000000E+00  0.67136316827E+02  0.67136316827E+02  0.00000000000E+00 0.  1.
         21   -1    0    0  503  502 -0.00000000000E+00 -0.00000000000E+00 -0.30279922909E+03  0.30279922909E+03  0.00000000000E+00 0.  1.
         21    1    1    2  503  504 -0.32301798480E+02 -0.54872866825E+02 -0.10353523934E+03  0.12154827635E+03  0.00000000000E+00 0.  1.
         21    1    1    2  504  501 -0.35791693098E+02  0.68077334484E+01 -0.29930079921E+02  0.47150824103E+02  0.00000000000E+00 0.  1.
         21    1    1    2  505  502  0.92794793948E+02  0.79656420213E+02 -0.10479175444E+03  0.16105070898E+03  0.00000000000E+00 0.  1.
         21    1    1    2  506  505 -0.24701302371E+02 -0.31591286837E+02  0.25941614418E+01  0.40185736479E+02  0.00000000000E+00 0.  1.
<scales pt_clust_3="14000.00000" pt_clust_4="36.43337" pt_clust_5="76.89783" pt_clust_6="47.69177"></scales>
<clustering>
<clus scale="   36.433">  1  4  2 -1</clus>
<clus scale="   47.692">  1  6  2 -1</clus>
<clus scale="   76.898">  1  5  2 -1</clus>
<clus scale="   36.433">  1  3  2 -1</clus>
</clustering>
</event>
<event>
 6    0  0.1438923E+002  0.1304276E+03  0.7546771E-02  0.1226823E+00
         21   -1    0    0  504  501  0.00000000000E+00  0.00000000000E+00  0.13635658405E+04  0.13635658405E+04  0.00000000000E+00 0.  1.
         21   -1    0    0  503  502 -0.00000000000E+00 -0.00000000000E+00 -0.93226381343E+02  0.93226381343E+02  0.00000000000E+00 0.  1.
         21    1    1    2  503  506  0.37867753611E+02  0.60536691005E+01  0.12000697127E+03  0.12598526433E+03  0.00000000000E+00 0. -1.
         21    1    1    2  504  502 -0.12515027223E+03  0.40600479022E+02 -0.38118000072E+02  0.13698164645E+03  0.00000000000E+00 0.  1.
         21    1    1    2  505  501  0.47049052709E+02 -0.27569469002E+02  0.92757309005E+03  0.92917464794E+03  0.00000000000E+00 0.  1.
         21    1    1    2  506  505  0.40233465907E+02 -0.19084679121E+02  0.26087739790E+03  0.26465066312E+03  0.00000000000E+00 0.  1.
<scales pt_clust_3="32.86100" pt_clust_4="125.52863" pt_clust_5="54.53154" pt_clust_6="32.86100"></scales>
<clustering>
<clus scale="   32.861">  3  6 -1 -1</clus>
<clus scale="   54.532">  1  5  2 -1</clus>
<clus scale="  125.529">  2  4  1 -1</clus>
<clus scale="   54.532">  1  3  2 -1</clus>
</clustering>
</event>
<event>
 6    0  0.1438923E+002  0.8784475E+02  0.7546771E-02  0.1308156E+00
         21   -1    0    0  506  501  0.00000000000E+00  0.00000000000E+00  0.87025454741E+03  0.87025454741E+03  0.00000000000E+00 0.  1.
         21   -1    0    0  503  502 -0.00000000000E+00 -0.00000000000E+00 -0.64684626415E+02  0.64684626415E+02  0.00000000000E+00 0.  1.
         21    1    1    2  503  504  0.33292590279E+02 -0.76696541490E+02 -0.14855231265E+02  0.84920162152E+02  0.00000000000E+00 0.  1.
         21    1    1    2  504  505 -0.13877799737E+02 -0.34104928019E+02  0.17853399575E+03  0.18229132475E+03  0.00000000000E+00 0.  1.
         21    1    1    2  505  501  0.28850226256E+02 -0.93584832392E+01  0.30983681853E+03  0.31131779724E+03  0.00000000000E+00 0.  1.
         21    1    1    2  506  502 -0.48265016797E+02  0.12015995275E+03  0.33205433798E+03  0.35640988968E+03  0.00000000000E+00 0.  1.
<scales pt_clust_3="14000.00000" pt_clust_4="37.40286" pt_clust_5="30.33013" pt_clust_6="87.84475"></scales>
<clustering>
<clus scale="   30.330">  1  5  2 -1</clus>
<clus scale="   37.403">  1  4  2 -1</clus>
<clus scale="   87.845">  1  6  2 -1</clus>
<clus scale="   30.330">  1  3  2 -1</clus>
</clustering>
</event>
<event>
 6    0  0.1438923E+002  0.2248284E+03  0.7546771E-02  0.1130334E+00
         21   -1    0    0  506  501  0.00000000000E+00  0.00000000000E+00  0.73870649351E+03  0.73870649351E+03  0.00000000000E+00 0.  1.
         21   -1    0    0  504  502 -0.00000000000E+00 -0.00000000000E+00 -0.16370598834E+03  0.16370598834E+03  0.00000000000E+00 0.  1.
         21    1    1    2  503  501  0.19363436188E+03 -0.14748195090E+03  0.55487923947E+03  0.60591762009E+03  0.00000000000E+00 0.  1.
         21    1    1    2  504  503 -0.99671764893E+02  0.73080452163E+02  0.86644758608E+02  0.15093882005E+03  0.00000000000E+00 0.  1.
         21    1    1    2  505  502 -0.83668966267E+02  0.39363669112E+02 -0.53229952559E+02  0.10669312167E+03  0.00000000000E+00 0.  1.
         21    1    1    2  506  505 -0.10293630722E+02  0.35037829630E+02 -0.13293540347E+02  0.38862920034E+02  0.00000000000E+00 0.  1.
<scales pt_clust_3="219.43380" pt_clust_4="123.59293" pt_clust_5="30.76567" pt_clust_6="30.76567"></scales>
<clustering>
<clus scale="   30.766">  5  6 -1 -1</clus>
<clus scale="  123.593">  2  4  1 -1</clus>
<clus scale="  219.434">  1  3  2 -1</clus>
<clus scale="  219.434">  1  3  2 -1</clus>
</clustering>
</event>
<event>
 6    0  0.1438923E+002  0.1359142E+03  0.7546771E-02  0.1218935E+00
         21   -1    0    0  506  501  0.00000000000E+00  0.00000000000E+00  0.17296858483E+04  0.17296858483E+04  0.00000000000E+00 0.  1.
         21   -1    0    0  504  502 -0.00000000000E+00 -0.00000000000E+00 -0.67295195433E+03  0.67295195433E+03  0.00000000000E+00 0.  1.
         21    1    1    2  503  505 -0.94742997751E+02 -0.85038035167E+02  0.55774531892E+03  0.57209050318E+03  0.00000000000E+00 0.  1.
         21    1    1    2  504  501  0.63801409968E+00 -0.41004512752E+02  0.90471154280E+03  0.90564052074E+03  0.00000000000E+00 0.  1.
         21    1    1    2  505  502  0.10574442770E+03  0.85558252351E+02 -0.65658804657E+03  0.67052961265E+03  0.00000000000E+00 0.  1.
         21    1    1    2  506  503 -0.11639444045E+02  0.40484295568E+02  0.25086507884E+03  0.25437716609E+03  0.00000000000E+00 0. -1.
<scales pt_clust_3="135.91421" pt_clust_4="41.00948" pt_clust_5="14000.00000" pt_clust_6="30.17521"></scales>
<clustering>
<clus scale="   41.009">  1  4  2 -1</clus>
<clus scale="   30.175">  1  6  2 -1</clus>
<clus scale="  135.914">  1  3  2 -1</clus>
<clus scale="   41.009">  1  3  2 -1</clus>
</clustering>
</event>
<event>
 6    0  0.1438923E+002  0.2525450E+03  0.7546771E-02  0.1111707E+00
         21   -1    0    0  506  501  0.00000000000E+00  0.00000000000E+00  0.83517338246E+02  0.83517338246E+02  0.00000000000E+00 0.  1.
         21   -1    0    0  504  502 -0.00000000000E+00 -0.00000000000E+00 -0.11884905492E+04  0.11884905492E+04  0.00000000000E+00 0. -1.
         21    1    1    2  503  502  0.13833953711E+03 -0.52339136762E+02 -0.30967669024E+03  0.34318634186E+03  0.00000000000E+00 0. -1.
         21    1    1    2  504  501 -0.22428069334E+02  0.23569089764E+02 -0.20550823346E+03  0.20806766762E+03  0.00000000000E+00 0. -1.
         21    1    1    2  505  503  0.11613461346E+03 -0.21733522458E+02 -0.39901068401E+03  0.41613593980E+03  0.00000000000E+00 0. -1.
         21    1    1    2  506  505 -0.23204608124E+03  0.50503569455E+02 -0.19077760322E+03  0.30461793814E+03  0.00000000000E+00 0.  1.
<scales pt_clust_3="56.38405" pt_clust_4="32.53491" pt_clust_5="56.38405" pt_clust_6="244.31602"></scales>
<clustering>
<clus scale="   32.535">  2  4  1 -1</clus>
<clus scale="   56.384">  3  5 -1 -1</clus>
<clus scale="  244.316">  1  6  2 -1</clus>
<clus scale="  244.316">  1  3  2 -1</clus>
</clustering>
</event>
<event>
 6    0  0.1438923E+002  0.1959801E+03  0.7546771E-02  0.1153176E+00
         21   -1    0    0  506  501  0.00000000000E+00  0.00000000000E+00  0.80900225317E+02  0.80900225317E+02  0.00000000000E+00 0. -1.
         21   -1    0    0  503  502 -0.00000000000E+00 -0.00000000000E+00 -0.56692822962E+03  0.56692822962E+03  0.00000000000E+00 0. -1.
         21    1    1    2  503  501  0.25299375024E+02 -0.16438127077E+02 -0.82415746435E+02  0.87764603679E+02  0.00000000000E+00 0. -1.
         21    1    1    2  504  505 -0.10709367469E+03 -0.16215492725E+02 -0.11482067228E+03  0.15784734444E+03  0.00000000000E+00 0. -1.
         21    1    1    2  505  502  0.16314952487E+03  0.82189872309E+02 -0.21211602626E+03  0.27993954914E+03  0.00000000000E+00 0. -1.
         21    1    1    2  506  504 -0.81355225209E+02 -0.49536252507E+02 -0.76675559323E+02  0.12227695768E+03  0.00000000000E+00 0. -1.
<scales pt_clust_3="30.17069" pt_clust_4="42.21935" pt_clust_5="190.90750" pt_clust_6="42.21935"></scales>
<clustering>
<clus scale="   30.171">  2  3  1 -1</clus>
<clus scale="   42.219">  4  6 -1 -1</clus>
<clus scale="  190.908">  2  5  1 -1</clus>
<clus scale="  195.980">  1  3  2 -1</clus>
</clustering>
</event>
<event>
 6    0  0.1438923E+002  0.1022613E+03  0.7546771E-02  0.1275611E+00
         21   -1    0    0  505  501  0.00000000000E+00  0.00000000000E+00  0.66812407487E+03  0.66812407487E+03  0.00000000000E+00 0.  1.
         21   -1    0    0  506  502 -0.00000000000E+00 -0.00000000000E+00 -0.15086197374E+03  0.15086197374E+03  0.00000000000E+00 0.  1.
         21    1    1    2  503  501 -0.78587780297E+02 -0.10971767998E+03  0.15382209909E+03  0.20463442204E+03  0.00000000000E+00 0.  1.
         21    1    1    2  504  502  0.21419162655E+02  0.34183422542E+02  0.12660488951E+03  0.13287620161E+03  0.00000000000E+00 0.  1.
         21    1    1    2  505  504  0.37115106841E+02  0.29144409577E+02  0.35229373321E+03  0.35544029348E+03  0.00000000000E+00 0.  1.
         21    1    1    2  506  503  0.20053510801E+02  0.46389847866E+02 -0.11545862068E+03  0.12603513149E+03  0.00000000000E+00 0.  1.
<scales pt_clust_3="93.72800" pt_clust_4="37.81063" pt_clust_5="37.81063" pt_clust_6="50.53871"></scales>
<clustering>
<clus scale="   37.811">  4  5 -1 -1</clus>
<clus scale="   50.539">  2  6  1 -1</clus>
<clus scale="   93.728">  2  3  1 -1</clus>
<clus scale="  102.261">  1  3  2 -1</clus>
</clustering>
</event>
<event>
 6    0  0.1438923E+002  0.6637492E+02  0.7546771E-02  0.1372873E+00
         21   -1    0    0  505  501  0.00000000000E+00  0.00000000000E+00  0.75103742369E+02  0.75103742369E+02  0.00000000000E+00 0.  1.
         21   -1    0    0  506  502 -0.00000000000E+00 -0.00000000000E+00 -0.19747831661E+04  0.19747831661E+04  0.00000000000E+00 0. -1.
         21    1    1    2  503  504 -0.66703995420E+02  0.24786440022E+02 -0.22957458680E+03  0.24035033081E+03  0.00000000000E+00 0. -1.
         21    1    1    2  504  501  0.79012081791E+02  0.81080820528E+02  0.94141819230E+01  0.11360297244E+03  0.00000000000E+00 0.  1.
         21    1    1    2  505  502 -0.20635431026E+02 -0.45116838822E+02 -0.73105616884E+02  0.88350333213E+02  0.00000000000E+00 0.  1.
         21    1    1    2  506  503  0.83273446545E+01 -0.60750421728E+02 -0.16064134020E+04  0.16075832721E+04  0.00000000000E+00 0. -1.
<scales pt_clust_3="14000.00000" pt_clust_4="66.37492" pt_clust_5="49.61200" pt_clust_6="61.68209"></scales>
<clustering>
<clus scale="   49.612">  1  5  2 -1</clus>
<clus scale="   61.682">  2  6  1 -1</clus>
<clus scale="   66.375">  1  4  2 -1</clus>
<clus scale="   49.612">  1  3  2 -1</clus>
</clustering>
</event>
<event>
 6    0  0.1438923E+002  0.1358034E+03  0.7546771E-02  0.1219090E+00
         21   -1    0    0  503  501  0.00000000000E+00  0.00000000000E+00  0.15526875569E+03  0.15526875569E+03  0.00000000000E+00 0.  1.
         21   -1    0    0  504  502 -0.00000000000E+00 -0.00000000000E+00 -0.18985524234E+04  0.18985524234E+04  0.00000000000E+00 0.  1.
         21    1    1    2  503  502  0.11227730767E+03 -0.78166854566E+02  0.73593127359E+02  0.15534541952E+03  0.00000000000E+00 0.  1.
         21    1    1    2  504  505 -0.57255157780E+02  0.25707218156E+02 -0.16551955345E+04  0.16563850010E+04  0.00000000000E+00 0.  1.
         21    1    1    2  505  506 -0.99014339452E+02  0.12487594526E+02 -0.15204932618E+03  0.18187571862E+03  0.00000000000E+00 0.  1.
         21    1    1    2  506  501  0.43992189559E+02  0.39972041883E+02 -0.96319344083E+01  0.60215039940E+02  0.00000000000E+00 0. -1.
<scales pt_clust_3="135.80344" pt_clust_4="62.65334" pt_clust_5="14000.00000" pt_clust_6="59.43969"></scales>
<clustering>
<clus scale="   59.440">  1  6  2 -1</clus>
<clus scale="   62.653">  2  4  1 -1</clus>
<clus scale="  135.803">  1  3  2 -1</clus>
<clus scale="   59.440">  1  3  2 -1</clus>
</clustering>
</event>
<event>
 6    0  0.1438923E+002  0.1013636E+03  0.7546771E-02  0.1277454E+00
         21   -1    0    0  504  501  0.00000000000E+00  0.00000000000E+00  0.72843685523E+03  0.72843685523E+03  0.00000000000E+00 0. -1.
         21   -1    0    0  506  502 -0.00000000000E+00 -0.00000000000E+00 -0.39223106825E+03  0.39223106825E+03  0.00000000000E+00 0. -1.
         21    1    1    2  503  502  0.10161383527E+03  0.36726650364E+01 -0.36423820165E+03  0.37816441864E+03  0.00000000000E+00 0. -1.
         21    1    1    2  504  503 -0.88530903399E+02 -0.75020254421E+02  0.18926526199E+03  0.22200697923E+03  0.00000000000E+00 0. -1.
         21    1    1    2  505  501 -0.16488393922E+02  0.28424256883E+02  0.39879540717E+03  0.40014695087E+03  0.00000000000E+00 0. -1.
         21    1    1    2  506  505  0.34054620555E+01  0.42923332501E+02  0.11238331947E+03  0.12034957474E+03  0.00000000000E+00 0.  1.
<scales pt_clust_3="14000.00000" pt_clust_4="101.36364" pt_clust_5="32.86039" pt_clust_6="53.03353"></scales>
<clustering>
<clus scale="   32.860">  1  5  2 -1</clus>
<clus scale="   53.034">  1  6  2 -1</clus>
<clus scale="  101.364">  1  4  2 -1</clus>
<clus scale="   32.860">  1  3  2 -1</clus>
</clustering>
</event>
<event>
 6    0  0.1438923E+002  0.1094317E+04  0.7546771E-02  0.9210748E-01
         21   -1    0    0  505  501  0.00000000000E+00  0.00000000000E+00  0.21579160591E+04  0.21579160591E+04  0.00000000000E+00 0. -1.
         21   -1    0    0  503  502 -0.00000000000E+00 -0.00000000000E+00 -0.14472288627E+04  0.14472288627E+04  0.00000000000E+00 0. -1.
         21    1    1    2  503  504  0.15750379502E+02  0.49297839699E+03 -0.95378060833E+02  0.50236714546E+03  0.00000000000E+00 0. -1.
         21    1    1    2  504  506 -0.51359007081E+03  0.72986338942E+03  0.11625936087E+04  0.14656395283E+04  0.00000000000E+00 0. -1.
         21    1    1    2  505  502  0.57524167443E+03 -0.13165494307E+04 -0.42417270639E+03  0.14980413453E+04  0.00000000000E+00 0. -1.
         21    1    1    2  506  501 -0.77401983126E+02  0.93707644304E+02  0.67644354909E+02  0.13909690271E+03  0.00000000000E+00 0. -1.
<scales pt_clust_3="493.22994" pt_clust_4="68.19943" pt_clust_5="1078.59995" pt_clust_6="68.19943"></scales>
<clustering>
<clus scale="   68.199">  4  6 -1 -1</clus>
<clus scale="  493.230">  2  3  1 -1</clus>
<clus scale=" 1078.600">  2  5  1 -1</clus>
<clus scale=" 1094.317">  1  3  2 -1</clus>
</clustering>
</event>
<event>
 6    0  0.1438923E+002  0.7768986E+02  0.7546771E-02  0.1335738E+00
         21   -1    0    0  505  501  0.00000000000E+00  0.00000000000E+00  0.30507208181E+03  0.30507208181E+03  0.00000000000E+00 0. -1.
         21   -1    0    0  506  502 -0.00000000000E+00 -0.00000000000E+00 -0.10508324599E+03  0.10508324599E+03  0.00000000000E+00 0.  1.
         21    1    1    2  503  502  0.39109073947E+02  0.30846418790E+02 -0.32724681456E+02  0.59598036826E+02  0.00000000000E+00 0.  1.
         21    1    1    2  504  501 -0.25905766316E+02  0.63558268620E+02  0.13652838373E+03  0.15280956057E+03  0.00000000000E+00 0. -1.
         21    1    1    2  505  503 -0.20677626994E+02 -0.13228027872E+03  0.79316134369E+02  0.15561711207E+03  0.00000000000E+00 0. -1.
         21    1    1    2  506  504  0.74743193628E+01  0.37875591314E+02  0.16868999171E+02  0.42130618324E+02  0.00000000000E+00 0. -1.
<scales pt_clust_3="65.65953" pt_clust_4="77.68986" pt_clust_5="14000.00000" pt_clust_6="38.60603"></scales>
<clustering>
<clus scale="   38.606">  2  6  1 -1</clus>
<clus scale="   65.660">  2  3  1 -1</clus>
<clus scale="   77.690">  1  4  2 -1</clus>
<clus scale="   77.690">  1  3  2 -1</clus>
</clustering>
</event>
<event>
 6    0  0.1713735E+002  0.1394766E+03  0.7546771E-02  0.1214035E+00
         21   -1    0    0  504  501  0.00000000000E+00  0.00000000000E+00  0.84001033762E+03  0.84001033762E+03  0.00000000000E+00 0.  1.
         21   -1    0    0  501  502 -0.00000000000E+00 -0.00000000000E+00 -0.59380655858E+03  0.59380655858E+03  0.00000000000E+00 0. -1.
         21    1    1    2  503  505  0.52630459820E+02 -0.26828017941E+02  0.21030111215E+03  0.21844053109E+03  0.00000000000E+00 0.  1.
         21    1    1    2  504  503  0.70778162139E+02 -0.18307532218E+02  0.58345708658E+03  0.58801946044E+03  0.00000000000E+00 0.  1.
         21    1    1    2  505  506 -0.97770746995E+02  0.94792280941E+01 -0.22894213040E+02  0.10086188440E+03  0.00000000000E+00 0. -1.
         21    1    1    2  506  502 -0.25637874963E+02  0.35656322066E+02 -0.52466020665E+03  0.52649502028E+03  0.00000000000E+00 0. -1.
<scales pt_clust_3="49.10922" pt_clust_4="49.10922" pt_clust_5="128.04295" pt_clust_6="43.91667"></scales>
<clustering>
<clus scale="   43.917">  2  6  1 -1</clus>
<clus scale="   49.109">  3  4 -1 -1</clus>
<clus scale="  128.043">  2  5  1 -1</clus>
<clus scale="  139.477">  1  3  2 -1</clus>
</clustering>
</event>
<event>
 6    0  0.1438923E+002  0.1027176E+03  0.7546771E-02  0.1274683E+00
         21   -1    0    0  506  501  0.00000000000E+00  0.00000000000E+00  0.17583255338E+03  0.17583255338E+03  0.00000000000E+00 0.  1.
         21   -1    0    0  503  502 -0.00000000000E+00 -0.00000000000E+00 -0.18582835085E+04  0.18582835085E+04  0.00000000000E+00 0.  1.
         21    1    1    2  503  501 -0.13516917711E+02 -0.11252441432E+03 -0.10924707037E+03  0.15741465391E+03  0.00000000000E+00 0.  1.
         21    1    1    2  504  502 -0.91780234903E+01 -0.45419551918E+02 -0.16736919446E+04  0.16743332695E+04  0.00000000000E+00 0.  1.
         21    1    1    2  505  504  0.22064045693E+02  0.56824593123E+02  0.16706634220E+01  0.60980715084E+02  0.00000000000E+00 0.  1.
         21    1    1    2  506  505  0.63089550858E+00  0.10111937312E+03  0.98817396462E+02  0.14138742339E+03  0.00000000000E+00 0.  1.
<scales pt_clust_3="14000.00000" pt_clust_4="46.33759" pt_clust_5="53.62439" pt_clust_6="102.71759"></scales>
<clustering>
<clus scale="   46.338">  2  4  1 -1</clus>
<clus scale="   53.624">  2  5  1 -1</clus>
<clus scale="  102.718">  1  6  2 -1</clus>
<clus scale="  102.718">  1  3  2 -1</clus>
</clustering>
</event>
<event>
 6    0  0.1438923E+002  0.2274162E+03  0.7546771E-02  0.1128472E+00
         21   -1    0    0  505  501  0.00000000000E+00  0.00000000000E+00  0.13231910230E+04  0.13231910230E+04  0.00000000000E+00 0.  1.
         21   -1    0    0  504  502 -0.00000000000E+00 -0.00000000000E+00 -0.70249177422E+02  0.70249177422E+02  0.00000000000E+00 0.  1.
         21    1    1    2  503  506  0.57683327535E+02  0.98572619110E+02  0.53670275707E+03  0.54872012626E+03  0.00000000000E+00 0.  1.
         21    1    1    2  504  503  0.55900023062E+02  0.29477421004E+02  0.44229812053E+03  0.44679006071E+03  0.00000000000E+00 0.  1.
         21    1    1    2  505  502 -0.10202439313E+03 -0.17095749593E+03  0.10872091469E+03  0.22683844361E+03  0.00000000000E+00 0.  1.
         21    1    1    2  506  501 -0.11558957468E+02  0.42907455816E+02  0.16522005332E+03  0.17109156987E+03  0.00000000000E+00 0. -1.
<scales pt_clust_3="54.26699" pt_clust_4="54.26699" pt_clust_5="199.08652" pt_clust_6="35.77376"></scales>
<clustering>
<clus scale="   35.774">  3  6 -1 -1</clus>
<clus scale="   54.267">  3  4 -1 -1</clus>
<clus scale="  199.087">  2  5  1 -1</clus>
<clus scale="  227.416">  1  3  2 -1</clus>
</clustering>
</event>
<event>
 6    0  0.1438923E+002  0.1627906E+03  0.7546771E-02  0.1185582E+00
         21   -1    0    0  503  501  0.00000000000E+00  0.00000000000E+00  0.15191793172E+03  0.15191793172E+03  0.00000000000E+00 0. -1.
         21   -1    0    0  504  502 -0.00000000000E+00 -0.00000000000E+00 -0.28019987056E+03  0.28019987056E+03  0.00000000000E+00 0. -1.
         21    1    1    2  503  502  0.30449521349E+02 -0.15445705220E+03 -0.97575221254E+02  0.18521630092E+03  0.00000000000E+00 0. -1.
         21    1    1    2  504  506  0.25685267273E+02  0.95025255775E+02 -0.38843283667E+02  0.10582217573E+03  0.00000000000E+00 0.  1.
         21    1    1    2  505  501 -0.67810995902E+02 -0.11549458631E+02  0.69096127486E+01  0.69133666966E+02  0.00000000000E+00 0. -1.
         21    1    1    2  506  505  0.11676207279E+02  0.70981255056E+02  0.12269533313E+01  0.71945658661E+02  0.00000000000E+00 0. -1.
<scales pt_clust_3="158.96040" pt_clust_4="30.01001" pt_clust_5="68.78751" pt_clust_6="30.01001"></scales>
<clustering>
<clus scale="   30.010">  4  6 -1 -1</clus>
<clus scale="   68.788">  1  5  2 -1</clus>
<clus scale="  158.960">  2  3  1 -1</clus>
<clus scale="   68.788">  1  3  2 -1</clus>
</clustering>
</event>
<event>
 6    0  0.1438923E+002  0.1955770E+03  0.7546771E-02  0.1153525E+00
         21   -1    0    0  504  501  0.00000000000E+00  0.00000000000E+00  0.17200237626E+04  0.17200237626E+04  0.00000000000E+00 0.  1.
         21   -1    0    0  506  502 -0.00000000000E+00 -0.00000000000E+00 -0.56218598149E+02  0.56218598149E+02  0.00000000000E+00 0. -1.
         21    1    1    2  503  501  0.17874060158E+03 -0.64938131776E+02  0.13868147640E+04  0.13997929680E+04  0.00000000000E+00 0.  1.
         21    1    1    2  504  502 -0.22641078028E+02  0.59397309032E+02  0.15710198118E+03  0.16947475099E+03  0.00000000000E+00 0.  1.
         21    1    1    2  505  503 -0.46252324826E+02  0.20158072640E+01  0.75251252732E+02  0.88352091478E+02  0.00000000000E+00 0.  1.
         21    1    1    2  506  505 -0.10984719872E+03  0.35250154802E+01  0.44637166567E+02  0.11862255030E+03  0.00000000000E+00 0. -1.
<scales pt_clust_3="184.88605" pt_clust_4="63.56618" pt_clust_5="41.39337" pt_clust_6="41.39337"></scales>
<clustering>
<clus scale="   41.393">  5  6 -1 -1</clus>
<clus scale="   63.566">  2  4  1 -1</clus>
<clus scale="  184.886">  1  3  2 -1</clus>
<clus scale="  184.886">  1  3  2 -1</clus>
</clustering>
</event>
<event>
 6    0  0.1438923E+002  0.1227547E+03  0.7546771E-02  0.1238621E+00
         21   -1    0    0  506  501  0.00000000000E+00  0.00000000000E+00  0.55801463953E+03  0.55801463953E+03  0.00000000000E+00 0.  1.
         21   -1    0    0  505  502 -0.00000000000E+00 -0.00000000000E+00 -0.23577975176E+03  0.23577975176E+03  0.00000000000E+00 0.  1.
         21    1    1    2  503  502 -0.41517016404E+02 -0.16035887493E+02 -0.14566613308E+03  0.15231360630E+03  0.00000000000E+00 0.  1.
         21    1    1    2  504  501  0.32604661070E+02 -0.25290633289E+02  0.12722257787E+03  0.13374701632E+03  0.00000000000E+00 0.  1.
         21    1    1    2  505  504  0.84432047843E+02  0.84269909705E+02  0.38999859560E+03  0.40783463923E+03  0.00000000000E+00 0.  1.
         21    1    1    2  506  503 -0.75519692510E+02 -0.42943388924E+02 -0.49320152623E+02  0.99899129444E+02  0.00000000000E+00 0.  1.
<scales pt_clust_3="44.34156" pt_clust_4="41.26354" pt_clust_5="14000.00000" pt_clust_6="122.75469"></scales>
<clustering>
<clus scale="   41.264">  1  4  2 -1</clus>
<clus scale="   44.342">  2  3  1 -1</clus>
<clus scale="  122.755">  2  6  1 -1</clus>
<clus scale="   41.264">  1  3  2 -1</clus>
</clustering>
</event>
<event>
 6    0  0.1438923E+002  0.1100873E+03  0.7546771E-02  0.1260408E+00
         21   -1    0    0  506  501  0.00000000000E+00  0.00000000000E+00  0.21888201965E+03  0.21888201965E+03  0.00000000000E+00 0.  1.
         21   -1    0    0  504  502 -0.00000000000E+00 -0.00000000000E+00 -0.17036236312E+03  0.17036236312E+03  0.00000000000E+00 0.  1.
         21    1    1    2  503  501 -0.29253618753E+02 -0.39621797306E+02  0.91367731005E+02  0.10379654763E+03  0.00000000000E+00 0.  1.
         21    1    1    2  504  505  0.55544257877E+02  0.92017143209E+02 -0.11067828303E+03  0.15427897317E+03  0.00000000000E+00 0.  1.
         21    1    1    2  505  503 -0.55395867572E+02 -0.19729880859E+02  0.64513447930E+02  0.87292355373E+02  0.00000000000E+00 0. -1.
         21    1    1    2  506  502  0.29105228448E+02 -0.32665465044E+02  0.33167606248E+01  0.43876506591E+02  0.00000000000E+00 0.  1.
<scales pt_clust_3="35.77218" pt_clust_4="102.91421" pt_clust_5="35.77218" pt_clust_6="43.75096"></scales>
<clustering>
<clus scale="   35.772">  3  5 -1 -1</clus>
<clus scale="   43.751">  2  6  1 -1</clus>
<clus scale="  102.914">  2  4  1 -1</clus>
<clus scale="  110.087">  1  3  2 -1</clus>
</clustering>
</event>
<event>
 6    0  0.1438923E+002  0.1657724E+03  0.7546771E-02  0.1182330E+00
         21   -1    0    0  505  501  0.00000000000E+00  0.00000000000E+00  0.37993458758E+02  0.37993458758E+02  0.00000000000E+00 0. -1.
         21   -1    0    0  503  502 -0.00000000000E+00 -0.00000000000E+00 -0.16850414764E+04  0.16850414764E+04  0.00000000000E+00 0. -1.
         21    1    1    2  503  506  0.26841790096E+02 -0.32072968707E+02 -0.43959536701E+02  0.60676172294E+02  0.00000000000E+00 0. -1.
         21    1    1    2  504  501 -0.26423263200E+02 -0.47435836263E+02 -0.35015390246E+02  0.64609789926E+02  0.00000000000E+00 0.  1.
         21    1    1    2  505  502  0.72478851879E+01  0.14534253648E+03 -0.14819358412E+04  0.14890637401E+04  0.00000000000E+00 0. -1.
         21    1    1    2  506  504 -0.76664120839E+01 -0.65833731509E+02 -0.86137249481E+02  0.10868523279E+03  0.00000000000E+00 0. -1.
<scales pt_clust_3="39.87341" pt_clust_4="33.39283" pt_clust_5="145.52314" pt_clust_6="39.87341"></scales>
<clustering>
<clus scale="   33.393">  4  6 -1 -1</clus>
<clus scale="   39.873">  3  4 -1 -1</clus>
<clus scale="  145.523">  2  5  1 -1</clus>
<clus scale="  165.772">  1  3  2 -1</clus>
</clustering>
</event>
<event>
 6    0  0.1438923E+002  0.1463752E+03  0.7546771E-02  0.1204999E+00
         21   -1    0    0  506  501  0.00000000000E+00  0.00000000000E+00  0.46441928418E+03  0.46441928418E+03  0.00000000000E+00 0. -1.
         21   -1    0    0  505  502 -0.00000000000E+00 -0.00000000000E+00 -0.13549504586E+03  0.13549504586E+03  0.00000000000E+00 0. -1.
         21    1    1    2  503  504  0.11976208173E+03 -0.29636783237E+02  0.10025020741E+03  0.15896980603E+03  0.00000000000E+00 0. -1.
         21    1    1    2  504  502 -0.16678397135E+03 -0.82212036498E+02  0.54620347384E+02  0.19380168831E+03  0.00000000000E+00 0. -1.
         21    1    1    2  505  501  0.17763632432E+02  0.12389823054E+03  0.81577121743E+02  0.14940262702E+03  0.00000000000E+00 0. -1.
         21    1    1    2  506  503  0.29258257182E+02 -0.12049410807E+02  0.92476561784E+02  0.97740208683E+02  0.00000000000E+00 0. -1.
<scales pt_clust_3="146.37523" pt_clust_4="14000.00000" pt_clust_5="123.10799" pt_clust_6="31.64228"></scales>
<clustering>
<clus scale="   31.642">  1  6  2 -1</clus>
<clus scale="  123.108">  1  5  2 -1</clus>
<clus scale="  146.375">  1  3  2 -1</clus>
<clus scale="   31.642">  1  3  2 -1</clus>
</clustering>
</event>
<event>
 6    0  0.1438923E+002  0.1292195E+03  0.7546771E-02  0.1228618E+00
         21   -1    0    0  506  501  0.00000000000E+00  0.00000000000E+00  0.93987870553E+02  0.93987870553E+02  0.00000000000E+00 0. -1.
         21   -1    0    0  505  502 -0.00000000000E+00 -0.00000000000E+00 -0.57124246404E+03  0.57124246404E+03  0.00000000000E+00 0.  1.
         21    1    1    2  503  502 -0.52303174619E+01 -0.17793692726E+03 -0.29068528862E+03  0.34086191240E+03  0.00000000000E+00 0.  1.
         21    1    1    2  504  501 -0.46438048492E+01  0.91747714874E+02 -0.55524620866E+02  0.10734147209E+03  0.00000000000E+00 0. -1.
         21    1    1    2  505  504 -0.23788429600E+02  0.40535517382E+02 -0.15002371272E+03  0.15721365058E+03  0.00000000000E+00 0.  1.
         21    1    1    2  506  503  0.33662551911E+02  0.45653695001E+02  0.18979028719E+02  0.59813299521E+02  0.00000000000E+00 0. -1.
<scales pt_clust_3="129.21952" pt_clust_4="14000.00000" pt_clust_5="47.00019" pt_clust_6="57.66590"></scales>
<clustering>
<clus scale="   47.000">  2  5  1 -1</clus>
<clus scale="   57.666">  1  6  2 -1</clus>
<clus scale="  129.220">  2  3  1 -1</clus>
<clus scale="   57.666">  1  3  2 -1</clus>
</clustering>
</event>
<event>
 6    0  0.1438923E+002  0.1408523E+03  0.7546771E-02  0.1212187E+00
         21   -1    0    0  505  501  0.00000000000E+00  0.00000000000E+00  0.23321484185E+04  0.23321484185E+04  0.00000000000E+00 0. -1.
         21   -1    0    0  506  502 -0.00000000000E+00 -0.00000000000E+00 -0.29824504966E+03  0.29824504966E+03  0.00000000000E+00 0. -1.
         21    1    1    2  503  504 -0.47012853094E+02  0.23647924456E+02  0.24074523456E+02  0.57870677953E+02  0.00000000000E+00 0. -1.
         21    1    1    2  504  501  0.12008942413E+03 -0.48897761719E+02  0.22407490305E+04  0.22444974223E+04  0.00000000000E+00 0. -1.
         21    1    1    2  505  502  0.37606229954E+02 -0.13866522889E+01 -0.20866046586E+03  0.21202674678E+03  0.00000000000E+00 0. -1.
         21    1    1    2  506  503 -0.11068280099E+03  0.26636489551E+02 -0.22259719258E+02  0.11599862116E+03  0.00000000000E+00 0. -1.
<scales pt_clust_3="36.17423" pt_clust_4="130.41694" pt_clust_5="37.63179" pt_clust_6="36.17423"></scales>
<clustering>
<clus scale="   36.174">  3  6 -1 -1</clus>
<clus scale="   37.632">  2  5  1 -1</clus>
<clus scale="  130.417">  1  4  2 -1</clus>
<clus scale="  130.417">  1  3  2 -1</clus>
</clustering>
</event>
<event>
 6    0  0.1438923E+002  0.1065412E+03  0.7546771E-02  0.1267113E+00
         21   -1    0    0  505  501  0.00000000000E+00  0.00000000000E+00  0.11575631730E+04  0.11575631730E+04  0.00000000000E+00 0.  1.
         21   -1    0    0  504  502 -0.00000000000E+00 -0.00000000000E+00 -0.32129280437E+02  0.32129280437E+02  0.00000000000E+00 0. -1.
         21    1    1    2  503  501 -0.66958752284E+02 -0.26520261016E+02  0.16688638675E+03  0.18176321090E+03  0.00000000000E+00 0. -1.
         21    1    1    2  504  503 -0.54888434070E+02  0.19840047516E+02  0.16143141740E+03  0.17165800362E+03  0.00000000000E+00 0. -1.
         21    1    1    2  505  506  0.87674500072E+02  0.22389055098E+02  0.79332650276E+03  0.79847043009E+03  0.00000000000E+00 0.  1.
         21    1    1    2  506  502  0.34172686282E+02 -0.15708841598E+02  0.37895856903E+01  0.37800808878E+02  0.00000000000E+00 0. -1.
<scales pt_clust_3="40.89957" pt_clust_4="40.89957" pt_clust_5="95.54272" pt_clust_6="37.61037"></scales>
<clustering>
<clus scale="   37.610">  2  6  1 -1</clus>
<clus scale="   40.900">  3  4 -1 -1</clus>
<clus scale="   95.543">  1  5  2 -1</clus>
<clus scale="   95.543">  1  3  2 -1</clus>
</clustering>
</event>
<event>
 6    0  0.1438923E+002  0.8487346E+02  0.7546771E-02  0.1315764E+00
         21   -1    0    0  504  501  0.00000000000E+00  0.00000000000E+00  0.17530469506E+04  0.17530469506E+04  0.00000000000E+00 0. -1.
         21   -1    0    0  505  502 -0.00000000000E+00 -0.00000000000E+00 -0.18215661686E+03  0.18215661686E+03  0.00000000000E+00 0. -1.
         21    1    1    2  503  501 -0.29118872959E+02  0.57633281546E+02  0.28852666361E+03  0.29566389620E+03  0.00000000000E+00 0. -1.
         21    1    1    2  504  506 -0.27281376913E+02  0.35882186214E+02  0.12591947257E+04  0.12600012548E+04  0.00000000000E+00 0. -1.
         21    1    1    2  505  503  0.71294792994E+01 -0.99333123308E+02  0.18509309918E+03  0.21018409603E+03  0.00000000000E+00 0. -1.
         21    1    1    2  506  502  0.49270770573E+02  0.58176555468E+01 -0.16192415477E+03  0.16935432043E+03  0.00000000000E+00 0. -1.
<scales pt_clust_3="14000.00000" pt_clust_4="45.07555" pt_clust_5="84.87346" pt_clust_6="49.44161"></scales>
<clustering>
<clus scale="   45.076">  1  4  2 -1</clus>
<clus scale="   49.442">  2  6  1 -1</clus>
<clus scale="   84.873">  2  5  1 -1</clus>
<clus scale="   45.076">  1  3  2 -1</clus>
</clustering>
</event>
