<event>
 6    0  0.7442036E+002  0.1618852E+03  0.7546771E-02  0.1186585E+00
         21   -1    0    0  505  501  0.00000000000E+00  0.00000000000E+00  0.15246066379E+03  0.15246066379E+03  0.00000000000E+00 0.  1.
         21   -1    0    0  503  502 -0.00000000000E+00 -0.00000000000E+00 -0.12333021026E+04  0.12333021026E+04  0.00000000000E+00 0.  1.
         21    1    1    2  503  501 -0.50318014210E+01 -0.37687340951E+02 -0.40682076784E+03  0.40859367572E+03  0.00000000000E+00 0. -1.
         21    1    1    2  504  506 -0.10799138138E+03 -0.12605525483E+03 -0.23791593550E+03  0.29009663578E+03  0.00000000000E+00 0.  1.
         21    1    1    2  505  504  0.15201258223E+03  0.62209519271E+02  0.63252752312E+02  0.17600784108E+03  0.00000000000E+00 0.  1.
         21    1    1    2  506  502 -0.38989399435E+02  0.10153307651E+03 -0.49935748775E+03  0.51106461378E+03  0.00000000000E+00 0.  1.
<scales pt_clust_3="38.02177" pt_clust_4="161.88521" pt_clust_5="14000.00000" pt_clust_6="89.03615"></scales>
<clustering>
<clus scale="   38.022">  2  3  1 -1</clus>
<clus scale="   89.036">  2  6  1 -1</clus>
<clus scale="  161.885">  2  4  1 -1</clus>
<clus scale="  161.885">  1  3  2 -1</clus>
</clustering>
</event>
<event>
 6    0  0.7442036E+002  0.8867419E+02  0.7546771E-02  0.1306094E+00
         21   -1    0    0  503  501  0.00000000000E+00  0.00000000000E+00  0.59955026311E+03  0.59955026311E+03  0.00000000000E+00 0.  1.
         21   -1    0    0  506  502 -0.00000000000E+00 -0.00000000000E+00 -0.40480616706E+03  0.40480616706E+03  0.00000000000E+00 0.  1.
         21    1    1    2  503  504 -0.15481076012E+02  0.86982808372E+02  0.54800271499E+03  0.55507895682E+03  0.00000000000E+00 0.  1.
         21    1    1    2  504  505 -0.55851614762E+02 -0.11186595633E+03 -0.10723578192E+03  0.16472069688E+03  0.00000000000E+00 0.  1.
         21    1    1    2  505  502  0.45907539687E+02  0.45610135795E+02 -0.24316576809E+03  0.25162944474E+03  0.00000000000E+00 0. -1.
         21    1    1    2  506  501  0.25425151087E+02 -0.20726987842E+02 -0.28570689273E+01  0.32927331742E+02  0.00000000000E+00 0. -1.
<scales pt_clust_3="88.67419" pt_clust_4="14000.00000" pt_clust_5="70.08158" pt_clust_6="32.80315"></scales>
<clustering>
<clus scale="   32.803">  2  6  1 -1</clus>
<clus scale="   70.082">  2  5  1 -1</clus>
<clus scale="   88.674">  1  3  2 -1</clus>
<clus scale="   88.674">  1  3  2 -1</clus>
</clustering>
</event>
<event>
 6    0  0.7442036E+002  0.7405578E+02  0.7546771E-02  0.1346820E+00
         21   -1    0    0  504  501  0.00000000000E+00  0.00000000000E+00  0.18166058476E+04  0.18166058476E+04  0.00000000000E+00 0. -1.
         21   -1    0    0  505  502 -0.00000000000E+00 -0.00000000000E+00 -0.79046557242E+03  0.79046557242E+03  0.00000000000E+00 0.  1.
         21    1    1    2  503  501  0.24112310915E+02  0.18673274058E+02  0.11067704064E+03  0.11480201229E+03  0.00000000000E+00 0. -1.
         21    1    1    2  504  506  0.38868820535E+02 -0.57772315773E+02  0.16934229683E+04  0.16948539097E+04  0.00000000000E+00 0. -1.
         21    1    1    2  505  503 -0.40647904304E+02 -0.60211079149E+02 -0.29103091762E+03  0.29996103278E+03  0.00000000000E+00 0.  1.
         21    1    1    2  506  502 -0.22333227146E+02  0.99310120864E+02 -0.48692881607E+03  0.49745446531E+03  0.00000000000E+00 0.  1.
<scales pt_clust_3="30.49745" pt_clust_4="74.05578" pt_clust_5="72.57136" pt_clust_6="14000.00000"></scales>
<clustering>
<clus scale="   30.497">  1  3  2 -1</clus>
<clus scale="   72.571">  2  5  1 -1</clus>
<clus scale="   74.056">  1  4  2 -1</clus>
<clus scale="   30.497">  1  3  2 -1</clus>
</clustering>
</event>
<event>
 6    0  0.7442036E+002  0.1080946E+03  0.7546771E-02  0.1264140E+00
         21   -1    0    0  504  501  0.00000000000E+00  0.00000000000E+00  0.19661400697E+04  0.19661400697E+04  0.00000000000E+00 0. -1.
         21   -1    0    0  503  502 -0.00000000000E+00 -0.00000000000E+00 -0.56655391158E+02  0.56655391158E+02  0.00000000000E+00 0. -1.
         21    1    1    2  503  506 -0.87799162039E+01  0.34255118496E+02  0.26782684455E+01  0.35463688381E+02  0.00000000000E+00 0. -1.
         21    1    1    2  504  502  0.56440802020E+02 -0.81266471636E+01 -0.77833266444E+01  0.57551600329E+02  0.00000000000E+00 0. -1.
         21    1    1    2  505  501  0.66057089909E+02  0.64314400244E+02  0.92451444879E+03  0.92910002004E+03  0.00000000000E+00 0. -1.
         21    1    1    2  506  505 -0.11371797573E+03 -0.90442871576E+02  0.99007528794E+03  0.10006801521E+04  0.00000000000E+00 0. -1.
<scales pt_clust_3="35.36241" pt_clust_4="53.09381" pt_clust_5="108.09459" pt_clust_6="14000.00000"></scales>
<clustering>
<clus scale="   35.362">  2  3  1 -1</clus>
<clus scale="   53.094">  2  4  1 -1</clus>
<clus scale="  108.095">  1  5  2 -1</clus>
<clus scale="  108.095">  1  3  2 -1</clus>
</clustering>
</event>
<event>
 6    0  0.7442036E+002  0.7670449E+02  0.7546771E-02  0.1338673E+00
         21   -1    0    0  504  501  0.00000000000E+00  0.00000000000E+00  0.65599434388E+03  0.65599434388E+03  0.00000000000E+00 0.  1.
         21   -1    0    0  503  502 -0.00000000000E+00 -0.00000000000E+00 -0.10748112264E+03  0.10748112264E+03  0.00000000000E+00 0.  1.
         21    1    1    2  503  505 -0.21118930601E+02  0.27512991846E+02 -0.64501217025E+02  0.73235107344E+02  0.00000000000E+00 0.  1.
         21    1    1    2  504  502  0.12398654063E+02 -0.11578290152E+03  0.39959495460E+03  0.41621573090E+03  0.00000000000E+00 0.  1.
         21    1    1    2  505  506  0.32683942446E+02  0.34104754505E+02 -0.52010034404E+01  0.47522887227E+02  0.00000000000E+00 0.  1.
         21    1    1    2  506  501 -0.23963665908E+02  0.54165155169E+02  0.21862048710E+03  0.22650174105E+03  0.00000000000E+00 0.  1.
<scales pt_clust_3="34.68391" pt_clust_4="76.70449" pt_clust_5="55.95377" pt_clust_6="14000.00000"></scales>
<clustering>
<clus scale="   34.684">  2  3  1 -1</clus>
<clus scale="   55.954">  2  5  1 -1</clus>
<clus scale="   76.704">  2  4  1 -1</clus>
<clus scale="   76.704">  1  3  2 -1</clus>
</clustering>
</event>
<event>
 6    0  0.7442036E+002  0.9107661E+02  0.7546771E-02  0.1300265E+00
         21   -1    0    0  505  501  0.00000000000E+00  0.00000000000E+00  0.40349735281E+02  0.40349735281E+02  0.00000000000E+00 0. -1.
         21   -1    0    0  506  502 -0.00000000000E+00 -0.00000000000E+00 -0.93013228536E+03  0.93013228536E+03  0.00000000000E+00 0. -1.
         21    1    1    2  503  504  0.59421865391E+02 -0.24642631720E+02 -0.10561288973E+03  0.12366203889E+03  0.00000000000E+00 0. -1.
         21    1    1    2  504  502  0.24401503652E+02 -0.73119049989E+02 -0.31437015164E+03  0.32368259312E+03  0.00000000000E+00 0. -1.
         21    1    1    2  505  503  0.42103265434E+02  0.21614607356E+02 -0.22791691180E+02  0.52529395562E+02  0.00000000000E+00 0. -1.
         21    1    1    2  506  501 -0.12592663448E+03  0.76147074353E+02 -0.44700781752E+03  0.47060799306E+03  0.00000000000E+00 0. -1.
<scales pt_clust_3="76.24995" pt_clust_4="91.07661" pt_clust_5="47.32733" pt_clust_6="14000.00000"></scales>
<clustering>
<clus scale="   47.327">  1  5  2 -1</clus>
<clus scale="   76.250">  1  3  2 -1</clus>
<clus scale="   91.077">  2  4  1 -1</clus>
<clus scale="   47.327">  1  3  2 -1</clus>
</clustering>
</event>
<event>
 6    0  0.7442036E+002  0.2057695E+03  0.7546771E-02  0.1144961E+00
         21   -1    0    0  503  501  0.00000000000E+00  0.00000000000E+00  0.40316656520E+03  0.40316656520E+03  0.00000000000E+00 0. -1.
         21   -1    0    0  504  502 -0.00000000000E+00 -0.00000000000E+00 -0.11157450705E+04  0.11157450705E+04  0.00000000000E+00 0.  1.
         21    1    1    2  503  506 -0.16642550578E+01  0.19411587791E+03  0.23464111156E+03  0.30453274871E+03  0.00000000000E+00 0. -1.
         21    1    1    2  504  505 -0.22166550951E+02  0.65457153493E+02 -0.90529860080E+03  0.90793256992E+03  0.00000000000E+00 0.  1.
         21    1    1    2  505  501 -0.14688331856E+02 -0.24672917278E+03  0.12655918809E+01  0.24716924063E+03  0.00000000000E+00 0.  1.
         21    1    1    2  506  502  0.38519137865E+02 -0.12843858625E+02 -0.43186607982E+02  0.59277076474E+02  0.00000000000E+00 0. -1.
<scales pt_clust_3="205.76951" pt_clust_4="55.54680" pt_clust_5="14000.00000" pt_clust_6="40.60405"></scales>
<clustering>
<clus scale="   40.604">  2  6  1 -1</clus>
<clus scale="   55.547">  2  4  1 -1</clus>
<clus scale="  205.770">  1  3  2 -1</clus>
<clus scale="  205.770">  1  3  2 -1</clus>
</clustering>
</event>
<event>
 6    0  0.7442036E+002  0.1094386E+03  0.7546771E-02  0.1261613E+00
         21   -1    0    0  504  501  0.00000000000E+00  0.00000000000E+00  0.10134988620E+04  0.10134988620E+04  0.00000000000E+00 0. -1.
         21   -1    0    0  505  502 -0.00000000000E+00 -0.00000000000E+00 -0.36209323842E+02  0.36209323842E+02  0.00000000000E+00 0.  1.
         21    1    1    2  503  502 -0.76586546524E+02 -0.64602817986E+02  0.11794175114E+03  0.15475554873E+03  0.00000000000E+00 0.  1.
         21    1    1    2  504  506 -0.34861412893E+02  0.17398134882E+02  0.14484006303E+03  0.14998885647E+03  0.00000000000E+00 0. -1.
         21    1    1    2  505  501  0.42226858684E+02 -0.47513498839E+02  0.94078142384E+02  0.11354002396E+03  0.00000000000E+00 0.  1.
         21    1    1    2  506  503  0.69221100733E+02  0.94718181943E+02  0.62042958160E+03  0.63142375668E+03  0.00000000000E+00 0. -1.
<scales pt_clust_3="14000.00000" pt_clust_4="38.96169" pt_clust_5="59.25702" pt_clust_6="109.43859"></scales>
<clustering>
<clus scale="   38.962">  1  4  2 -1</clus>
<clus scale="   59.257">  2  5  1 -1</clus>
<clus scale="  109.439">  1  6  2 -1</clus>
<clus scale="   38.962">  1  3  2 -1</clus>
</clustering>
</event>
<event>
 6    0  0.7442036E+002  0.1765685E+03  0.7546771E-02  0.1171166E+00
         21   -1    0    0  503  501  0.00000000000E+00  0.00000000000E+00  0.31837551479E+03  0.31837551479E+03  0.00000000000E+00 0. -1.
         21   -1    0    0  504  502 -0.00000000000E+00 -0.00000000000E+00 -0.30013811573E+03  0.30013811573E+03  0.00000000000E+00 0. -1.
         21    1    1    2  503  505  0.16410148055E+01 -0.45199484239E+02  0.12556379670E+03  0.13346143019E+03  0.00000000000E+00 0. -1.
         21    1    1    2  504  501 -0.18663595675E+03  0.73479823553E+01 -0.42241082483E+02  0.19149747321E+03  0.00000000000E+00 0. -1.
         21    1    1    2  505  506  0.28169905243E+02 -0.53653824557E+02  0.50018132458E+02  0.78575377985E+02  0.00000000000E+00 0. -1.
         21    1    1    2  506  502  0.15682503670E+03  0.91505326440E+02 -0.11510344762E+03  0.21497934914E+03  0.00000000000E+00 0. -1.
<scales pt_clust_3="45.22926" pt_clust_4="176.56851" pt_clust_5="74.78017" pt_clust_6="14000.00000"></scales>
<clustering>
<clus scale="   45.229">  1  3  2 -1</clus>
<clus scale="   74.780">  1  5  2 -1</clus>
<clus scale="  176.569">  1  4  2 -1</clus>
<clus scale="   45.229">  1  3  2 -1</clus>
</clustering>
</event>
<event>
 6    0  0.7442036E+002  0.7348669E+02  0.7546771E-02  0.1348622E+00
         21   -1    0    0  506  501  0.00000000000E+00  0.00000000000E+00  0.43172189180E+03  0.43172189180E+03  0.00000000000E+00 0. -1.
         21   -1    0    0  504  502 -0.00000000000E+00 -0.00000000000E+00 -0.61824950618E+03  0.61824950618E+03  0.00000000000E+00 0. -1.
         21    1    1    2  503  502 -0.46285325990E+01  0.80968174477E+02 -0.48600035319E+03  0.49272062256E+03  0.00000000000E+00 0. -1.
         21    1    1    2  504  505 -0.49547746238E+02 -0.48951519132E+02 -0.11078545437E+03  0.13086117561E+03  0.00000000000E+00 0. -1.
         21    1    1    2  505  501 -0.88345141642E+01 -0.45642046747E+02  0.11239931382E+03  0.12163408577E+03  0.00000000000E+00 0. -1.
         21    1    1    2  506  503  0.63010793001E+02  0.13625391403E+02  0.29785887936E+03  0.30475551404E+03  0.00000000000E+00 0. -1.
<scales pt_clust_3="73.48669" pt_clust_4="14000.00000" pt_clust_5="46.48919" pt_clust_6="62.29270"></scales>
<clustering>
<clus scale="   46.489">  1  5  2 -1</clus>
<clus scale="   62.293">  1  6  2 -1</clus>
<clus scale="   73.487">  2  3  1 -1</clus>
<clus scale="   46.489">  1  3  2 -1</clus>
</clustering>
</event>
<event>
 6    0  0.7442036E+002  0.6662584E+02  0.7546771E-02  0.1371958E+00
         21   -1    0    0  503  501  0.00000000000E+00  0.00000000000E+00  0.62375045983E+03  0.62375045983E+03  0.00000000000E+00 0.  1.
         21   -1    0    0  505  502 -0.00000000000E+00 -0.00000000000E+00 -0.42257387359E+02  0.42257387359E+02  0.00000000000E+00 0. -1.
         21    1    1    2  503  506 -0.77410211105E+02 -0.88460311835E+00  0.27237960850E+03  0.28316739648E+03  0.00000000000E+00 0.  1.
         21    1    1    2  504  501  0.57783603593E+02  0.16920221279E+02  0.11138594577E+03  0.12661780147E+03  0.00000000000E+00 0. -1.
         21    1    1    2  505  504  0.11245733872E+02  0.62743975511E+02  0.29428283811E+02  0.70208951576E+02  0.00000000000E+00 0. -1.
         21    1    1    2  506  502  0.83808736396E+01 -0.78779593672E+02  0.16829923439E+03  0.18601369766E+03  0.00000000000E+00 0.  1.
<scales pt_clust_3="46.38265" pt_clust_4="60.20996" pt_clust_5="14000.00000" pt_clust_6="66.62584"></scales>
<clustering>
<clus scale="   60.210">  1  4  2 -1</clus>
<clus scale="   46.383">  1  3  2 -1</clus>
<clus scale="   66.626">  1  6  2 -1</clus>
<clus scale="   60.210">  1  3  2 -1</clus>
</clustering>
</event>
<event>
 6    0  0.7442036E+002  0.9595555E+02  0.7546771E-02  0.1289038E+00
         21   -1    0    0  503  501  0.00000000000E+00  0.00000000000E+00  0.66590012787E+03  0.66590012787E+03  0.00000000000E+00 0. -1.
         21   -1    0    0  505  502 -0.00000000000E+00 -0.00000000000E+00 -0.53832300624E+02  0.53832300624E+02  0.00000000000E+00 0.  1.
         21    1    1    2  503  504 -0.86931824745E+01  0.12707892064E+03  0.40372065448E+03  0.42333791508E+03  0.00000000000E+00 0. -1.
         21    1    1    2  504  506 -0.26794256876E+02 -0.29032415187E+02  0.22073746412E+02  0.45255536830E+02  0.00000000000E+00 0. -1.
         21    1    1    2  505  501  0.45521048809E+02 -0.49878763225E+02  0.19015008532E+03  0.20178481572E+03  0.00000000000E+00 0. -1.
         21    1    1    2  506  502 -0.10033609458E+02 -0.48167742227E+02 -0.38766589676E+01  0.49354160866E+02  0.00000000000E+00 0.  1.
<scales pt_clust_3="88.90311" pt_clust_4="32.35471" pt_clust_5="67.52819" pt_clust_6="32.35471"></scales>
<clustering>
<clus scale="   32.355">  4  6 -1 -1</clus>
<clus scale="   67.528">  1  5  2 -1</clus>
<clus scale="   88.903">  1  3  2 -1</clus>
<clus scale="   67.528">  1  3  2 -1</clus>
</clustering>
</event>
<event>
 6    0  0.7442036E+002  0.1541073E+03  0.7546771E-02  0.1195515E+00
         21   -1    0    0  503  501  0.00000000000E+00  0.00000000000E+00  0.13643151354E+04  0.13643151354E+04  0.00000000000E+00 0. -1.
         21   -1    0    0  505  502 -0.00000000000E+00 -0.00000000000E+00 -0.55532368360E+02  0.55532368360E+02  0.00000000000E+00 0. -1.
         21    1    1    2  503  502  0.39593414247E+02 -0.17643895246E+02  0.36835714452E+03  0.37089881560E+03  0.00000000000E+00 0. -1.
         21    1    1    2  504  506 -0.44355604028E+01  0.46325667803E+02  0.52285279803E+02  0.69996372603E+02  0.00000000000E+00 0.  1.
         21    1    1    2  505  504 -0.38355587090E+02  0.94083319963E+02  0.21752083058E+02  0.10390368268E+03  0.00000000000E+00 0. -1.
         21    1    1    2  506  501  0.31977332458E+01 -0.12276509252E+03  0.86638825969E+03  0.87504863291E+03  0.00000000000E+00 0. -1.
<scales pt_clust_3="43.34680" pt_clust_4="38.36811" pt_clust_5="38.36811" pt_clust_6="143.30083"></scales>
<clustering>
<clus scale="   38.368">  4  5 -1 -1</clus>
<clus scale="   43.347">  1  3  2 -1</clus>
<clus scale="  143.301">  1  6  2 -1</clus>
<clus scale="   43.347">  1  3  2 -1</clus>
</clustering>
</event>
<event>
 6    0  0.7442036E+002  0.2636153E+03  0.7546771E-02  0.1104990E+00
         21   -1    0    0  503  501  0.00000000000E+00  0.00000000000E+00  0.11352859692E+04  0.11352859692E+04  0.00000000000E+00 0. -1.
         21   -1    0    0  504  502 -0.00000000000E+00 -0.00000000000E+00 -0.17715386966E+03  0.17715386966E+03  0.00000000000E+00 0. -1.
         21    1    1    2  503  506  0.16877798068E+02  0.88583207311E+02  0.58336315686E+03  0.59029180705E+03  0.00000000000E+00 0. -1.
         21    1    1    2  504  505 -0.22716901529E+03  0.78198604958E+02  0.28756157181E+03  0.37471648070E+03  0.00000000000E+00 0. -1.
         21    1    1    2  505  501 -0.25847843785E+02 -0.23650698078E+02  0.60630031072E+02  0.70024761447E+02  0.00000000000E+00 0. -1.
         21    1    1    2  506  502  0.23613906101E+03 -0.14313111419E+03  0.26577339839E+02  0.27740678971E+03  0.00000000000E+00 0. -1.
<scales pt_clust_3="75.66003" pt_clust_4="14000.00000" pt_clust_5="35.03522" pt_clust_6="263.61528"></scales>
<clustering>
<clus scale="   35.035">  1  5  2 -1</clus>
<clus scale="   75.660">  1  3  2 -1</clus>
<clus scale="  263.615">  2  6  1 -1</clus>
<clus scale="   35.035">  1  3  2 -1</clus>
</clustering>
</event>
<event>
 6    0  0.7442036E+002  0.1115460E+03  0.7546771E-02  0.1257733E+00
         21   -1    0    0  505  501  0.00000000000E+00  0.00000000000E+00  0.22231405118E+04  0.22231405118E+04  0.00000000000E+00 0.  1.
         21   -1    0    0  504  502 -0.00000000000E+00 -0.00000000000E+00 -0.74141030023E+02  0.74141030023E+02  0.00000000000E+00 0. -1.
         21    1    1    2  503  502 -0.29086179888E+02 -0.42096012227E+02  0.28635230162E+02  0.58634942759E+02  0.00000000000E+00 0.  1.
         21    1    1    2  504  506  0.28832341845E+02  0.14831884961E+02 -0.38027091405E+02  0.49973477250E+02  0.00000000000E+00 0. -1.
         21    1    1    2  505  503 -0.11151631331E+03  0.36733580493E+01  0.19308129175E+04  0.19340341011E+04  0.00000000000E+00 0.  1.
         21    1    1    2  506  501  0.11177015135E+03  0.23590769217E+02  0.22757842549E+03  0.25463902072E+03  0.00000000000E+00 0.  1.
<scales pt_clust_3="37.71350" pt_clust_4="32.42358" pt_clust_5="111.54599" pt_clust_6="14000.00000"></scales>
<clustering>
<clus scale="   32.424">  2  4  1 -1</clus>
<clus scale="   37.714">  2  3  1 -1</clus>
<clus scale="  111.546">  1  5  2 -1</clus>
<clus scale="  111.546">  1  3  2 -1</clus>
</clustering>
</event>
<event>
 6    0  0.7442036E+002  0.9699944E+02  0.7546771E-02  0.1286735E+00
         21   -1    0    0  504  501  0.00000000000E+00  0.00000000000E+00  0.15702777832E+03  0.15702777832E+03  0.00000000000E+00 0.  1.
         21   -1    0    0  506  502 -0.00000000000E+00 -0.00000000000E+00 -0.31817390937E+03  0.31817390937E+03  0.00000000000E+00 0. -1.
         21    1    1    2  503  502  0.57667689886E+02  0.17461695394E+01 -0.10891694770E+03  0.12325385618E+03  0.00000000000E+00 0. -1.
         21    1    1    2  504  503  0.11156638032E+02 -0.45622266109E+02  0.60876109945E+02  0.76887986702E+02  0.00000000000E+00 0.  1.
         21    1    1    2  505  501 -0.92903901769E+02 -0.30932056920E+02  0.37765104683E+02  0.10494822648E+03  0.00000000000E+00 0.  1.
         21    1    1    2  506  505  0.24079573851E+02  0.74808153490E+02 -0.15087039798E+03  0.17011161833E+03  0.00000000000E+00 0. -1.
<scales pt_clust_3="58.60792" pt_clust_4="46.96660" pt_clust_5="14000.00000" pt_clust_6="96.99944"></scales>
<clustering>
<clus scale="   46.967">  1  4  2 -1</clus>
<clus scale="   58.608">  2  3  1 -1</clus>
<clus scale="   96.999">  2  6  1 -1</clus>
<clus scale="   46.967">  1  3  2 -1</clus>
</clustering>
</event>
<event>
 6    0  0.7442036E+002  0.9675279E+02  0.7546771E-02  0.1287276E+00
         21   -1    0    0  506  501  0.00000000000E+00  0.00000000000E+00  0.22805895707E+02  0.22805895707E+02  0.00000000000E+00 0. -1.
         21   -1    0    0  504  502 -0.00000000000E+00 -0.00000000000E+00 -0.11696565020E+04  0.11696565020E+04  0.00000000000E+00 0. -1.
         21    1    1    2  503  505  0.86413870129E+02 -0.82506317888E+02 -0.42912561681E+03  0.44544746541E+03  0.00000000000E+00 0. -1.
         21    1    1    2  504  501 -0.14779399307E+01  0.93657062438E+02 -0.26174035469E+03  0.27799612034E+03  0.00000000000E+00 0. -1.
         21    1    1    2  505  502 -0.36154759502E+02  0.77229965945E+01 -0.33729529843E+03  0.33931538375E+03  0.00000000000E+00 0. -1.
         21    1    1    2  506  503 -0.48781170696E+02 -0.18873741145E+02 -0.11868933636E+03  0.12970342820E+03  0.00000000000E+00 0. -1.
<scales pt_clust_3="14000.00000" pt_clust_4="96.75279" pt_clust_5="36.97041" pt_clust_6="57.00638"></scales>
<clustering>
<clus scale="   36.970">  2  5  1 -1</clus>
<clus scale="   57.006">  1  6  2 -1</clus>
<clus scale="   96.753">  1  4  2 -1</clus>
<clus scale="   57.006">  1  3  2 -1</clus>
</clustering>
</event>
<event>
 6    0  0.7442036E+002  0.1130772E+03  0.7546771E-02  0.1254975E+00
         21   -1    0    0  505  501  0.00000000000E+00  0.00000000000E+00  0.98337538595E+02  0.98337538595E+02  0.00000000000E+00 0. -1.
         21   -1    0    0  506  502 -0.00000000000E+00 -0.00000000000E+00 -0.26811487724E+03  0.26811487724E+03  0.00000000000E+00 0. -1.
         21    1    1    2  503  504 -0.12578749369E+02 -0.47425355795E+02 -0.17828232397E+02  0.52203785096E+02  0.00000000000E+00 0. -1.
         21    1    1    2  504  501 -0.36837343255E+02 -0.24711703268E+02  0.40306445074E+02  0.59935529121E+02  0.00000000000E+00 0. -1.
         21    1    1    2  505  502  0.47705375117E+02  0.11390265624E+03 -0.12978297323E+03  0.17914585693E+03  0.00000000000E+00 0. -1.
         21    1    1    2  506  503  0.17107175071E+01 -0.41765597173E+02 -0.62472578093E+02  0.75167244696E+02  0.00000000000E+00 0. -1.
<scales pt_clust_3="38.07912" pt_clust_4="44.35829" pt_clust_5="105.28264" pt_clust_6="38.07912"></scales>
<clustering>
<clus scale="   38.079">  3  6 -1 -1</clus>
<clus scale="   44.358">  1  4  2 -1</clus>
<clus scale="  105.283">  1  5  2 -1</clus>
<clus scale="   44.358">  1  3  2 -1</clus>
</clustering>
</event>
<event>
 6    0  0.7442036E+002  0.1911221E+03  0.7546771E-02  0.1157453E+00
         21   -1    0    0  506  501  0.00000000000E+00  0.00000000000E+00  0.25682939394E+03  0.25682939394E+03  0.00000000000E+00 0.  1.
         21   -1    0    0  505  502 -0.00000000000E+00 -0.00000000000E+00 -0.51448480956E+03  0.51448480956E+03  0.00000000000E+00 0. -1.
         21    1    1    2  503  502  0.12300365481E+03 -0.14027021040E+03  0.40828973559E+02  0.19097810373E+03  0.00000000000E+00 0.  1.
         21    1    1    2  504  501 -0.40095651866E+00  0.38803596116E+02 -0.93633442202E+01  0.39919319291E+02  0.00000000000E+00 0.  1.
         21    1    1    2  505  504 -0.16817475888E+03  0.96141182228E+02 -0.38674529463E+03  0.43254803128E+03  0.00000000000E+00 0. -1.
         21    1    1    2  506  503  0.45572060584E+02  0.53254320547E+01  0.97624249667E+02  0.10786874921E+03  0.00000000000E+00 0.  1.
<scales pt_clust_3="14000.00000" pt_clust_4="38.80567" pt_clust_5="191.12214" pt_clust_6="50.37745"></scales>
<clustering>
<clus scale="   38.806">  1  4  2 -1</clus>
<clus scale="   50.377">  1  6  2 -1</clus>
<clus scale="  191.122">  2  5  1 -1</clus>
<clus scale="   38.806">  1  3  2 -1</clus>
</clustering>
</event>
<event>
 6    0  0.7442036E+002  0.9560189E+02  0.7546771E-02  0.1289826E+00
         21   -1    0    0  506  501  0.00000000000E+00  0.00000000000E+00  0.96531333758E+03  0.96531333758E+03  0.00000000000E+00 0. -1.
         21   -1    0    0  503  502 -0.00000000000E+00 -0.00000000000E+00 -0.11098265454E+03  0.11098265454E+03  0.00000000000E+00 0. -1.
         21    1    1    2  503  505  0.35095761448E+02  0.58329271403E+02  0.60557599475E+02  0.91111136686E+02  0.00000000000E+00 0.  1.
         21    1    1    2  504  502 -0.25989103269E+02 -0.10503838424E+03 -0.59709769550E+02  0.12358702291E+03  0.00000000000E+00 0. -1.
         21    1    1    2  505  501 -0.40407206519E+02 -0.91417140956E+01  0.16411214346E+03  0.16926047650E+03  0.00000000000E+00 0. -1.
         21    1    1    2  506  504  0.31300548339E+02  0.55850826934E+02  0.68937070966E+03  0.69233735601E+03  0.00000000000E+00 0. -1.
<scales pt_clust_3="95.60189" pt_clust_4="14000.00000" pt_clust_5="41.42841" pt_clust_6="48.08180"></scales>
<clustering>
<clus scale="   41.428">  1  5  2 -1</clus>
<clus scale="   48.082">  1  6  2 -1</clus>
<clus scale="   95.602">  1  3  2 -1</clus>
<clus scale="   41.428">  1  3  2 -1</clus>
</clustering>
</event>
<event>
 6    0  0.7442036E+002  0.9399517E+02  0.7546771E-02  0.1293455E+00
         21   -1    0    0  504  501  0.00000000000E+00  0.00000000000E+00  0.17716372966E+03  0.17716372966E+03  0.00000000000E+00 0. -1.
         21   -1    0    0  503  502 -0.00000000000E+00 -0.00000000000E+00 -0.49818706127E+03  0.49818706127E+03  0.00000000000E+00 0. -1.
         21    1    1    2  503  505  0.19947468824E+02  0.47594024371E+02 -0.35474376443E+03  0.35847765770E+03  0.00000000000E+00 0. -1.
         21    1    1    2  504  506  0.99978580927E+01 -0.14451560812E+03  0.23464722111E+02  0.14674914426E+03  0.00000000000E+00 0. -1.
         21    1    1    2  505  501 -0.35412421375E+02  0.52561412071E+02  0.70700502549E+02  0.94948947794E+02  0.00000000000E+00 0. -1.
         21    1    1    2  506  502  0.54670944588E+01  0.44360171682E+02 -0.60444791844E+02  0.75175041167E+02  0.00000000000E+00 0.  1.
<scales pt_clust_3="14000.00000" pt_clust_4="93.99517" pt_clust_5="64.33342" pt_clust_6="44.69579"></scales>
<clustering>
<clus scale="   44.696">  2  6  1 -1</clus>
<clus scale="   64.333">  1  5  2 -1</clus>
<clus scale="   93.995">  1  4  2 -1</clus>
<clus scale="   64.333">  1  3  2 -1</clus>
</clustering>
</event>
<event>
 6    0  0.7442036E+002  0.1998593E+03  0.7546771E-02  0.1149858E+00
         21   -1    0    0  504  501  0.00000000000E+00  0.00000000000E+00  0.68666284288E+03  0.68666284288E+03  0.00000000000E+00 0. -1.
         21   -1    0    0  505  502 -0.00000000000E+00 -0.00000000000E+00 -0.86559515796E+03  0.86559515796E+03  0.00000000000E+00 0. -1.
         21    1    1    2  503  501 -0.62726301052E+02 -0.52740565807E+02  0.42132531815E+03  0.42922159759E+03  0.00000000000E+00 0. -1.
         21    1    1    2  504  506  0.13865326353E+03  0.98181823862E+02 -0.63487611223E+03  0.65721539536E+03  0.00000000000E+00 0. -1.
         21    1    1    2  505  503 -0.66052267313E+02 -0.80641923817E+02  0.23765936816E+03  0.25951492668E+03  0.00000000000E+00 0. -1.
         21    1    1    2  506  502 -0.98746951679E+01  0.35200665761E+02 -0.20304088916E+03  0.20630608121E+03  0.00000000000E+00 0. -1.
<scales pt_clust_3="67.14806" pt_clust_4="184.99020" pt_clust_5="67.14806" pt_clust_6="36.55949"></scales>
<clustering>
<clus scale="   36.559">  2  6  1 -1</clus>
<clus scale="   67.148">  3  5 -1 -1</clus>
<clus scale="  184.990">  2  4  1 -1</clus>
<clus scale="  199.859">  1  3  2 -1</clus>
</clustering>
</event>
<event>
 6    0  0.7442036E+002  0.1404885E+03  0.7546771E-02  0.1212673E+00
         21   -1    0    0  505  501  0.00000000000E+00  0.00000000000E+00  0.46029424448E+03  0.46029424448E+03  0.00000000000E+00 0.  1.
         21   -1    0    0  504  502 -0.00000000000E+00 -0.00000000000E+00 -0.30568327526E+03  0.30568327526E+03  0.00000000000E+00 0.  1.
         21    1    1    2  503  502  0.72101982823E+01  0.42069419892E+02 -0.15317406143E+03  0.15900979890E+03  0.00000000000E+00 0. -1.
         21    1    1    2  504  501  0.32288976734E+01 -0.54512224161E+02  0.44866277536E+02  0.70675251843E+02  0.00000000000E+00 0.  1.
         21    1    1    2  505  506 -0.39765520670E+02 -0.70742292381E+02  0.38063930831E+03  0.38919410529E+03  0.00000000000E+00 0.  1.
         21    1    1    2  506  503  0.29326424714E+02  0.83185096649E+02 -0.11772055519E+03  0.14709836370E+03  0.00000000000E+00 0.  1.
<scales pt_clust_3="39.92933" pt_clust_4="54.60777" pt_clust_5="128.22763" pt_clust_6="39.92933"></scales>
<clustering>
<clus scale="   39.929">  3  6 -1 -1</clus>
<clus scale="   54.608">  1  4  2 -1</clus>
<clus scale="  128.228">  1  5  2 -1</clus>
<clus scale="   54.608">  1  3  2 -1</clus>
</clustering>
</event>
<event>
 6    0  0.7442036E+002  0.2116836E+03  0.7546771E-02  0.1140240E+00
         21   -1    0    0  503  501  0.00000000000E+00  0.00000000000E+00  0.22954593069E+04  0.22954593069E+04  0.00000000000E+00 0. -1.
         21   -1    0    0  504  502 -0.00000000000E+00 -0.00000000000E+00 -0.12758773154E+03  0.12758773154E+03  0.00000000000E+00 0. -1.
         21    1    1    2  503  505  0.71574640311E+02  0.66118861314E+02  0.73118234666E+03  0.73764643090E+03  0.00000000000E+00 0.  1.
         21    1    1    2  504  501 -0.12838711519E+03 -0.17755284261E+03  0.60303259248E+02  0.22725480488E+03  0.00000000000E+00 0. -1.
         21    1    1    2  505  506  0.17215794682E+02  0.10282590495E+03  0.14047945629E+04  0.14086579835E+04  0.00000000000E+00 0. -1.
         21    1    1    2  506  502  0.39596680195E+02  0.86080763464E+01 -0.28408593505E+02  0.49487819166E+02  0.00000000000E+00 0. -1.
<scales pt_clust_3="85.79856" pt_clust_4="192.38170" pt_clust_5="85.79856" pt_clust_6="40.52155"></scales>
<clustering>
<clus scale="   40.522">  2  6  1 -1</clus>
<clus scale="   85.799">  3  5 -1 -1</clus>
<clus scale="  192.382">  2  4  1 -1</clus>
<clus scale="  211.684">  1  3  2 -1</clus>
</clustering>
</event>
<event>
 6    0  0.7442036E+002  0.9437274E+02  0.7546771E-02  0.1292595E+00
         21   -1    0    0  505  501  0.00000000000E+00  0.00000000000E+00  0.23726355591E+04  0.23726355591E+04  0.00000000000E+00 0.  1.
         21   -1    0    0  506  502 -0.00000000000E+00 -0.00000000000E+00 -0.58961893901E+03  0.58961893901E+03  0.00000000000E+00 0. -1.
         21    1    1    2  503  501 -0.20115002478E+02  0.36842098538E+02  0.49990486879E+02  0.65276353512E+02  0.00000000000E+00 0. -1.
         21    1    1    2  504  502 -0.18226831329E+02  0.78787059306E+02 -0.22783673774E+03  0.24176268768E+03  0.00000000000E+00 0.  1.
         21    1    1    2  505  504  0.43550496983E+02 -0.82748804543E+00  0.22983171672E+04  0.22987298953E+04  0.00000000000E+00 0.  1.
         21    1    1    2  506  503 -0.52086631764E+01 -0.11480166980E+03 -0.33745429626E+03  0.35648556159E+03  0.00000000000E+00 0. -1.
<scales pt_clust_3="41.97563" pt_clust_4="94.37274" pt_clust_5="42.82739" pt_clust_6="14000.00000"></scales>
<clustering>
<clus scale="   41.976">  1  3  2 -1</clus>
<clus scale="   42.827">  1  5  2 -1</clus>
<clus scale="   94.373">  2  4  1 -1</clus>
<clus scale="   41.976">  1  3  2 -1</clus>
</clustering>
</event>
<event>
 6    0  0.7442036E+002  0.8109852E+02  0.7546771E-02  0.1325963E+00
         21   -1    0    0  505  501  0.00000000000E+00  0.00000000000E+00  0.14458661006E+03  0.14458661006E+03  0.00000000000E+00 0.  1.
         21   -1    0    0  506  502 -0.00000000000E+00 -0.00000000000E+00 -0.20308939108E+03  0.20308939108E+03  0.00000000000E+00 0.  1.
         21    1    1    2  503  501 -0.55100422833E+02  0.41706758628E+02 -0.84899202066E+02  0.10946864767E+03  0.00000000000E+00 0.  1.
         21    1    1    2  504  502 -0.33651329820E+02 -0.57407397909E+02 -0.11515836803E+02  0.67532479820E+02  0.00000000000E+00 0.  1.
         21    1    1    2  505  504  0.82524753542E+02 -0.17643578463E+02  0.80229497917E+02  0.11644055627E+03  0.00000000000E+00 0.  1.
         21    1    1    2  506  503  0.62269991109E+01  0.33344217745E+02 -0.42317240064E+02  0.54234317379E+02  0.00000000000E+00 0.  1.
<scales pt_clust_3="81.09852" pt_clust_4="58.46899" pt_clust_5="14000.00000" pt_clust_6="33.92068"></scales>
<clustering>
<clus scale="   33.921">  2  6  1 -1</clus>
<clus scale="   58.469">  2  4  1 -1</clus>
<clus scale="   81.099">  2  3  1 -1</clus>
<clus scale="   81.099">  1  3  2 -1</clus>
</clustering>
</event>
<event>
 6    0  0.7442036E+002  0.9149693E+02  0.7546771E-02  0.1299267E+00
         21   -1    0    0  506  501  0.00000000000E+00  0.00000000000E+00  0.10907292164E+03  0.10907292164E+03  0.00000000000E+00 0.  1.
         21   -1    0    0  503  502 -0.00000000000E+00 -0.00000000000E+00 -0.35954786445E+03  0.35954786445E+03  0.00000000000E+00 0.  1.
         21    1    1    2  503  501  0.67774099913E+02 -0.67262465873E+01 -0.19268824747E+02  0.70780354756E+02  0.00000000000E+00 0.  1.
         21    1    1    2  504  502  0.41527117700E+01  0.35614305600E+02 -0.13369933195E+03  0.13842375209E+03  0.00000000000E+00 0.  1.
         21    1    1    2  505  504  0.40860675440E+02  0.17342322460E+02 -0.12655072361E+03  0.13410979305E+03  0.00000000000E+00 0.  1.
         21    1    1    2  506  505 -0.11278748712E+03 -0.46230381472E+02  0.29043937491E+02  0.12530688619E+03  0.00000000000E+00 0.  1.
<scales pt_clust_3="91.49693" pt_clust_4="35.85560" pt_clust_5="57.67019" pt_clust_6="14000.00000"></scales>
<clustering>
<clus scale="   35.856">  2  4  1 -1</clus>
<clus scale="   57.670">  2  5  1 -1</clus>
<clus scale="   91.497">  1  3  2 -1</clus>
<clus scale="   91.497">  1  3  2 -1</clus>
</clustering>
</event>
<event>
 6    0  0.7442036E+002  0.1192476E+03  0.7546771E-02  0.1244343E+00
         21   -1    0    0  504  501  0.00000000000E+00  0.00000000000E+00  0.24916630494E+03  0.24916630494E+03  0.00000000000E+00 0.  1.
         21   -1    0    0  505  502 -0.00000000000E+00 -0.00000000000E+00 -0.43787217931E+03  0.43787217931E+03  0.00000000000E+00 0. -1.
         21    1    1    2  503  502  0.91664626741E+02  0.51941346128E+02  0.12688032771E+03  0.16492096529E+03  0.00000000000E+00 0.  1.
         21    1    1    2  504  503  0.17099924198E+02 -0.31364677261E+02  0.91258610995E+02  0.98001451356E+02  0.00000000000E+00 0.  1.
         21    1    1    2  505  506 -0.72868326699E+02 -0.87131809996E+01 -0.33486002875E+03  0.34280745531E+03  0.00000000000E+00 0. -1.
         21    1    1    2  506  501 -0.35896224241E+02 -0.11863487868E+02 -0.71984784323E+02  0.81308612294E+02  0.00000000000E+00 0. -1.
<scales pt_clust_3="110.09713" pt_clust_4="35.72325" pt_clust_5="32.88020" pt_clust_6="32.88020"></scales>
<clustering>
<clus scale="   32.880">  5  6 -1 -1</clus>
<clus scale="   35.723">  1  4  2 -1</clus>
<clus scale="  110.097">  1  3  2 -1</clus>
<clus scale="   35.723">  1  3  2 -1</clus>
</clustering>
</event>
<event>
 6    0  0.7442036E+002  0.1595595E+03  0.7546771E-02  0.1189195E+00
         21   -1    0    0  506  501  0.00000000000E+00  0.00000000000E+00  0.56899293500E+02  0.56899293500E+02  0.00000000000E+00 0.  1.
         21   -1    0    0  501  502 -0.00000000000E+00 -0.00000000000E+00 -0.11438689865E+04  0.11438689865E+04  0.00000000000E+00 0.  1.
         21    1    1    2  503  502 -0.47169564429E+02  0.29891498197E+02 -0.18007353388E+03  0.18853367624E+03  0.00000000000E+00 0. -1.
         21    1    1    2  504  505  0.54457438833E+02 -0.10504620595E+03 -0.56001540456E+02  0.13090641910E+03  0.00000000000E+00 0.  1.
         21    1    1    2  505  503 -0.53847131836E+02  0.84935687863E+02 -0.81638178369E+03  0.82255261317E+03  0.00000000000E+00 0.  1.
         21    1    1    2  506  504  0.46559257432E+02 -0.97809801075E+01 -0.34512834935E+02  0.58775571454E+02  0.00000000000E+00 0.  1.
<scales pt_clust_3="55.84326" pt_clust_4="42.04586" pt_clust_5="145.12925" pt_clust_6="42.04586"></scales>
<clustering>
<clus scale="   42.046">  4  6 -1 -1</clus>
<clus scale="   55.843">  2  3  1 -1</clus>
<clus scale="  145.129">  2  5  1 -1</clus>
<clus scale="  159.560">  1  3  2 -1</clus>
</clustering>
</event>
<event>
 6    0  0.7442036E+002  0.6691589E+02  0.7546771E-02  0.1370906E+00
         21   -1    0    0  503  501  0.00000000000E+00  0.00000000000E+00  0.10134215268E+04  0.10134215268E+04  0.00000000000E+00 0.  1.
         21   -1    0    0  506  502 -0.00000000000E+00 -0.00000000000E+00 -0.51746869452E+02  0.51746869452E+02  0.00000000000E+00 0.  1.
         21    1    1    2  503  502  0.48993580975E+01 -0.73205756667E+02  0.20792644800E+03  0.22049148350E+03  0.00000000000E+00 0.  1.
         21    1    1    2  504  501  0.54682447343E+02  0.41117702248E+02  0.67444278798E+03  0.67790405645E+03  0.00000000000E+00 0.  1.
         21    1    1    2  505  504 -0.57695399943E+02 -0.20774407519E+02  0.93673501867E+02  0.11196008277E+03  0.00000000000E+00 0.  1.
         21    1    1    2  506  505 -0.18864054979E+01  0.52862461939E+02 -0.14368080480E+02  0.54812773553E+02  0.00000000000E+00 0.  1.
<scales pt_clust_3="54.01226" pt_clust_4="14000.00000" pt_clust_5="66.91589" pt_clust_6="52.89611"></scales>
<clustering>
<clus scale="   52.896">  2  6  1 -1</clus>
<clus scale="   54.012">  2  3  1 -1</clus>
<clus scale="   66.916">  2  5  1 -1</clus>
<clus scale="   66.916">  1  3  2 -1</clus>
</clustering>
</event>
<event>
 6    0  0.7442036E+002  0.6660670E+02  0.7546771E-02  0.1372028E+00
         21   -1    0    0  504  501  0.00000000000E+00  0.00000000000E+00  0.44666570989E+02  0.44666570989E+02  0.00000000000E+00 0. -1.
         21   -1    0    0  503  502 -0.00000000000E+00 -0.00000000000E+00 -0.42656453638E+03  0.42656453638E+03  0.00000000000E+00 0. -1.
         21    1    1    2  503  501  0.11291402965E+02 -0.65920570908E+02 -0.66688680724E+02  0.94447856442E+02  0.00000000000E+00 0. -1.
         21    1    1    2  504  506 -0.13298634748E+02  0.64819188750E+02 -0.12709578311E+03  0.14328893537E+03  0.00000000000E+00 0. -1.
         21    1    1    2  505  502 -0.59470223453E+02 -0.28293270037E+02 -0.12149908687E+03  0.13820001707E+03  0.00000000000E+00 0. -1.
         21    1    1    2  506  505  0.61477455236E+02  0.29394652196E+02 -0.66614414688E+02  0.95294298488E+02  0.00000000000E+00 0. -1.
<scales pt_clust_3="66.60670" pt_clust_4="14000.00000" pt_clust_5="65.85755" pt_clust_6="50.17518"></scales>
<clustering>
<clus scale="   65.858">  2  5  1 -1</clus>
<clus scale="   50.175">  2  6  1 -1</clus>
<clus scale="   66.607">  1  3  2 -1</clus>
<clus scale="   66.607">  1  3  2 -1</clus>
</clustering>
</event>
<event>
 6    0  0.7442036E+002  0.1567560E+03  0.7546771E-02  0.1192409E+00
         21   -1    0    0  506  501  0.00000000000E+00  0.00000000000E+00  0.77035905863E+03  0.77035905863E+03  0.00000000000E+00 0.  1.
         21   -1    0    0  504  502 -0.00000000000E+00 -0.00000000000E+00 -0.26252742343E+03  0.26252742343E+03  0.00000000000E+00 0. -1.
         21    1    1    2  503  501  0.40596989753E+02  0.45861907689E+01  0.29368344151E+02  0.50315488281E+02  0.00000000000E+00 0. -1.
         21    1    1    2  504  505  0.14356190838E+03  0.50558002305E+02 -0.19270131790E+03  0.24556044277E+03  0.00000000000E+00 0. -1.
         21    1    1    2  505  503  0.46747984487E+02  0.24689242522E+02  0.19211058755E+03  0.19925212822E+03  0.00000000000E+00 0.  1.
         21    1    1    2  506  502 -0.23090688262E+03 -0.79833435596E+02  0.47905402139E+03  0.53775842279E+03  0.00000000000E+00 0.  1.
<scales pt_clust_3="40.85522" pt_clust_4="156.75599" pt_clust_5="63.18299" pt_clust_6="14000.00000"></scales>
<clustering>
<clus scale="   40.855">  1  3  2 -1</clus>
<clus scale="   63.183">  1  5  2 -1</clus>
<clus scale="  156.756">  2  4  1 -1</clus>
<clus scale="   40.855">  1  3  2 -1</clus>
</clustering>
</event>
<event>
 6    0  0.7442036E+002  0.7757807E+02  0.7546771E-02  0.1336068E+00
         21   -1    0    0  503  501  0.00000000000E+00  0.00000000000E+00  0.98155238517E+02  0.98155238517E+02  0.00000000000E+00 0.  1.
         21   -1    0    0  505  502 -0.00000000000E+00 -0.00000000000E+00 -0.20939799595E+03  0.20939799595E+03  0.00000000000E+00 0.  1.
         21    1    1    2  503  502  0.88421076807E+02 -0.71302893768E+02 -0.43533247236E+02  0.12164511128E+03  0.00000000000E+00 0.  1.
         21    1    1    2  504  506 -0.49532657798E+02  0.21461656818E+02 -0.20954542555E+02  0.57906646903E+02  0.00000000000E+00 0.  1.
         21    1    1    2  505  504 -0.36611246182E+02 -0.61192104276E+00 -0.64750465720E+02  0.74386696427E+02  0.00000000000E+00 0.  1.
         21    1    1    2  506  501 -0.22771728270E+01  0.50453157993E+02  0.17995498081E+02  0.53614779853E+02  0.00000000000E+00 0.  1.
<scales pt_clust_3="77.57807" pt_clust_4="14000.00000" pt_clust_5="36.61636" pt_clust_6="50.85105"></scales>
<clustering>
<clus scale="   36.616">  2  5  1 -1</clus>
<clus scale="   50.851">  1  6  2 -1</clus>
<clus scale="   77.578">  1  3  2 -1</clus>
<clus scale="   50.851">  1  3  2 -1</clus>
</clustering>
</event>
<event>
 6    0  0.7442036E+002  0.8021439E+02  0.7546771E-02  0.1328444E+00
         21   -1    0    0  506  501  0.00000000000E+00  0.00000000000E+00  0.45961475182E+03  0.45961475182E+03  0.00000000000E+00 0. -1.
         21   -1    0    0  503  502 -0.00000000000E+00 -0.00000000000E+00 -0.24494550715E+03  0.24494550715E+03  0.00000000000E+00 0. -1.
         21    1    1    2  503  501 -0.42308273088E+02  0.23113576208E+01 -0.19125340667E+03  0.19589078056E+03  0.00000000000E+00 0. -1.
         21    1    1    2  504  505  0.11555723041E+03 -0.23306670147E+02  0.23196479900E+03  0.26020058099E+03  0.00000000000E+00 0. -1.
         21    1    1    2  505  502 -0.45086043546E+02 -0.24729788984E+02 -0.13750550653E+02  0.53229610454E+02  0.00000000000E+00 0. -1.
         21    1    1    2  506  504 -0.28162913772E+02  0.45725101510E+02  0.18770840299E+03  0.19523928697E+03  0.00000000000E+00 0.  1.
<scales pt_clust_3="42.37136" pt_clust_4="80.21439" pt_clust_5="14000.00000" pt_clust_6="55.53143"></scales>
<clustering>
<clus scale="   42.371">  2  3  1 -1</clus>
<clus scale="   55.531">  1  6  2 -1</clus>
<clus scale="   80.214">  1  4  2 -1</clus>
<clus scale="   55.531">  1  3  2 -1</clus>
</clustering>
</event>
<event>
 6    0  0.7442036E+002  0.1180110E+03  0.7546771E-02  0.1246415E+00
         21   -1    0    0  504  501  0.00000000000E+00  0.00000000000E+00  0.51499936172E+03  0.51499936172E+03  0.00000000000E+00 0.  1.
         21   -1    0    0  505  502 -0.00000000000E+00 -0.00000000000E+00 -0.12119001853E+03  0.12119001853E+03  0.00000000000E+00 0.  1.
         21    1    1    2  503  502 -0.75355809918E+02  0.48838853172E+02 -0.37698398974E+02  0.97390456169E+02  0.00000000000E+00 0.  1.
         21    1    1    2  504  506 -0.94708820820E+01 -0.39836907152E+02  0.39446991861E+03  0.39658945204E+03  0.00000000000E+00 0.  1.
         21    1    1    2  505  501  0.87918840409E+02 -0.43322597842E+02  0.43357982253E+02  0.10717501858E+03  0.00000000000E+00 0.  1.
         21    1    1    2  506  503 -0.30921484088E+01  0.34320651823E+02 -0.63201586954E+01  0.35034453460E+02  0.00000000000E+00 0.  1.
<scales pt_clust_3="31.15357" pt_clust_4="40.94724" pt_clust_5="106.75887" pt_clust_6="31.15357"></scales>
<clustering>
<clus scale="   31.154">  3  6 -1 -1</clus>
<clus scale="   40.947">  1  4  2 -1</clus>
<clus scale="  106.759">  1  5  2 -1</clus>
<clus scale="   40.947">  1  3  2 -1</clus>
</clustering>
</event>
<event>
 6    0  0.7442036E+002  0.1042463E+03  0.7546771E-02  0.1271612E+00
         21   -1    0    0  506  501  0.00000000000E+00  0.00000000000E+00  0.40723127286E+02  0.40723127286E+02  0.00000000000E+00 0.  1.
         21   -1    0    0  503  502 -0.00000000000E+00 -0.00000000000E+00 -0.10369396523E+04  0.10369396523E+04  0.00000000000E+00 0.  1.
         21    1    1    2  503  505  0.56260816069E+02 -0.67803903054E+02 -0.28196838167E+03  0.29541296004E+03  0.00000000000E+00 0.  1.
         21    1    1    2  504  502 -0.38177856480E+02 -0.33705748006E+02 -0.49380611120E+03  0.49642532332E+03  0.00000000000E+00 0.  1.
         21    1    1    2  505  501 -0.22128367476E+02  0.13584614853E+03 -0.20731148564E+03  0.24884109949E+03  0.00000000000E+00 0.  1.
         21    1    1    2  506  504  0.40454078877E+01 -0.34336497468E+02 -0.13130546506E+02  0.36983396746E+02  0.00000000000E+00 0.  1.
<scales pt_clust_3="14000.00000" pt_clust_4="51.83934" pt_clust_5="104.24630" pt_clust_6="34.57398"></scales>
<clustering>
<clus scale="   34.574">  1  6  2 -1</clus>
<clus scale="   51.839">  2  4  1 -1</clus>
<clus scale="  104.246">  1  5  2 -1</clus>
<clus scale="   34.574">  1  3  2 -1</clus>
</clustering>
</event>
<event>
 6    0  0.7442036E+002  0.1130083E+03  0.7546771E-02  0.1255098E+00
         21   -1    0    0  505  501  0.00000000000E+00  0.00000000000E+00  0.12368238799E+04  0.12368238799E+04  0.00000000000E+00 0. -1.
         21   -1    0    0  503  502 -0.00000000000E+00 -0.00000000000E+00 -0.78581632703E+03  0.78581632703E+03  0.00000000000E+00 0. -1.
         21    1    1    2  503  504 -0.42573238095E+02  0.61905021655E+02 -0.29015456542E+02  0.80539487373E+02  0.00000000000E+00 0. -1.
         21    1    1    2  504  501  0.59504522778E+01  0.31557286533E+02  0.16582519633E+03  0.16890608619E+03  0.00000000000E+00 0.  1.
         21    1    1    2  505  506 -0.88115762175E+01 -0.14823888824E+03  0.10366566936E+04  0.10472389948E+04  0.00000000000E+00 0. -1.
         21    1    1    2  506  502  0.45434362035E+02  0.54776580049E+02 -0.72245888057E+03  0.72595563851E+03  0.00000000000E+00 0. -1.
<scales pt_clust_3="14000.00000" pt_clust_4="32.11340" pt_clust_5="113.00834" pt_clust_6="71.21302"></scales>
<clustering>
<clus scale="   32.113">  1  4  2 -1</clus>
<clus scale="   71.213">  2  6  1 -1</clus>
<clus scale="  113.008">  1  5  2 -1</clus>
<clus scale="   32.113">  1  3  2 -1</clus>
</clustering>
</event>
<event>
 6    0  0.7442036E+002  0.1797870E+03  0.7546771E-02  0.1168009E+00
         21   -1    0    0  505  501  0.00000000000E+00  0.00000000000E+00  0.87438376268E+02  0.87438376268E+02  0.00000000000E+00 0.  1.
         21   -1    0    0  504  502 -0.00000000000E+00 -0.00000000000E+00 -0.14949925772E+04  0.14949925772E+04  0.00000000000E+00 0.  1.
         21    1    1    2  503  506 -0.16215186224E+02  0.48938799983E+02 -0.67674032629E+02  0.85074750075E+02  0.00000000000E+00 0.  1.
         21    1    1    2  504  503 -0.55440893365E+02 -0.16136193620E+03 -0.11729282474E+04  0.11852729815E+04  0.00000000000E+00 0.  1.
         21    1    1    2  505  502  0.12014121781E+03 -0.12329410742E+02 -0.11997597836E+03  0.17023560723E+03  0.00000000000E+00 0.  1.
         21    1    1    2  506  501 -0.48485138216E+02  0.12475254696E+03 -0.46975942495E+02  0.14184761462E+03  0.00000000000E+00 0.  1.
<scales pt_clust_3="39.22472" pt_clust_4="168.31228" pt_clust_5="120.77221" pt_clust_6="39.22472"></scales>
<clustering>
<clus scale="   39.225">  3  6 -1 -1</clus>
<clus scale="  120.772">  1  5  2 -1</clus>
<clus scale="  168.312">  2  4  1 -1</clus>
<clus scale="  120.772">  1  3  2 -1</clus>
</clustering>
</event>
<event>
 6    0  0.7442036E+002  0.1498077E+03  0.7546771E-02  0.1200710E+00
         21   -1    0    0  503  501  0.00000000000E+00  0.00000000000E+00  0.32790460183E+03  0.32790460183E+03  0.00000000000E+00 0.  1.
         21   -1    0    0  504  502 -0.00000000000E+00 -0.00000000000E+00 -0.14648112930E+03  0.14648112930E+03  0.00000000000E+00 0. -1.
         21    1    1    2  503  506  0.46744373175E+02  0.25421247433E+02 -0.62798483430E+02  0.82309937223E+02  0.00000000000E+00 0. -1.
         21    1    1    2  504  505 -0.70959771915E+02 -0.65431914972E+02  0.16753499556E+03  0.19335097482E+03  0.00000000000E+00 0.  1.
         21    1    1    2  505  501 -0.53171867102E+02  0.29888071557E+01  0.96916650205E+02  0.11058488824E+03  0.00000000000E+00 0.  1.
         21    1    1    2  506  502  0.77387265842E+02  0.37021860383E+02 -0.20229689802E+02  0.88139930850E+02  0.00000000000E+00 0. -1.
<scales pt_clust_3="42.05666" pt_clust_4="41.58676" pt_clust_5="41.58676" pt_clust_6="148.86061"></scales>
<clustering>
<clus scale="   41.587">  4  5 -1 -1</clus>
<clus scale="   42.057">  3  6 -1 -1</clus>
<clus scale="  148.861">  2  3  1 -1</clus>
<clus scale="  149.808">  1  3  2 -1</clus>
</clustering>
</event>
<event>
 6    0  0.7442036E+002  0.2025847E+03  0.7546771E-02  0.1147576E+00
         21   -1    0    0  505  501  0.00000000000E+00  0.00000000000E+00  0.25595301958E+04  0.25595301958E+04  0.00000000000E+00 0.  1.
         21   -1    0    0  506  502 -0.00000000000E+00 -0.00000000000E+00 -0.71487977712E+02  0.71487977712E+02  0.00000000000E+00 0.  1.
         21    1    1    2  503  504 -0.27884721581E+02  0.26079761180E+02  0.10980949305E+03  0.11625762944E+03  0.00000000000E+00 0.  1.
         21    1    1    2  504  501 -0.11077628580E+03  0.11424291054E+03  0.90598747007E+02  0.18311461182E+03  0.00000000000E+00 0.  1.
         21    1    1    2  505  502  0.16892584721E+03 -0.12004840332E+03  0.22857962930E+04  0.22951715086E+04  0.00000000000E+00 0.  1.
         21    1    1    2  506  503 -0.30264839833E+02 -0.20274268397E+02  0.18376850095E+01  0.36474423578E+02  0.00000000000E+00 0.  1.
<scales pt_clust_3="38.72893" pt_clust_4="14000.00000" pt_clust_5="202.58469" pt_clust_6="36.42810"></scales>
<clustering>
<clus scale="   36.428">  2  6  1 -1</clus>
<clus scale="   38.729">  2  3  1 -1</clus>
<clus scale="  202.585">  1  5  2 -1</clus>
<clus scale="  202.585">  1  3  2 -1</clus>
</clustering>
</event>
<event>
 6    0  0.7442036E+002  0.8432106E+02  0.7546771E-02  0.1317218E+00
         21   -1    0    0  504  501  0.00000000000E+00  0.00000000000E+00  0.18158474102E+04  0.18158474102E+04  0.00000000000E+00 0. -1.
         21   -1    0    0  503  502 -0.00000000000E+00 -0.00000000000E+00 -0.85568936086E+02  0.85568936086E+02  0.00000000000E+00 0.  1.
         21    1    1    2  503  506 -0.28915340502E+02 -0.54571204645E+02  0.62458024787E+02  0.87835745303E+02  0.00000000000E+00 0.  1.
         21    1    1    2  504  505  0.79257780652E+02 -0.40383602080E+02  0.15047302810E+04  0.15073572402E+04  0.00000000000E+00 0. -1.
         21    1    1    2  505  502 -0.57149769428E+02  0.52155939284E+02 -0.47787020170E+02  0.90939196417E+02  0.00000000000E+00 0.  1.
         21    1    1    2  506  501  0.68073292784E+01  0.42798867440E+02  0.21087718851E+03  0.21528416435E+03  0.00000000000E+00 0. -1.
<scales pt_clust_3="59.83956" pt_clust_4="14000.00000" pt_clust_5="84.32106" pt_clust_6="43.33685"></scales>
<clustering>
<clus scale="   43.337">  1  6  2 -1</clus>
<clus scale="   59.840">  2  3  1 -1</clus>
<clus scale="   84.321">  2  5  1 -1</clus>
<clus scale="   43.337">  1  3  2 -1</clus>
</clustering>
</event>
<event>
 6    0  0.7442036E+002  0.7245340E+02  0.7546771E-02  0.1351943E+00
         21   -1    0    0  505  501  0.00000000000E+00  0.00000000000E+00  0.53177486362E+03  0.53177486362E+03  0.00000000000E+00 0. -1.
         21   -1    0    0  504  502 -0.00000000000E+00 -0.00000000000E+00 -0.25189125419E+03  0.25189125419E+03  0.00000000000E+00 0.  1.
         21    1    1    2  503  501 -0.10039712099E+03 -0.45250938471E+02  0.10793402670E+03  0.15419787111E+03  0.00000000000E+00 0. -1.
         21    1    1    2  504  503  0.68864725966E+02  0.67220622429E+02 -0.14760924023E+03  0.17620854226E+03  0.00000000000E+00 0.  1.
         21    1    1    2  505  506  0.37298030992E+02  0.36128977755E+02  0.37150211348E+03  0.37511367140E+03  0.00000000000E+00 0. -1.
         21    1    1    2  506  502 -0.57656359648E+01 -0.58098661713E+02 -0.51943290517E+02  0.78146033045E+02  0.00000000000E+00 0.  1.
<scales pt_clust_3="72.45340" pt_clust_4="14000.00000" pt_clust_5="51.92732" pt_clust_6="55.17689"></scales>
<clustering>
<clus scale="   51.927">  1  5  2 -1</clus>
<clus scale="   55.177">  2  6  1 -1</clus>
<clus scale="   72.453">  1  3  2 -1</clus>
<clus scale="   51.927">  1  3  2 -1</clus>
</clustering>
</event>
<event>
 6    0  0.7442036E+002  0.1051367E+03  0.7546771E-02  0.1269850E+00
         21   -1    0    0  505  501  0.00000000000E+00  0.00000000000E+00  0.13290504407E+03  0.13290504407E+03  0.00000000000E+00 0.  1.
         21   -1    0    0  506  502 -0.00000000000E+00 -0.00000000000E+00 -0.31375395012E+03  0.31375395012E+03  0.00000000000E+00 0. -1.
         21    1    1    2  503  504 -0.25781766694E+02  0.96493388672E+02 -0.19120510387E+03  0.21571987692E+03  0.00000000000E+00 0. -1.
         21    1    1    2  504  502  0.32347512612E+02  0.81946190707E+01 -0.51048555569E+02  0.60987444442E+02  0.00000000000E+00 0. -1.
         21    1    1    2  505  503  0.22847969322E+02 -0.11804953212E+03  0.66250732814E+02  0.13728394420E+03  0.00000000000E+00 0.  1.
         21    1    1    2  506  501 -0.29413715240E+02  0.13361524375E+02 -0.48459794231E+01  0.32667728639E+02  0.00000000000E+00 0. -1.
<scales pt_clust_3="105.13675" pt_clust_4="32.32660" pt_clust_5="14000.00000" pt_clust_6="32.30630"></scales>
<clustering>
<clus scale="   32.306">  1  6  2 -1</clus>
<clus scale="   32.327">  2  4  1 -1</clus>
<clus scale="  105.137">  2  3  1 -1</clus>
<clus scale="   32.306">  1  3  2 -1</clus>
</clustering>
</event>
<event>
 6    0  0.7442036E+002  0.2079207E+03  0.7546771E-02  0.1143223E+00
         21   -1    0    0  503  501  0.00000000000E+00  0.00000000000E+00  0.96873676214E+03  0.96873676214E+03  0.00000000000E+00 0. -1.
         21   -1    0    0  504  502 -0.00000000000E+00 -0.00000000000E+00 -0.82283392063E+02  0.82283392063E+02  0.00000000000E+00 0. -1.
         21    1    1    2  503  505  0.37982150562E+02  0.56226553866E+02  0.41415215946E+03  0.41967377844E+03  0.00000000000E+00 0. -1.
         21    1    1    2  504  501 -0.19526569525E+03  0.44396204340E+02  0.14759632764E+03  0.24876573444E+03  0.00000000000E+00 0. -1.
         21    1    1    2  505  506  0.11397035448E+03 -0.55130939175E+02  0.27407204015E+03  0.30190088663E+03  0.00000000000E+00 0. -1.
         21    1    1    2  506  502  0.43313190202E+02 -0.45491819032E+02  0.50632842824E+02  0.80679754690E+02  0.00000000000E+00 0. -1.
<scales pt_clust_3="67.85329" pt_clust_4="192.76765" pt_clust_5="54.88517" pt_clust_6="54.88517"></scales>
<clustering>
<clus scale="   54.885">  5  6 -1 -1</clus>
<clus scale="   67.853">  1  3  2 -1</clus>
<clus scale="  192.768">  2  4  1 -1</clus>
<clus scale="   67.853">  1  3  2 -1</clus>
</clustering>
</event>
<event>
 6    0  0.7442036E+002  0.8177848E+02  0.7546771E-02  0.1324079E+00
         21   -1    0    0  506  501  0.00000000000E+00  0.00000000000E+00  0.22035026046E+03  0.22035026046E+03  0.00000000000E+00 0. -1.
         21   -1    0    0  505  502 -0.00000000000E+00 -0.00000000000E+00 -0.15099171920E+03  0.15099171920E+03  0.00000000000E+00 0. -1.
         21    1    1    2  503  502  0.74990960732E+02  0.22851439199E+02 -0.78994086446E+02  0.11129195011E+03  0.00000000000E+00 0. -1.
         21    1    1    2  504  501  0.22581602144E+02  0.30272430813E+02 -0.15438888772E+01  0.37798576899E+02  0.00000000000E+00 0. -1.
         21    1    1    2  505  504 -0.68918858358E+01  0.35056378970E+02  0.19995361663E+02  0.40942182220E+02  0.00000000000E+00 0. -1.
         21    1    1    2  506  503 -0.90680677041E+02 -0.88180248982E+02  0.12990115492E+03  0.18130927044E+03  0.00000000000E+00 0. -1.
<scales pt_clust_3="14000.00000" pt_clust_4="76.54835" pt_clust_5="35.67854" pt_clust_6="81.77848"></scales>
<clustering>
<clus scale="   35.679">  4  5 -1 -1</clus>
<clus scale="   76.548">  1  4  2 -1</clus>
<clus scale="   81.778">  1  6  2 -1</clus>
<clus scale="   76.548">  1  3  2 -1</clus>
</clustering>
</event>
<event>
 6    0  0.7442036E+002  0.1415790E+03  0.7546771E-02  0.1211220E+00
         21   -1    0    0  505  501  0.00000000000E+00  0.00000000000E+00  0.14576083912E+03  0.14576083912E+03  0.00000000000E+00 0. -1.
         21   -1    0    0  504  502 -0.00000000000E+00 -0.00000000000E+00 -0.77022007169E+03  0.77022007169E+03  0.00000000000E+00 0.  1.
         21    1    1    2  503  501  0.92098648943E+01  0.72276450770E+02  0.51270102668E+02  0.89091696442E+02  0.00000000000E+00 0. -1.
         21    1    1    2  504  503  0.16681181886E+03 -0.11050479896E+03 -0.26881564931E+03  0.33511094702E+03  0.00000000000E+00 0.  1.
         21    1    1    2  505  506 -0.51690445683E+02  0.10235854662E+02  0.11885006978E+02  0.54017851553E+02  0.00000000000E+00 0. -1.
         21    1    1    2  506  502 -0.12433123807E+03  0.27992493526E+02 -0.41879869291E+03  0.43776041580E+03  0.00000000000E+00 0.  1.
<scales pt_clust_3="81.92397" pt_clust_4="14000.00000" pt_clust_5="52.69416" pt_clust_6="141.57902"></scales>
<clustering>
<clus scale="   52.694">  1  5  2 -1</clus>
<clus scale="   81.924">  1  3  2 -1</clus>
<clus scale="  141.579">  2  6  1 -1</clus>
<clus scale="   52.694">  1  3  2 -1</clus>
</clustering>
</event>
<event>
 6    0  0.7442036E+002  0.1732924E+03  0.7546771E-02  0.1174457E+00
         21   -1    0    0  506  501  0.00000000000E+00  0.00000000000E+00  0.71158500656E+02  0.71158500656E+02  0.00000000000E+00 0.  1.
         21   -1    0    0  503  502 -0.00000000000E+00 -0.00000000000E+00 -0.63490668943E+03  0.63490668943E+03  0.00000000000E+00 0.  1.
         21    1    1    2  503  505 -0.13979685894E+02  0.40305354554E+02 -0.20150377171E+03  0.20597019987E+03  0.00000000000E+00 0.  1.
         21    1    1    2  504  501  0.42283121142E+01  0.35992297109E+02 -0.21265498047E+02  0.42018394564E+02  0.00000000000E+00 0.  1.
         21    1    1    2  505  504  0.30685792877E+02  0.99216731024E+02 -0.22175202819E+03  0.24486637092E+03  0.00000000000E+00 0.  1.
         21    1    1    2  506  502 -0.20934419098E+02 -0.17551438269E+03 -0.11922689083E+03  0.21321022473E+03  0.00000000000E+00 0.  1.
<scales pt_clust_3="42.66091" pt_clust_4="36.14937" pt_clust_5="36.14937" pt_clust_6="162.12770"></scales>
<clustering>
<clus scale="   36.149">  4  5 -1 -1</clus>
<clus scale="   42.661">  2  3  1 -1</clus>
<clus scale="  162.128">  1  6  2 -1</clus>
<clus scale="  162.128">  1  3  2 -1</clus>
</clustering>
</event>
<event>
 6    0  0.7442036E+002  0.7497619E+02  0.7546771E-02  0.1343945E+00
         21   -1    0    0  505  501  0.00000000000E+00  0.00000000000E+00  0.13390954390E+04  0.13390954390E+04  0.00000000000E+00 0. -1.
         21   -1    0    0  506  502 -0.00000000000E+00 -0.00000000000E+00 -0.12948176053E+03  0.12948176053E+03  0.00000000000E+00 0.  1.
         21    1    1    2  503  501 -0.11952177729E+03 -0.30004613312E+01  0.83024710031E+03  0.83881148394E+03  0.00000000000E+00 0. -1.
         21    1    1    2  504  502 -0.39676165421E+02 -0.14767494103E+02 -0.24765492646E+02  0.49046983705E+02  0.00000000000E+00 0.  1.
         21    1    1    2  505  504  0.57407092618E+02 -0.30787209360E+02  0.45310681905E+03  0.45776545961E+03  0.00000000000E+00 0. -1.
         21    1    1    2  506  503  0.10179085009E+03  0.48555164794E+02 -0.48974748264E+02  0.12295327226E+03  0.00000000000E+00 0.  1.
<scales pt_clust_3="74.97619" pt_clust_4="42.33529" pt_clust_5="64.44238" pt_clust_6="14000.00000"></scales>
<clustering>
<clus scale="   42.335">  2  4  1 -1</clus>
<clus scale="   64.442">  1  5  2 -1</clus>
<clus scale="   74.976">  1  3  2 -1</clus>
<clus scale="   64.442">  1  3  2 -1</clus>
</clustering>
</event>
<event>
 6    0  0.7442036E+002  0.1808496E+03  0.7546771E-02  0.1166983E+00
         21   -1    0    0  506  501  0.00000000000E+00  0.00000000000E+00  0.11904328836E+03  0.11904328836E+03  0.00000000000E+00 0.  1.
         21   -1    0    0  504  502 -0.00000000000E+00 -0.00000000000E+00 -0.68764714633E+03  0.68764714633E+03  0.00000000000E+00 0.  1.
         21    1    1    2  503  501  0.16696134555E+03  0.11680724159E+03 -0.32045413292E+02  0.20626907453E+03  0.00000000000E+00 0.  1.
         21    1    1    2  504  505 -0.85938013847E+02 -0.32090502591E+02 -0.10770176640E+03  0.14147371864E+03  0.00000000000E+00 0.  1.
         21    1    1    2  505  503 -0.38500841984E+02  0.22626291335E+02 -0.81892391808E+02  0.93277155451E+02  0.00000000000E+00 0.  1.
         21    1    1    2  506  502 -0.42522489718E+02 -0.10734303033E+03 -0.34696428646E+03  0.36567048606E+03  0.00000000000E+00 0.  1.
<scales pt_clust_3="170.64338" pt_clust_4="41.78995" pt_clust_5="41.78995" pt_clust_6="115.45860"></scales>
<clustering>
<clus scale="   41.790">  4  5 -1 -1</clus>
<clus scale="  115.459">  2  6  1 -1</clus>
<clus scale="  170.643">  1  3  2 -1</clus>
<clus scale="  170.643">  1  3  2 -1</clus>
</clustering>
</event>
<event>
 6    0  0.7442036E+002  0.1113227E+03  0.7546771E-02  0.1258140E+00
         21   -1    0    0  505  501  0.00000000000E+00  0.00000000000E+00  0.82355328058E+03  0.82355328058E+03  0.00000000000E+00 0. -1.
         21   -1    0    0  504  502 -0.00000000000E+00 -0.00000000000E+00 -0.43053186075E+03  0.43053186075E+03  0.00000000000E+00 0. -1.
         21    1    1    2  503  501  0.98575723568E+02  0.54656394306E+02  0.78965922805E+03  0.79766295586E+03  0.00000000000E+00 0. -1.
         21    1    1    2  504  503 -0.33228606916E+02 -0.24365557374E+02  0.46452920618E+01  0.41465641706E+02  0.00000000000E+00 0.  1.
         21    1    1    2  505  506 -0.22371284807E+02 -0.51867547210E+02 -0.18706759984E+03  0.19540983534E+03  0.00000000000E+00 0.  1.
         21    1    1    2  506  502 -0.42975831846E+02  0.21576710278E+02 -0.21421550045E+03  0.21954670843E+03  0.00000000000E+00 0. -1.
<scales pt_clust_3="111.32270" pt_clust_4="41.20462" pt_clust_5="14000.00000" pt_clust_6="61.09302"></scales>
<clustering>
<clus scale="   41.205">  2  4  1 -1</clus>
<clus scale="   61.093">  2  6  1 -1</clus>
<clus scale="  111.323">  1  3  2 -1</clus>
<clus scale="  111.323">  1  3  2 -1</clus>
</clustering>
</event>
<event>
 6    0  0.7442036E+002  0.7494307E+02  0.7546771E-02  0.1344047E+00
         21   -1    0    0  503  501  0.00000000000E+00  0.00000000000E+00  0.48114375648E+03  0.48114375648E+03  0.00000000000E+00 0.  1.
         21   -1    0    0  506  502 -0.00000000000E+00 -0.00000000000E+00 -0.94484458918E+02  0.94484458918E+02  0.00000000000E+00 0.  1.
         21    1    1    2  503  505 -0.36552274991E+02 -0.66193252522E+02  0.37496060007E+03  0.38250891112E+03  0.00000000000E+00 0.  1.
         21    1    1    2  504  501 -0.30130972377E+02  0.88146931092E+02 -0.21471795403E+02  0.95597044699E+02  0.00000000000E+00 0.  1.
         21    1    1    2  505  502  0.34354661652E+02  0.14807666518E+02  0.30889659280E+02  0.48514748431E+02  0.00000000000E+00 0.  1.
         21    1    1    2  506  504  0.32328585716E+02 -0.36761345087E+02  0.22808336224E+01  0.49007511149E+02  0.00000000000E+00 0.  1.
<scales pt_clust_3="74.94307" pt_clust_4="14000.00000" pt_clust_5="37.41002" pt_clust_6="53.00449"></scales>
<clustering>
<clus scale="   37.410">  2  5  1 -1</clus>
<clus scale="   53.004">  2  6  1 -1</clus>
<clus scale="   74.943">  1  3  2 -1</clus>
<clus scale="   74.943">  1  3  2 -1</clus>
</clustering>
</event>
<event>
 6    0  0.7442036E+002  0.8269955E+02  0.7546771E-02  0.1321560E+00
         21   -1    0    0  506  501  0.00000000000E+00  0.00000000000E+00  0.64826374464E+02  0.64826374464E+02  0.00000000000E+00 0.  1.
         21   -1    0    0  504  502 -0.00000000000E+00 -0.00000000000E+00 -0.11112236375E+04  0.11112236375E+04  0.00000000000E+00 0.  1.
         21    1    1    2  503  502 -0.18609880719E+02  0.48142118399E+02 -0.47709710031E+03  0.47988085433E+03  0.00000000000E+00 0.  1.
         21    1    1    2  504  501 -0.28506987466E+02 -0.15827829698E+02 -0.16456626509E+03  0.16776538419E+03  0.00000000000E+00 0. -1.
         21    1    1    2  505  503  0.17630850584E+02 -0.10857445343E+03 -0.42919092873E+03  0.44306219895E+03  0.00000000000E+00 0.  1.
         21    1    1    2  506  505  0.29486017601E+02  0.76260164724E+02  0.24457031145E+02  0.85341574453E+02  0.00000000000E+00 0.  1.
<scales pt_clust_3="51.98209" pt_clust_4="32.60627" pt_clust_5="14000.00000" pt_clust_6="82.69955"></scales>
<clustering>
<clus scale="   32.606">  2  4  1 -1</clus>
<clus scale="   51.982">  2  3  1 -1</clus>
<clus scale="   82.700">  1  6  2 -1</clus>
<clus scale="   82.700">  1  3  2 -1</clus>
</clustering>
</event>
<event>
 6    0  0.7442036E+002  0.2033326E+03  0.7546771E-02  0.1146957E+00
         21   -1    0    0  505  501  0.00000000000E+00  0.00000000000E+00  0.89093202537E+03  0.89093202537E+03  0.00000000000E+00 0.  1.
         21   -1    0    0  504  502 -0.00000000000E+00 -0.00000000000E+00 -0.13510051545E+03  0.13510051545E+03  0.00000000000E+00 0.  1.
         21    1    1    2  503  502  0.24813570376E+03 -0.23916405836E+02  0.33308667970E+03  0.41604093325E+03  0.00000000000E+00 0.  1.
         21    1    1    2  504  506 -0.93922488236E+02  0.80690814497E+02  0.17413321478E+02  0.12504265314E+03  0.00000000000E+00 0.  1.
         21    1    1    2  505  503  0.80112606513E+01 -0.36373493794E+02  0.27041844962E+03  0.27297133410E+03  0.00000000000E+00 0.  1.
         21    1    1    2  506  501 -0.16222447617E+03 -0.20400914867E+02  0.13491305912E+03  0.21197762033E+03  0.00000000000E+00 0.  1.
<scales pt_clust_3="14000.00000" pt_clust_4="120.42631" pt_clust_5="37.24529" pt_clust_6="203.33257"></scales>
<clustering>
<clus scale="   37.245">  1  5  2 -1</clus>
<clus scale="  120.426">  2  4  1 -1</clus>
<clus scale="  203.333">  1  6  2 -1</clus>
<clus scale="   37.245">  1  3  2 -1</clus>
</clustering>
</event>
<event>
 6    0  0.7442036E+002  0.1085500E+03  0.7546771E-02  0.1263279E+00
         21   -1    0    0  505  501  0.00000000000E+00  0.00000000000E+00  0.10221873496E+03  0.10221873496E+03  0.00000000000E+00 0. -1.
         21   -1    0    0  506  502 -0.00000000000E+00 -0.00000000000E+00 -0.21770194024E+03  0.21770194024E+03  0.00000000000E+00 0. -1.
         21    1    1    2  503  501  0.22305211066E+02  0.82914781479E+02  0.23783452597E+01  0.85895517663E+02  0.00000000000E+00 0. -1.
         21    1    1    2  504  503 -0.34986971664E+02 -0.66424477743E+02 -0.85881754479E+02  0.11407004507E+03  0.00000000000E+00 0. -1.
         21    1    1    2  505  502  0.54250972262E+02 -0.10661743685E+02  0.14668399583E+02  0.57201422326E+02  0.00000000000E+00 0. -1.
         21    1    1    2  506  504 -0.41569211664E+02 -0.58285600516E+01 -0.46648195643E+02  0.62753690150E+02  0.00000000000E+00 0. -1.
<scales pt_clust_3="95.71835" pt_clust_4="38.28182" pt_clust_5="55.28870" pt_clust_6="38.28182"></scales>
<clustering>
<clus scale="   38.282">  4  6 -1 -1</clus>
<clus scale="   55.289">  1  5  2 -1</clus>
<clus scale="   95.718">  1  3  2 -1</clus>
<clus scale="   55.289">  1  3  2 -1</clus>
</clustering>
</event>
<event>
 6    0  0.7442036E+002  0.9621659E+02  0.7546771E-02  0.1288459E+00
         21   -1    0    0  506  501  0.00000000000E+00  0.00000000000E+00  0.25558793379E+03  0.25558793379E+03  0.00000000000E+00 0. -1.
         21   -1    0    0  504  502 -0.00000000000E+00 -0.00000000000E+00 -0.17644067309E+04  0.17644067309E+04  0.00000000000E+00 0.  1.
         21    1    1    2  503  502 -0.88130679577E+02 -0.18746111793E+02 -0.53590579939E+03  0.54342751054E+03  0.00000000000E+00 0.  1.
         21    1    1    2  504  505  0.77686124132E+02  0.70477333228E+02 -0.12016764208E+04  0.12062455839E+04  0.00000000000E+00 0.  1.
         21    1    1    2  505  501 -0.32749495493E+02  0.30574229235E+01  0.18513843544E+03  0.18803754297E+03  0.00000000000E+00 0. -1.
         21    1    1    2  506  503  0.43194050938E+02 -0.54788644358E+02  0.43624987683E+02  0.82284027231E+02  0.00000000000E+00 0.  1.
<scales pt_clust_3="14000.00000" pt_clust_4="96.21659" pt_clust_5="32.89190" pt_clust_6="53.67650"></scales>
<clustering>
<clus scale="   32.892">  1  5  2 -1</clus>
<clus scale="   53.676">  1  6  2 -1</clus>
<clus scale="   96.217">  2  4  1 -1</clus>
<clus scale="   32.892">  1  3  2 -1</clus>
</clustering>
</event>
<event>
 6    0  0.7442036E+002  0.8894349E+02  0.7546771E-02  0.1305431E+00
         21   -1    0    0  503  501  0.00000000000E+00  0.00000000000E+00  0.73255630014E+02  0.73255630014E+02  0.00000000000E+00 0.  1.
         21   -1    0    0  505  502 -0.00000000000E+00 -0.00000000000E+00 -0.17113009063E+04  0.17113009063E+04  0.00000000000E+00 0.  1.
         21    1    1    2  503  506  0.77445218308E+02 -0.42922626341E+02  0.31728171726E+02  0.94057379147E+02  0.00000000000E+00 0.  1.
         21    1    1    2  504  502 -0.28025702299E+02  0.27078569733E+02 -0.20623915130E+03  0.20988872399E+03  0.00000000000E+00 0. -1.
         21    1    1    2  505  501 -0.11870652018E+03  0.15236609173E+01 -0.12507605024E+04  0.12563818663E+04  0.00000000000E+00 0.  1.
         21    1    1    2  506  504  0.69287004175E+02  0.14320395691E+02 -0.21277379426E+03  0.22422856688E+03  0.00000000000E+00 0.  1.
<scales pt_clust_3="88.94349" pt_clust_4="38.97036" pt_clust_5="14000.00000" pt_clust_6="67.72058"></scales>
<clustering>
<clus scale="   38.970">  2  4  1 -1</clus>
<clus scale="   67.721">  2  6  1 -1</clus>
<clus scale="   88.943">  1  3  2 -1</clus>
<clus scale="   88.943">  1  3  2 -1</clus>
</clustering>
</event>
<event>
 6    0  0.7442036E+002  0.1388425E+03  0.7546771E-02  0.1214895E+00
         21   -1    0    0  503  501  0.00000000000E+00  0.00000000000E+00  0.16710905602E+03  0.16710905602E+03  0.00000000000E+00 0.  1.
         21   -1    0    0  504  502 -0.00000000000E+00 -0.00000000000E+00 -0.87525528451E+03  0.87525528451E+03  0.00000000000E+00 0.  1.
         21    1    1    2  503  505  0.31737602840E+02 -0.16715285118E+02  0.94446128224E+02  0.10102844811E+03  0.00000000000E+00 0.  1.
         21    1    1    2  504  506 -0.79114302602E+02  0.10816059368E+02 -0.59064576966E+03  0.59601886316E+03  0.00000000000E+00 0.  1.
         21    1    1    2  505  502  0.83184799943E+02 -0.38252231273E+02  0.30337231360E+02  0.96453573005E+02  0.00000000000E+00 0.  1.
         21    1    1    2  506  501 -0.35808100181E+02  0.44151457023E+02 -0.24228381841E+03  0.24886345625E+03  0.00000000000E+00 0.  1.
<scales pt_clust_3="35.87027" pt_clust_4="51.89359" pt_clust_5="124.30361" pt_clust_6="51.89359"></scales>
<clustering>
<clus scale="   35.870">  1  3  2 -1</clus>
<clus scale="   51.894">  4  6 -1 -1</clus>
<clus scale="  124.304">  1  5  2 -1</clus>
<clus scale="   35.870">  1  3  2 -1</clus>
</clustering>
</event>
<event>
 6    0  0.7442036E+002  0.8440452E+02  0.7546771E-02  0.1316997E+00
         21   -1    0    0  503  501  0.00000000000E+00  0.00000000000E+00  0.31736501182E+03  0.31736501182E+03  0.00000000000E+00 0.  1.
         21   -1    0    0  505  502 -0.00000000000E+00 -0.00000000000E+00 -0.17125236181E+03  0.17125236181E+03  0.00000000000E+00 0. -1.
         21    1    1    2  503  504  0.81452029373E+01 -0.29948844176E+02  0.12309175211E+02  0.33388521871E+02  0.00000000000E+00 0.  1.
         21    1    1    2  504  506  0.45921630017E+02 -0.55729317931E+02 -0.50487094850E+02  0.88110724244E+02  0.00000000000E+00 0. -1.
         21    1    1    2  505  501 -0.34858474883E+02  0.11112003499E+03  0.26004365779E+03  0.28493065719E+03  0.00000000000E+00 0.  1.
         21    1    1    2  506  502 -0.19208358071E+02 -0.25441872888E+02 -0.75753088139E+02  0.82187470325E+02  0.00000000000E+00 0. -1.
<scales pt_clust_3="31.03671" pt_clust_4="14000.00000" pt_clust_5="84.40452" pt_clust_6="32.08728"></scales>
<clustering>
<clus scale="   31.037">  1  3  2 -1</clus>
<clus scale="   32.087">  2  6  1 -1</clus>
<clus scale="   84.405">  1  5  2 -1</clus>
<clus scale="   31.037">  1  3  2 -1</clus>
</clustering>
</event>
<event>
 6    0  0.7442036E+002  0.1236111E+03  0.7546771E-02  0.1237256E+00
         21   -1    0    0  504  501  0.00000000000E+00  0.00000000000E+00  0.85851734733E+02  0.85851734733E+02  0.00000000000E+00 0.  1.
         21   -1    0    0  506  502 -0.00000000000E+00 -0.00000000000E+00 -0.12680880502E+04  0.12680880502E+04  0.00000000000E+00 0.  1.
         21    1    1    2  503  505 -0.58151396821E+02 -0.51117836927E+02 -0.94281240481E+03  0.94598617794E+03  0.00000000000E+00 0.  1.
         21    1    1    2  504  502  0.57165349286E+02  0.29424637575E+02 -0.39502420349E+02  0.75459443868E+02  0.00000000000E+00 0. -1.
         21    1    1    2  505  501  0.53141484316E+02  0.48952623712E+02  0.41962774891E+02  0.83553882018E+02  0.00000000000E+00 0.  1.
         21    1    1    2  506  503 -0.52155436782E+02 -0.27259424360E+02 -0.24188426519E+03  0.24894028109E+03  0.00000000000E+00 0. -1.
<scales pt_clust_3="14000.00000" pt_clust_4="60.98610" pt_clust_5="123.61114" pt_clust_6="58.84952"></scales>
<clustering>
<clus scale="   58.850">  2  6  1 -1</clus>
<clus scale="   60.986">  1  4  2 -1</clus>
<clus scale="  123.611">  1  5  2 -1</clus>
<clus scale="   60.986">  1  3  2 -1</clus>
</clustering>
</event>
<event>
 6    0  0.7442036E+002  0.1778982E+03  0.7546771E-02  0.1169853E+00
         21   -1    0    0  504  501  0.00000000000E+00  0.00000000000E+00  0.16506550900E+04  0.16506550900E+04  0.00000000000E+00 0.  1.
         21   -1    0    0  506  502 -0.00000000000E+00 -0.00000000000E+00 -0.27277483962E+03  0.27277483962E+03  0.00000000000E+00 0. -1.
         21    1    1    2  503  502  0.14691409500E+03  0.61747154844E+02 -0.23994448807E+03  0.28804482254E+03  0.00000000000E+00 0. -1.
         21    1    1    2  504  505 -0.90954885197E+02  0.15269039481E+02  0.99752196681E+03  0.10017764266E+04  0.00000000000E+00 0.  1.
         21    1    1    2  505  503 -0.73455862487E+02 -0.39597521220E+02  0.48548435470E+03  0.49260408654E+03  0.00000000000E+00 0.  1.
         21    1    1    2  506  501  0.17496652689E+02 -0.37418673105E+02  0.13481841692E+03  0.14100459387E+03  0.00000000000E+00 0.  1.
<scales pt_clust_3="159.38997" pt_clust_4="76.51268" pt_clust_5="76.51268" pt_clust_6="41.30726"></scales>
<clustering>
<clus scale="   41.307">  1  6  2 -1</clus>
<clus scale="   76.513">  4  5 -1 -1</clus>
<clus scale="  159.390">  2  3  1 -1</clus>
<clus scale="   41.307">  1  3  2 -1</clus>
</clustering>
</event>
<event>
 6    0  0.7442036E+002  0.1842735E+03  0.7546771E-02  0.1163730E+00
         21   -1    0    0  505  501  0.00000000000E+00  0.00000000000E+00  0.24681587094E+04  0.24681587094E+04  0.00000000000E+00 0. -1.
         21   -1    0    0  503  502 -0.00000000000E+00 -0.00000000000E+00 -0.23615600410E+02  0.23615600410E+02  0.00000000000E+00 0. -1.
         21    1    1    2  503  504  0.34617829651E+02 -0.61827988657E+02  0.42947442924E+03  0.43528080555E+03  0.00000000000E+00 0. -1.
         21    1    1    2  504  501  0.66529412734E+02 -0.68459210342E+02  0.29629724801E+03  0.31129549534E+03  0.00000000000E+00 0. -1.
         21    1    1    2  505  506 -0.59517734894E+02 -0.61047499944E+02  0.86831074436E+03  0.87248650808E+03  0.00000000000E+00 0. -1.
         21    1    1    2  506  502 -0.41629507491E+02  0.19133469894E+03  0.85046068734E+03  0.87271150080E+03  0.00000000000E+00 0. -1.
<scales pt_clust_3="50.42989" pt_clust_4="50.42989" pt_clust_5="85.25936" pt_clust_6="174.73006"></scales>
<clustering>
<clus scale="   50.430">  3  4 -1 -1</clus>
<clus scale="   85.259">  1  5  2 -1</clus>
<clus scale="  174.730">  1  6  2 -1</clus>
<clus scale="   85.259">  1  3  2 -1</clus>
</clustering>
</event>
<event>
 6    0  0.7442036E+002  0.2255754E+03  0.7546771E-02  0.1129793E+00
         21   -1    0    0  506  501  0.00000000000E+00  0.00000000000E+00  0.10207631675E+04  0.10207631675E+04  0.00000000000E+00 0.  1.
         21   -1    0    0  504  502 -0.00000000000E+00 -0.00000000000E+00 -0.21341297662E+03  0.21341297662E+03  0.00000000000E+00 0.  1.
         21    1    1    2  503  505 -0.11749986789E+03 -0.15827310687E+02 -0.73383255013E+02  0.13943394434E+03  0.00000000000E+00 0.  1.
         21    1    1    2  504  501  0.25199020490E+02  0.17649606191E+02  0.46964322715E+02  0.56143983119E+02  0.00000000000E+00 0.  1.
         21    1    1    2  505  502 -0.10428319656E+03  0.29884783183E+02 -0.59278332997E+02  0.12362041139E+03  0.00000000000E+00 0.  1.
         21    1    1    2  506  503  0.19658404395E+03 -0.31707078687E+02  0.89304745615E+03  0.91497780526E+03  0.00000000000E+00 0.  1.
<scales pt_clust_3="45.04407" pt_clust_4="30.76523" pt_clust_5="45.04407" pt_clust_6="220.61533"></scales>
<clustering>
<clus scale="   30.765">  1  4  2 -1</clus>
<clus scale="   45.044">  3  5 -1 -1</clus>
<clus scale="  220.615">  1  6  2 -1</clus>
<clus scale="   30.765">  1  3  2 -1</clus>
</clustering>
</event>
<event>
 6    0  0.7442036E+002  0.1146080E+03  0.7546771E-02  0.1252267E+00
         21   -1    0    0  504  501  0.00000000000E+00  0.00000000000E+00  0.18916499231E+04  0.18916499231E+04  0.00000000000E+00 0. -1.
         21   -1    0    0  506  502 -0.00000000000E+00 -0.00000000000E+00 -0.48232867746E+02  0.48232867746E+02  0.00000000000E+00 0. -1.
         21    1    1    2  503  502 -0.20633645765E+02 -0.62353571703E+02  0.11908740787E+03  0.13599825718E+03  0.00000000000E+00 0. -1.
         21    1    1    2  504  505  0.10355134384E+03  0.28054298419E+02  0.14523906197E+04  0.14563476359E+04  0.00000000000E+00 0. -1.
         21    1    1    2  505  503 -0.12228213187E+02 -0.53973627894E+02  0.21287880880E+03  0.21995469748E+03  0.00000000000E+00 0.  1.
         21    1    1    2  506  501 -0.70689484887E+02  0.88272901178E+02  0.59060218963E+02  0.12758220025E+03  0.00000000000E+00 0. -1.
<scales pt_clust_3="39.89612" pt_clust_4="107.28432" pt_clust_5="39.89612" pt_clust_6="106.04704"></scales>
<clustering>
<clus scale="   39.896">  3  5 -1 -1</clus>
<clus scale="  107.284">  1  4  2 -1</clus>
<clus scale="  106.047">  2  6  1 -1</clus>
<clus scale="  107.284">  1  3  2 -1</clus>
</clustering>
</event>
<event>
 6    0  0.7442036E+002  0.1338069E+03  0.7546771E-02  0.1221914E+00
         21   -1    0    0  504  501  0.00000000000E+00  0.00000000000E+00  0.27846591645E+03  0.27846591645E+03  0.00000000000E+00 0.  1.
         21   -1    0    0  503  502 -0.00000000000E+00 -0.00000000000E+00 -0.44086474564E+03  0.44086474564E+03  0.00000000000E+00 0. -1.
         21    1    1    2  503  505  0.36682457390E+00 -0.57138067058E+02 -0.25030305843E+03  0.25674211638E+03  0.00000000000E+00 0. -1.
         21    1    1    2  504  502 -0.21299300770E+02  0.88317094269E+02  0.36947278450E+02  0.98074822142E+02  0.00000000000E+00 0.  1.
         21    1    1    2  505  506 -0.24688871235E+01 -0.73400256985E+02 -0.14508599617E+03  0.16261500366E+03  0.00000000000E+00 0. -1.
         21    1    1    2  506  501  0.23401363320E+02  0.42221229774E+02  0.19604294696E+03  0.20189871991E+03  0.00000000000E+00 0.  1.
<scales pt_clust_3="43.95447" pt_clust_4="124.18158" pt_clust_5="43.95447" pt_clust_6="48.27273"></scales>
<clustering>
<clus scale="   43.954">  3  5 -1 -1</clus>
<clus scale="   48.273">  1  6  2 -1</clus>
<clus scale="  124.182">  1  4  2 -1</clus>
<clus scale="   48.273">  1  3  2 -1</clus>
</clustering>
</event>
<event>
 6    0  0.7442036E+002  0.1090018E+03  0.7546771E-02  0.1262430E+00
         21   -1    0    0  504  501  0.00000000000E+00  0.00000000000E+00  0.10381116715E+04  0.10381116715E+04  0.00000000000E+00 0. -1.
         21   -1    0    0  503  502 -0.00000000000E+00 -0.00000000000E+00 -0.18318656989E+02  0.18318656989E+02  0.00000000000E+00 0. -1.
         21    1    1    2  503  505 -0.25699066480E+02 -0.34715123069E+02  0.62852490049E+02  0.76262817238E+02  0.00000000000E+00 0. -1.
         21    1    1    2  504  502  0.10757637265E+03  0.42718796765E+02  0.52988560356E+03  0.54238023970E+03  0.00000000000E+00 0. -1.
         21    1    1    2  505  506 -0.37865726026E+02 -0.28224787743E+02  0.23682607398E+03  0.24148921542E+03  0.00000000000E+00 0. -1.
         21    1    1    2  506  501 -0.44011580144E+02  0.20221114047E+02  0.19022884697E+03  0.19629805618E+03  0.00000000000E+00 0. -1.
<scales pt_clust_3="43.19238" pt_clust_4="96.78610" pt_clust_5="48.46489" pt_clust_6="48.46489"></scales>
<clustering>
<clus scale="   43.192">  2  3  1 -1</clus>
<clus scale="   48.465">  5  6 -1 -1</clus>
<clus scale="   96.786">  2  4  1 -1</clus>
<clus scale="  109.002">  1  3  2 -1</clus>
</clustering>
</event>
<event>
 6    0  0.7442036E+002  0.1138249E+03  0.7546771E-02  0.1253646E+00
         21   -1    0    0  503  501  0.00000000000E+00  0.00000000000E+00  0.41858810301E+03  0.41858810301E+03  0.00000000000E+00 0. -1.
         21   -1    0    0  504  502 -0.00000000000E+00 -0.00000000000E+00 -0.95917285174E+02  0.95917285174E+02  0.00000000000E+00 0. -1.
         21    1    1    2  503  506 -0.16534699239E+02  0.64976869526E+02  0.16030674438E+03  0.17376317834E+03  0.00000000000E+00 0. -1.
         21    1    1    2  504  505  0.11176473862E+03 -0.33327943363E+01 -0.40746203670E+01  0.11188863592E+03  0.00000000000E+00 0. -1.
         21    1    1    2  505  501  0.23714353948E+02 -0.19081704480E+02  0.26866255429E+02  0.40598986561E+02  0.00000000000E+00 0.  1.
         21    1    1    2  506  502 -0.11894439333E+03 -0.42562370710E+02  0.13957243839E+03  0.18825458736E+03  0.00000000000E+00 0. -1.
<scales pt_clust_3="57.03763" pt_clust_4="113.82487" pt_clust_5="30.43817" pt_clust_6="14000.00000"></scales>
<clustering>
<clus scale="   30.438">  1  5  2 -1</clus>
<clus scale="   57.038">  1  3  2 -1</clus>
<clus scale="  113.825">  2  4  1 -1</clus>
<clus scale="   30.438">  1  3  2 -1</clus>
</clustering>
</event>
<event>
 6    0  0.7442036E+002  0.7492322E+02  0.7546771E-02  0.1344109E+00
         21   -1    0    0  506  501  0.00000000000E+00  0.00000000000E+00  0.29191519362E+04  0.29191519362E+04  0.00000000000E+00 0.  1.
         21   -1    0    0  505  502 -0.00000000000E+00 -0.00000000000E+00 -0.86544234165E+02  0.86544234165E+02  0.00000000000E+00 0.  1.
         21    1    1    2  503  501  0.25314273287E+02 -0.74815955621E+02  0.25820810847E+04  0.25832887891E+04  0.00000000000E+00 0.  1.
         21    1    1    2  504  503  0.38651235889E+01  0.11994020323E+03  0.49438057236E+02  0.12978718363E+03  0.00000000000E+00 0.  1.
         21    1    1    2  505  504 -0.88816179488E+00 -0.63515929719E+02 -0.21825143675E+02  0.67166949133E+02  0.00000000000E+00 0.  1.
         21    1    1    2  506  502 -0.28291235081E+02  0.18391682107E+02  0.22291370376E+03  0.22545324854E+03  0.00000000000E+00 0.  1.
<scales pt_clust_3="57.21881" pt_clust_4="14000.00000" pt_clust_5="74.92322" pt_clust_6="33.74386"></scales>
<clustering>
<clus scale="   33.744">  1  6  2 -1</clus>
<clus scale="   57.219">  1  3  2 -1</clus>
<clus scale="   74.923">  2  5  1 -1</clus>
<clus scale="   33.744">  1  3  2 -1</clus>
</clustering>
</event>
<event>
 6    0  0.7442036E+002  0.1676881E+03  0.7546771E-02  0.1180280E+00
         21   -1    0    0  503  501  0.00000000000E+00  0.00000000000E+00  0.39926461823E+03  0.39926461823E+03  0.00000000000E+00 0.  1.
         21   -1    0    0  501  502 -0.00000000000E+00 -0.00000000000E+00 -0.20355708200E+03  0.20355708200E+03  0.00000000000E+00 0.  1.
         21    1    1    2  503  505 -0.44075950257E+02  0.21765264889E+02  0.70451335610E+02  0.85905802109E+02  0.00000000000E+00 0.  1.
         21    1    1    2  504  502  0.31973761300E+02 -0.45074249706E+02 -0.32650755620E+02  0.64187858983E+02  0.00000000000E+00 0. -1.
         21    1    1    2  505  506  0.27706429187E+02  0.13638019329E+03  0.26301440787E+03  0.29756307246E+03  0.00000000000E+00 0.  1.
         21    1    1    2  506  504 -0.15604240230E+02 -0.11307120847E+03 -0.10510745163E+03  0.15516496668E+03  0.00000000000E+00 0.  1.
<scales pt_clust_3="49.15706" pt_clust_4="43.23236" pt_clust_5="155.75271" pt_clust_6="43.23236"></scales>
<clustering>
<clus scale="   43.232">  4  6 -1 -1</clus>
<clus scale="   49.157">  1  3  2 -1</clus>
<clus scale="  155.753">  1  5  2 -1</clus>
<clus scale="   49.157">  1  3  2 -1</clus>
</clustering>
</event>
<event>
 6    0  0.7442036E+002  0.9845520E+02  0.7546771E-02  0.1283578E+00
         21   -1    0    0  506  501  0.00000000000E+00  0.00000000000E+00  0.35750372249E+03  0.35750372249E+03  0.00000000000E+00 0.  1.
         21   -1    0    0  504  502 -0.00000000000E+00 -0.00000000000E+00 -0.15539970869E+03  0.15539970869E+03  0.00000000000E+00 0.  1.
         21    1    1    2  503  502 -0.32187710202E+02 -0.81514901642E+02 -0.32416430345E+02  0.93442778394E+02  0.00000000000E+00 0.  1.
         21    1    1    2  504  501  0.43922091848E+02  0.16837755643E+02 -0.92755999473E+01  0.47944727779E+02  0.00000000000E+00 0.  1.
         21    1    1    2  505  503 -0.94663992458E+02  0.45704437290E+01 -0.12422218250E+02  0.95584893839E+02  0.00000000000E+00 0.  1.
         21    1    1    2  506  505  0.82929610812E+02  0.60106702270E+02  0.25621826234E+03  0.27593103117E+03  0.00000000000E+00 0.  1.
<scales pt_clust_3="73.89161" pt_clust_4="47.03892" pt_clust_5="14000.00000" pt_clust_6="98.45520"></scales>
<clustering>
<clus scale="   47.039">  2  4  1 -1</clus>
<clus scale="   73.892">  2  3  1 -1</clus>
<clus scale="   98.455">  1  6  2 -1</clus>
<clus scale="   98.455">  1  3  2 -1</clus>
</clustering>
</event>
<event>
 6    0  0.7442036E+002  0.1197449E+03  0.7546771E-02  0.1243518E+00
         21   -1    0    0  504  501  0.00000000000E+00  0.00000000000E+00  0.11637497588E+03  0.11637497588E+03  0.00000000000E+00 0. -1.
         21   -1    0    0  503  502 -0.00000000000E+00 -0.00000000000E+00 -0.74225351030E+03  0.74225351030E+03  0.00000000000E+00 0. -1.
         21    1    1    2  503  505  0.44821428586E+02 -0.65190483814E+02 -0.29415172186E+03  0.30460465379E+03  0.00000000000E+00 0. -1.
         21    1    1    2  504  506 -0.94605935022E+02  0.58765017529E+02  0.73347071121E+02  0.13335442651E+03  0.00000000000E+00 0. -1.
         21    1    1    2  505  501  0.58508874851E+02 -0.30479716898E+02 -0.33035471241E+03  0.33687763000E+03  0.00000000000E+00 0. -1.
         21    1    1    2  506  502 -0.87243684147E+01  0.36905183184E+02 -0.74719171276E+02  0.83791775887E+02  0.00000000000E+00 0. -1.
<scales pt_clust_3="37.22040" pt_clust_4="112.59463" pt_clust_5="37.22040" pt_clust_6="37.92238"></scales>
<clustering>
<clus scale="   37.220">  3  5 -1 -1</clus>
<clus scale="   37.922">  2  6  1 -1</clus>
<clus scale="  112.595">  1  4  2 -1</clus>
<clus scale="  112.595">  1  3  2 -1</clus>
</clustering>
</event>
<event>
 6    0  0.7442036E+002  0.2844384E+03  0.7546771E-02  0.1093289E+00
         21   -1    0    0  504  501  0.00000000000E+00  0.00000000000E+00  0.17431903646E+04  0.17431903646E+04  0.00000000000E+00 0. -1.
         21   -1    0    0  505  502 -0.00000000000E+00 -0.00000000000E+00 -0.15835911175E+03  0.15835911175E+03  0.00000000000E+00 0.  1.
         21    1    1    2  503  501 -0.18116832790E+02 -0.26865634847E+02  0.65801926032E+02  0.73347634151E+02  0.00000000000E+00 0. -1.
         21    1    1    2  504  502 -0.10707305036E+03 -0.21800592347E+03  0.15218744385E+04  0.15411336825E+04  0.00000000000E+00 0. -1.
         21    1    1    2  505  506  0.90254612277E+02  0.20077444616E+03 -0.34032901037E+02  0.22274315168E+03  0.00000000000E+00 0.  1.
         21    1    1    2  506  503  0.34935270870E+02  0.44097112158E+02  0.31187789372E+02  0.64325008025E+02  0.00000000000E+00 0. -1.
<scales pt_clust_3="32.40343" pt_clust_4="272.28618" pt_clust_5="41.40954" pt_clust_6="41.40954"></scales>
<clustering>
<clus scale="   32.403">  1  3  2 -1</clus>
<clus scale="   41.410">  5  6 -1 -1</clus>
<clus scale="  272.286">  1  4  2 -1</clus>
<clus scale="   32.403">  1  3  2 -1</clus>
</clustering>
</event>
<event>
 6    0  0.7442036E+002  0.9265888E+02  0.7546771E-02  0.1296538E+00
         21   -1    0    0  506  501  0.00000000000E+00  0.00000000000E+00  0.66991119568E+02  0.66991119568E+02  0.00000000000E+00 0. -1.
         21   -1    0    0  504  502 -0.00000000000E+00 -0.00000000000E+00 -0.55955656543E+03  0.55955656543E+03  0.00000000000E+00 0. -1.
         21    1    1    2  503  505 -0.22620359485E+02 -0.31620650782E+02 -0.17777498415E+03  0.18197662270E+03  0.00000000000E+00 0. -1.
         21    1    1    2  504  501 -0.50932677901E+01  0.12030939088E+03 -0.94846931611E+02  0.15328480469E+03  0.00000000000E+00 0. -1.
         21    1    1    2  505  502  0.89789936600E+01 -0.48229208644E+02 -0.23813185330E+03  0.24313259438E+03  0.00000000000E+00 0. -1.
         21    1    1    2  506  503  0.18734633615E+02 -0.40459531457E+02  0.18188323198E+02  0.48153663237E+02  0.00000000000E+00 0. -1.
<scales pt_clust_3="30.54481" pt_clust_4="86.07210" pt_clust_5="30.54481" pt_clust_6="44.58655"></scales>
<clustering>
<clus scale="   30.545">  3  5 -1 -1</clus>
<clus scale="   44.587">  1  6  2 -1</clus>
<clus scale="   86.072">  1  4  2 -1</clus>
<clus scale="   44.587">  1  3  2 -1</clus>
</clustering>
</event>
<event>
 6    0  0.7442036E+002  0.9124969E+02  0.7546771E-02  0.1299853E+00
         21   -1    0    0  506  501  0.00000000000E+00  0.00000000000E+00  0.96121139059E+02  0.96121139059E+02  0.00000000000E+00 0.  1.
         21   -1    0    0  504  502 -0.00000000000E+00 -0.00000000000E+00 -0.41994807286E+03  0.41994807286E+03  0.00000000000E+00 0. -1.
         21    1    1    2  503  501 -0.18283439660E+02  0.12890438537E+03 -0.11938435749E+03  0.17664441555E+03  0.00000000000E+00 0.  1.
         21    1    1    2  504  505  0.16796874284E+02 -0.30550804047E+02 -0.92046077282E+02  0.98427470539E+02  0.00000000000E+00 0. -1.
         21    1    1    2  505  503 -0.65437331638E+02 -0.41514712942E+02 -0.13009547046E+03  0.15142769627E+03  0.00000000000E+00 0. -1.
         21    1    1    2  506  502  0.66923897014E+02 -0.56838868377E+02  0.17698971430E+02  0.89569629560E+02  0.00000000000E+00 0.  1.
<scales pt_clust_3="14000.00000" pt_clust_4="34.86383" pt_clust_5="79.87863" pt_clust_6="91.24969"></scales>
<clustering>
<clus scale="   34.864">  2  4  1 -1</clus>
<clus scale="   79.879">  2  5  1 -1</clus>
<clus scale="   91.250">  1  6  2 -1</clus>
<clus scale="   91.250">  1  3  2 -1</clus>
</clustering>
</event>
<event>
 6    0  0.7442036E+002  0.9059344E+02  0.7546771E-02  0.1301421E+00
         21   -1    0    0  503  501  0.00000000000E+00  0.00000000000E+00  0.48274802937E+03  0.48274802937E+03  0.00000000000E+00 0.  1.
         21   -1    0    0  505  502 -0.00000000000E+00 -0.00000000000E+00 -0.88044834753E+03  0.88044834753E+03  0.00000000000E+00 0. -1.
         21    1    1    2  503  504 -0.90813448263E+02 -0.16027656936E+01  0.45298438473E+03  0.46200054551E+03  0.00000000000E+00 0.  1.
         21    1    1    2  504  502  0.60319890796E+02 -0.74864641350E+02 -0.60010867248E+03  0.60776115583E+03  0.00000000000E+00 0. -1.
         21    1    1    2  505  506  0.56113391700E+02 -0.61845905979E+01 -0.15265216432E+03  0.16275639822E+03  0.00000000000E+00 0.  1.
         21    1    1    2  506  501 -0.25619834234E+02  0.82651997641E+02 -0.97923866088E+02  0.13067827734E+03  0.00000000000E+00 0.  1.
<scales pt_clust_3="90.59344" pt_clust_4="14000.00000" pt_clust_5="56.45318" pt_clust_6="83.37291"></scales>
<clustering>
<clus scale="   56.453">  2  5  1 -1</clus>
<clus scale="   83.373">  2  6  1 -1</clus>
<clus scale="   90.593">  1  3  2 -1</clus>
<clus scale="   90.593">  1  3  2 -1</clus>
</clustering>
</event>
<event>
 6    0  0.7442036E+002  0.7057535E+02  0.7546771E-02  0.1358147E+00
         21   -1    0    0  503  501  0.00000000000E+00  0.00000000000E+00  0.14998505998E+03  0.14998505998E+03  0.00000000000E+00 0.  1.
         21   -1    0    0  506  502 -0.00000000000E+00 -0.00000000000E+00 -0.14373006327E+04  0.14373006327E+04  0.00000000000E+00 0. -1.
         21    1    1    2  503  505  0.46682080488E+02  0.48565246237E+02  0.10204465817E+03  0.12227392216E+03  0.00000000000E+00 0.  1.
         21    1    1    2  504  501 -0.33580248130E+02 -0.10442998297E+03 -0.60907272285E+02  0.12547091386E+03  0.00000000000E+00 0.  1.
         21    1    1    2  505  502  0.94323496348E+01  0.92787818336E+02 -0.12073047790E+04  0.12109018861E+04  0.00000000000E+00 0. -1.
         21    1    1    2  506  504 -0.22534181993E+02 -0.36923081599E+02 -0.12114817957E+03  0.12863897048E+03  0.00000000000E+00 0.  1.
<scales pt_clust_3="14000.00000" pt_clust_4="70.57535" pt_clust_5="59.85286" pt_clust_6="43.25625"></scales>
<clustering>
<clus scale="   43.256">  2  6  1 -1</clus>
<clus scale="   59.853">  2  5  1 -1</clus>
<clus scale="   70.575">  2  4  1 -1</clus>
<clus scale="   70.575">  1  3  2 -1</clus>
</clustering>
</event>
<event>
 6    0  0.7442036E+002  0.1371288E+03  0.7546771E-02  0.1217245E+00
         21   -1    0    0  504  501  0.00000000000E+00  0.00000000000E+00  0.80879562962E+03  0.80879562962E+03  0.00000000000E+00 0. -1.
         21   -1    0    0  506  502 -0.00000000000E+00 -0.00000000000E+00 -0.42068187890E+02  0.42068187890E+02  0.00000000000E+00 0. -1.
         21    1    1    2  503  501  0.33481076610E+02 -0.75736370044E+02  0.16339053939E+03  0.18317600444E+03  0.00000000000E+00 0.  1.
         21    1    1    2  504  505 -0.68081394333E+02  0.96085100487E+02  0.47581543809E+03  0.49017114757E+03  0.00000000000E+00 0. -1.
         21    1    1    2  505  502  0.15852597311E+02  0.47203200188E+02  0.74545225304E+02  0.89646179869E+02  0.00000000000E+00 0. -1.
         21    1    1    2  506  503  0.18747720411E+02 -0.67551930631E+02  0.52976238950E+02  0.87870485635E+02  0.00000000000E+00 0. -1.
<scales pt_clust_3="48.82510" pt_clust_4="124.14538" pt_clust_5="49.79405" pt_clust_6="48.82510"></scales>
<clustering>
<clus scale="   49.794">  2  5  1 -1</clus>
<clus scale="   48.825">  3  6 -1 -1</clus>
<clus scale="  124.145">  1  4  2 -1</clus>
<clus scale="  124.145">  1  3  2 -1</clus>
</clustering>
</event>
<event>
 6    0  0.7442036E+002  0.1443571E+03  0.7546771E-02  0.1207584E+00
         21   -1    0    0  505  501  0.00000000000E+00  0.00000000000E+00  0.13998537593E+04  0.13998537593E+04  0.00000000000E+00 0.  1.
         21   -1    0    0  503  502 -0.00000000000E+00 -0.00000000000E+00 -0.21014265592E+03  0.21014265592E+03  0.00000000000E+00 0.  1.
         21    1    1    2  503  506 -0.30815150847E+02 -0.13684986012E+02 -0.18796761026E+02  0.38602727739E+02  0.00000000000E+00 0.  1.
         21    1    1    2  504  501  0.31068923694E+01  0.14451825058E+03  0.13144747426E+04  0.13223989664E+04  0.00000000000E+00 0.  1.
         21    1    1    2  505  502  0.45841003829E+02  0.50371407666E+01  0.30722883021E+02  0.55413590032E+02  0.00000000000E+00 0.  1.
         21    1    1    2  506  504 -0.18132745351E+02 -0.13587040534E+03 -0.13668976115E+03  0.19358113106E+03  0.00000000000E+00 0.  1.
<scales pt_clust_3="33.71724" pt_clust_4="14000.00000" pt_clust_5="43.93663" pt_clust_6="144.35707"></scales>
<clustering>
<clus scale="   33.717">  2  3  1 -1</clus>
<clus scale="   43.937">  2  5  1 -1</clus>
<clus scale="  144.357">  2  6  1 -1</clus>
<clus scale="  144.357">  1  3  2 -1</clus>
</clustering>
</event>
<event>
 6    0  0.7442036E+002  0.1655098E+03  0.7546771E-02  0.1182613E+00
         21   -1    0    0  506  501  0.00000000000E+00  0.00000000000E+00  0.41594802394E+03  0.41594802394E+03  0.00000000000E+00 0.  1.
         21   -1    0    0  505  502 -0.00000000000E+00 -0.00000000000E+00 -0.81083526244E+03  0.81083526244E+03  0.00000000000E+00 0.  1.
         21    1    1    2  503  501  0.63755298841E+02  0.51875552138E+02  0.28930102559E+03  0.30075055186E+03  0.00000000000E+00 0.  1.
         21    1    1    2  504  502  0.61833617434E+02 -0.40429753652E+02 -0.43838967815E+02  0.85905857335E+02  0.00000000000E+00 0.  1.
         21    1    1    2  505  503 -0.23926374180E+03  0.20777504667E+01 -0.67850550805E+03  0.71945894924E+03  0.00000000000E+00 0.  1.
         21    1    1    2  506  504  0.11367482553E+03 -0.13523548953E+02  0.38156211778E+02  0.12066792794E+03  0.00000000000E+00 0.  1.
<scales pt_clust_3="82.36777" pt_clust_4="73.87802" pt_clust_5="14000.00000" pt_clust_6="165.50980"></scales>
<clustering>
<clus scale="   73.878">  2  4  1 -1</clus>
<clus scale="   82.368">  1  3  2 -1</clus>
<clus scale="  165.510">  1  6  2 -1</clus>
<clus scale="   82.368">  1  3  2 -1</clus>
</clustering>
</event>
<event>
 6    0  0.7442036E+002  0.1855939E+03  0.7546771E-02  0.1162496E+00
         21   -1    0    0  505  501  0.00000000000E+00  0.00000000000E+00  0.11506701672E+04  0.11506701672E+04  0.00000000000E+00 0. -1.
         21   -1    0    0  506  502 -0.00000000000E+00 -0.00000000000E+00 -0.10726851285E+03  0.10726851285E+03  0.00000000000E+00 0.  1.
         21    1    1    2  503  504  0.86735087909E+02 -0.19155798231E+03  0.11694367690E+03  0.24061018189E+03  0.00000000000E+00 0.  1.
         21    1    1    2  504  502 -0.31584654954E+02 -0.15226554653E+02  0.48063400806E+01  0.35391231967E+02  0.00000000000E+00 0. -1.
         21    1    1    2  505  503 -0.53089008683E+02  0.45260008107E+02  0.72088165330E+03  0.72424945236E+03  0.00000000000E+00 0. -1.
         21    1    1    2  506  501 -0.20614242720E+01  0.16152452886E+03  0.20076998405E+03  0.25768781381E+03  0.00000000000E+00 0.  1.
<scales pt_clust_3="185.59388" pt_clust_4="35.06335" pt_clust_5="70.02490" pt_clust_6="14000.00000"></scales>
<clustering>
<clus scale="   35.063">  2  4  1 -1</clus>
<clus scale="   70.025">  1  5  2 -1</clus>
<clus scale="  185.594">  2  3  1 -1</clus>
<clus scale="   70.025">  1  3  2 -1</clus>
</clustering>
</event>
<event>
 6    0  0.7442036E+002  0.7352807E+02  0.7546771E-02  0.1348491E+00
         21   -1    0    0  504  501  0.00000000000E+00  0.00000000000E+00  0.61963818300E+02  0.61963818300E+02  0.00000000000E+00 0.  1.
         21   -1    0    0  506  502 -0.00000000000E+00 -0.00000000000E+00 -0.56650109355E+03  0.56650109355E+03  0.00000000000E+00 0.  1.
         21    1    1    2  503  501 -0.83050850823E+02 -0.57698487947E+02 -0.30962238976E+02  0.10576019845E+03  0.00000000000E+00 0.  1.
         21    1    1    2  504  505  0.23376865999E+02  0.40271940535E+02 -0.21494421568E+02  0.51286618303E+02  0.00000000000E+00 0.  1.
         21    1    1    2  505  502  0.94312336089E+02  0.11593728177E+02 -0.37252450102E+03  0.38445251350E+03  0.00000000000E+00 0.  1.
         21    1    1    2  506  503 -0.34638351265E+02  0.58328192360E+01 -0.79556113681E+02  0.86965581598E+02  0.00000000000E+00 0.  1.
<scales pt_clust_3="14000.00000" pt_clust_4="45.70260" pt_clust_5="73.52807" pt_clust_6="35.12602"></scales>
<clustering>
<clus scale="   35.126">  2  6  1 -1</clus>
<clus scale="   45.703">  1  4  2 -1</clus>
<clus scale="   73.528">  2  5  1 -1</clus>
<clus scale="   45.703">  1  3  2 -1</clus>
</clustering>
</event>
<event>
 6    0  0.7442036E+002  0.1215178E+03  0.7546771E-02  0.1240614E+00
         21   -1    0    0  504  501  0.00000000000E+00  0.00000000000E+00  0.16347746955E+03  0.16347746955E+03  0.00000000000E+00 0.  1.
         21   -1    0    0  503  502 -0.00000000000E+00 -0.00000000000E+00 -0.13147320205E+04  0.13147320205E+04  0.00000000000E+00 0. -1.
         21    1    1    2  503  505 -0.51972688209E+02  0.29887318395E+02 -0.32801179088E+03  0.33344586829E+03  0.00000000000E+00 0. -1.
         21    1    1    2  504  502  0.25983572769E+01 -0.13405893943E+03 -0.95571640681E+03  0.96507637053E+03  0.00000000000E+00 0. -1.
         21    1    1    2  505  506  0.33401654649E+01  0.50578511444E+02  0.58203598305E+02  0.77181612971E+02  0.00000000000E+00 0.  1.
         21    1    1    2  506  501  0.46034165467E+02  0.53593109592E+02  0.74270048422E+02  0.10250563828E+03  0.00000000000E+00 0.  1.
<scales pt_clust_3="59.95342" pt_clust_4="115.40312" pt_clust_5="32.23951" pt_clust_6="32.23951"></scales>
<clustering>
<clus scale="   32.240">  5  6 -1 -1</clus>
<clus scale="   59.953">  2  3  1 -1</clus>
<clus scale="  115.403">  2  4  1 -1</clus>
<clus scale="  121.518">  1  3  2 -1</clus>
</clustering>
</event>
<event>
 6    0  0.7442036E+002  0.1021976E+03  0.7546771E-02  0.1275741E+00
         21   -1    0    0  505  501  0.00000000000E+00  0.00000000000E+00  0.10900846073E+03  0.10900846073E+03  0.00000000000E+00 0.  1.
         21   -1    0    0  504  502 -0.00000000000E+00 -0.00000000000E+00 -0.26578175859E+03  0.26578175859E+03  0.00000000000E+00 0.  1.
         21    1    1    2  503  506  0.30324094437E+02  0.73298142482E+02 -0.50379018963E+02  0.93969218079E+02  0.00000000000E+00 0.  1.
         21    1    1    2  504  501  0.14692115486E+02 -0.13945111402E+03 -0.15441487548E+02  0.14107058870E+03  0.00000000000E+00 0.  1.
         21    1    1    2  505  503 -0.31277995551E+02  0.31606122470E+02 -0.33588621774E+01  0.44593070520E+02  0.00000000000E+00 0.  1.
         21    1    1    2  506  502 -0.13738214372E+02  0.34546849066E+02 -0.87593929166E+02  0.95157342025E+02  0.00000000000E+00 0.  1.
<scales pt_clust_3="102.19758" pt_clust_4="14000.00000" pt_clust_5="49.21113" pt_clust_6="37.17826"></scales>
<clustering>
<clus scale="   37.178">  2  6  1 -1</clus>
<clus scale="   49.211">  1  5  2 -1</clus>
<clus scale="  102.198">  2  3  1 -1</clus>
<clus scale="   49.211">  1  3  2 -1</clus>
</clustering>
</event>
<event>
 6    0  0.7442036E+002  0.7696002E+02  0.7546771E-02  0.1337907E+00
         21   -1    0    0  503  501  0.00000000000E+00  0.00000000000E+00  0.28991131784E+03  0.28991131784E+03  0.00000000000E+00 0.  1.
         21   -1    0    0  504  502 -0.00000000000E+00 -0.00000000000E+00 -0.83112817709E+03  0.83112817709E+03  0.00000000000E+00 0.  1.
         21    1    1    2  503  502  0.30831835040E+02  0.19602789006E+02 -0.53875791145E+03  0.53999533196E+03  0.00000000000E+00 0.  1.
         21    1    1    2  504  506 -0.62900318207E+02 -0.39657367022E+02 -0.24541640673E+03  0.25643394760E+03  0.00000000000E+00 0.  1.
         21    1    1    2  505  501 -0.71385305820E+02 -0.61510262476E+01  0.19473862198E+03  0.20750139253E+03  0.00000000000E+00 0.  1.
         21    1    1    2  506  505  0.10345378899E+03  0.26205604263E+02  0.48218836948E+02  0.11710882284E+03  0.00000000000E+00 0.  1.
<scales pt_clust_3="36.53589" pt_clust_4="42.93547" pt_clust_5="14000.00000" pt_clust_6="76.96002"></scales>
<clustering>
<clus scale="   36.536">  2  3  1 -1</clus>
<clus scale="   42.935">  2  4  1 -1</clus>
<clus scale="   76.960">  2  6  1 -1</clus>
<clus scale="   76.960">  1  3  2 -1</clus>
</clustering>
</event>
<event>
 6    0  0.7442036E+002  0.1280234E+03  0.7546771E-02  0.1230418E+00
         21   -1    0    0  505  501  0.00000000000E+00  0.00000000000E+00  0.17481936968E+03  0.17481936968E+03  0.00000000000E+00 0.  1.
         21   -1    0    0  504  502 -0.00000000000E+00 -0.00000000000E+00 -0.55879594363E+03  0.55879594363E+03  0.00000000000E+00 0. -1.
         21    1    1    2  503  502 -0.80255990237E+02 -0.13369178708E+02 -0.40651600944E+03  0.41457812875E+03  0.00000000000E+00 0. -1.
         21    1    1    2  504  501 -0.43905913518E+02 -0.15979925058E+02 -0.13428555100E+02  0.48614949746E+02  0.00000000000E+00 0. -1.
         21    1    1    2  505  506  0.15860420832E+03  0.22799623990E+02  0.10598751405E+03  0.19211577469E+03  0.00000000000E+00 0.  1.
         21    1    1    2  506  503 -0.34442304567E+02  0.65494797752E+01 -0.70019523470E+02  0.78306460118E+02  0.00000000000E+00 0. -1.
<scales pt_clust_3="33.77231" pt_clust_4="46.72352" pt_clust_5="117.23096" pt_clust_6="33.77231"></scales>
<clustering>
<clus scale="   33.772">  3  6 -1 -1</clus>
<clus scale="   46.724">  1  4  2 -1</clus>
<clus scale="  117.231">  1  5  2 -1</clus>
<clus scale="   46.724">  1  3  2 -1</clus>
</clustering>
</event>
<event>
 6    0  0.7442036E+002  0.1245881E+03  0.7546771E-02  0.1235714E+00
         21   -1    0    0  504  501  0.00000000000E+00  0.00000000000E+00  0.30831259450E+03  0.30831259450E+03  0.00000000000E+00 0. -1.
         21   -1    0    0  503  502 -0.00000000000E+00 -0.00000000000E+00 -0.36011743930E+03  0.36011743930E+03  0.00000000000E+00 0. -1.
         21    1    1    2  503  505 -0.83062277643E+02  0.89100988836E+02  0.33784417263E+02  0.12641089759E+03  0.00000000000E+00 0. -1.
         21    1    1    2  504  506  0.45728096573E+02 -0.98958102493E+02 -0.19612551696E+03  0.22438579114E+03  0.00000000000E+00 0. -1.
         21    1    1    2  505  501  0.80963629824E+02  0.55958312509E+02  0.19116830112E+03  0.21501572372E+03  0.00000000000E+00 0. -1.
         21    1    1    2  506  502 -0.43629448754E+02 -0.46101198853E+02 -0.80632046226E+02  0.10261762136E+03  0.00000000000E+00 0. -1.
<scales pt_clust_3="124.58808" pt_clust_4="14000.00000" pt_clust_5="95.66352" pt_clust_6="63.47322"></scales>
<clustering>
<clus scale="   63.473">  2  6  1 -1</clus>
<clus scale="   95.664">  1  5  2 -1</clus>
<clus scale="  124.588">  1  3  2 -1</clus>
<clus scale="   95.664">  1  3  2 -1</clus>
</clustering>
</event>
<event>
 6    0  0.7442036E+002  0.1151582E+03  0.7546771E-02  0.1251305E+00
         21   -1    0    0  503  501  0.00000000000E+00  0.00000000000E+00  0.88502849849E+02  0.88502849849E+02  0.00000000000E+00 0.  1.
         21   -1    0    0  505  502 -0.00000000000E+00 -0.00000000000E+00 -0.59030017578E+03  0.59030017578E+03  0.00000000000E+00 0.  1.
         21    1    1    2  503  504  0.10252129922E+03 -0.87465590980E+01  0.20185193952E+02  0.10485495289E+03  0.00000000000E+00 0.  1.
         21    1    1    2  504  502  0.24959558459E+02 -0.59967691848E+02 -0.29137691934E+03  0.29852908191E+03  0.00000000000E+00 0.  1.
         21    1    1    2  505  506 -0.59842463420E+02  0.96241730528E+01 -0.99234376037E+02  0.11628072292E+03  0.00000000000E+00 0. -1.
         21    1    1    2  506  501 -0.67638394264E+02  0.59090077893E+02 -0.13137122450E+03  0.15913826790E+03  0.00000000000E+00 0.  1.
<scales pt_clust_3="107.50698" pt_clust_4="64.95463" pt_clust_5="33.90754" pt_clust_6="33.90754"></scales>
<clustering>
<clus scale="   33.908">  5  6 -1 -1</clus>
<clus scale="   64.955">  2  4  1 -1</clus>
<clus scale="  107.507">  1  3  2 -1</clus>
<clus scale="  107.507">  1  3  2 -1</clus>
</clustering>
</event>
<event>
 6    0  0.7442036E+002  0.1657110E+03  0.7546771E-02  0.1182396E+00
         21   -1    0    0  502  501  0.00000000000E+00  0.00000000000E+00  0.15200258309E+03  0.15200258309E+03  0.00000000000E+00 0. -1.
         21   -1    0    0  504  502 -0.00000000000E+00 -0.00000000000E+00 -0.31016549047E+03  0.31016549047E+03  0.00000000000E+00 0. -1.
         21    1    1    2  503  505  0.12378987660E+03  0.63133755761E+02 -0.29053288462E+01  0.13899009174E+03  0.00000000000E+00 0. -1.
         21    1    1    2  504  506 -0.12757909703E+03  0.86188549935E+01 -0.13804594268E+03  0.18816852274E+03  0.00000000000E+00 0. -1.
         21    1    1    2  505  501  0.33103085288E+02 -0.37571036359E+02  0.38652354619E+02  0.63256632429E+02  0.00000000000E+00 0. -1.
         21    1    1    2  506  503 -0.29313864865E+02 -0.34181574396E+02 -0.55863990477E+02  0.71752826659E+02  0.00000000000E+00 0. -1.
<scales pt_clust_3="150.90043" pt_clust_4="40.63636" pt_clust_5="50.07392" pt_clust_6="40.63636"></scales>
<clustering>
<clus scale="   40.636">  4  6 -1 -1</clus>
<clus scale="   50.074">  1  5  2 -1</clus>
<clus scale="  150.900">  1  3  2 -1</clus>
<clus scale="   50.074">  1  3  2 -1</clus>
</clustering>
</event>
<event>
 6    0  0.7442036E+002  0.9141712E+02  0.7546771E-02  0.1299456E+00
         21   -1    0    0  506  501  0.00000000000E+00  0.00000000000E+00  0.27025701566E+03  0.27025701566E+03  0.00000000000E+00 0.  1.
         21   -1    0    0  503  502 -0.00000000000E+00 -0.00000000000E+00 -0.23898091374E+03  0.23898091374E+03  0.00000000000E+00 0. -1.
         21    1    1    2  503  505 -0.43110017861E+02  0.91782749894E+01 -0.71918865766E+02  0.84350682421E+02  0.00000000000E+00 0. -1.
         21    1    1    2  504  502  0.53821745320E+02 -0.90399550040E+02  0.73511184741E+02  0.12834622394E+03  0.00000000000E+00 0.  1.
         21    1    1    2  505  501  0.24216285795E+02  0.82306387986E+02 -0.11737466083E+03  0.14538769207E+03  0.00000000000E+00 0. -1.
         21    1    1    2  506  504 -0.34928013253E+02 -0.10851129349E+01  0.14705844378E+03  0.15115333098E+03  0.00000000000E+00 0.  1.
<scales pt_clust_3="45.81941" pt_clust_4="91.41712" pt_clust_5="14000.00000" pt_clust_6="34.94486"></scales>
<clustering>
<clus scale="   34.945">  1  6  2 -1</clus>
<clus scale="   45.819">  2  3  1 -1</clus>
<clus scale="   91.417">  1  4  2 -1</clus>
<clus scale="   34.945">  1  3  2 -1</clus>
</clustering>
</event>
<event>
 6    0  0.7442036E+002  0.9840461E+02  0.7546771E-02  0.1283687E+00
         21   -1    0    0  505  501  0.00000000000E+00  0.00000000000E+00  0.47897359331E+03  0.47897359331E+03  0.00000000000E+00 0.  1.
         21   -1    0    0  506  502 -0.00000000000E+00 -0.00000000000E+00 -0.41457476329E+03  0.41457476329E+03  0.00000000000E+00 0. -1.
         21    1    1    2  503  502 -0.13527676305E+02  0.10819962630E+03 -0.15941434741E+03  0.19314008211E+03  0.00000000000E+00 0. -1.
         21    1    1    2  504  501 -0.59914189725E+02  0.91071437831E+01  0.43329278258E+03  0.43751032632E+03  0.00000000000E+00 0.  1.
         21    1    1    2  505  503  0.41670910793E+02 -0.94533115487E+02 -0.89417510614E+02  0.13663259470E+03  0.00000000000E+00 0. -1.
         21    1    1    2  506  504  0.31770955237E+02 -0.22773654597E+02 -0.12006209455E+03  0.12626535347E+03  0.00000000000E+00 0. -1.
<scales pt_clust_3="14000.00000" pt_clust_4="60.35047" pt_clust_5="98.40461" pt_clust_6="39.09006"></scales>
<clustering>
<clus scale="   39.090">  2  6  1 -1</clus>
<clus scale="   60.350">  1  4  2 -1</clus>
<clus scale="   98.405">  1  5  2 -1</clus>
<clus scale="   60.350">  1  3  2 -1</clus>
</clustering>
</event>
<event>
 6    0  0.7442036E+002  0.1201235E+03  0.7546771E-02  0.1242893E+00
         21   -1    0    0  505  501  0.00000000000E+00  0.00000000000E+00  0.20863032287E+03  0.20863032287E+03  0.00000000000E+00 0.  1.
         21   -1    0    0  503  502 -0.00000000000E+00 -0.00000000000E+00 -0.98549378324E+03  0.98549378324E+03  0.00000000000E+00 0. -1.
         21    1    1    2  503  501 -0.60870813041E+02  0.11094798101E+02 -0.73667797926E+02  0.96204443122E+02  0.00000000000E+00 0. -1.
         21    1    1    2  504  502  0.10055266033E+03 -0.79718356936E+02 -0.88325570791E+03  0.89252815053E+03  0.00000000000E+00 0. -1.
         21    1    1    2  505  506 -0.19609108097E+02  0.29862946935E+02  0.14519836630E+03  0.14952885439E+03  0.00000000000E+00 0.  1.
         21    1    1    2  506  504 -0.20072739191E+02  0.38760611900E+02  0.34861679163E+02  0.55862658078E+02  0.00000000000E+00 0.  1.
<scales pt_clust_3="66.57678" pt_clust_4="14000.00000" pt_clust_5="35.72552" pt_clust_6="120.12351"></scales>
<clustering>
<clus scale="   35.726">  1  5  2 -1</clus>
<clus scale="   66.577">  1  3  2 -1</clus>
<clus scale="  120.124">  1  6  2 -1</clus>
<clus scale="   35.726">  1  3  2 -1</clus>
</clustering>
</event>
<event>
 6    0  0.7442036E+002  0.1067335E+03  0.7546771E-02  0.1266741E+00
         21   -1    0    0  505  501  0.00000000000E+00  0.00000000000E+00  0.93792594446E+02  0.93792594446E+02  0.00000000000E+00 0.  1.
         21   -1    0    0  504  502 -0.00000000000E+00 -0.00000000000E+00 -0.17877914081E+04  0.17877914081E+04  0.00000000000E+00 0.  1.
         21    1    1    2  503  501 -0.29653986763E+02  0.15966219386E+02 -0.16159997693E+02  0.37355382716E+02  0.00000000000E+00 0.  1.
         21    1    1    2  504  503  0.34722969981E+02 -0.12684230544E+03 -0.13319280687E+04  0.13384046605E+04  0.00000000000E+00 0.  1.
         21    1    1    2  505  506 -0.55084214255E+02  0.53236169269E+02  0.57167565320E+02  0.95584993085E+02  0.00000000000E+00 0.  1.
         21    1    1    2  506  502  0.50015231037E+02  0.57639916783E+02 -0.40307831259E+03  0.41023896624E+03  0.00000000000E+00 0.  1.
<scales pt_clust_3="33.67906" pt_clust_4="106.73354" pt_clust_5="14000.00000" pt_clust_6="76.01012"></scales>
<clustering>
<clus scale="   33.679">  1  3  2 -1</clus>
<clus scale="   76.010">  2  6  1 -1</clus>
<clus scale="  106.734">  2  4  1 -1</clus>
<clus scale="   33.679">  1  3  2 -1</clus>
</clustering>
</event>
<event>
 6    0  0.7442036E+002  0.1983139E+03  0.7546771E-02  0.1151169E+00
         21   -1    0    0  505  501  0.00000000000E+00  0.00000000000E+00  0.16087518986E+04  0.16087518986E+04  0.00000000000E+00 0. -1.
         21   -1    0    0  504  502 -0.00000000000E+00 -0.00000000000E+00 -0.50302590562E+03  0.50302590562E+03  0.00000000000E+00 0. -1.
         21    1    1    2  503  502 -0.91381753547E+02 -0.78079145264E+01 -0.27485330770E+03  0.28975149553E+03  0.00000000000E+00 0. -1.
         21    1    1    2  504  501  0.16241718574E+03  0.70987289956E+02  0.21218580012E+03  0.27648029103E+03  0.00000000000E+00 0.  1.
         21    1    1    2  505  506  0.23102331375E+02 -0.24941911112E+02  0.13430522155E+04  0.13434824413E+04  0.00000000000E+00 0. -1.
         21    1    1    2  506  503 -0.94137763564E+02 -0.38237464317E+02 -0.17465871489E+03  0.20206357636E+03  0.00000000000E+00 0. -1.
<scales pt_clust_3="54.42907" pt_clust_4="189.85539" pt_clust_5="33.99730" pt_clust_6="54.42907"></scales>
<clustering>
<clus scale="   33.997">  1  5  2 -1</clus>
<clus scale="   54.429">  3  6 -1 -1</clus>
<clus scale="  189.855">  1  4  2 -1</clus>
<clus scale="   33.997">  1  3  2 -1</clus>
</clustering>
</event>
<event>
 6    0  0.7442036E+002  0.1240552E+03  0.7546771E-02  0.1236553E+00
         21   -1    0    0  506  501  0.00000000000E+00  0.00000000000E+00  0.39621106002E+02  0.39621106002E+02  0.00000000000E+00 0. -1.
         21   -1    0    0  504  502 -0.00000000000E+00 -0.00000000000E+00 -0.87784225368E+03  0.87784225368E+03  0.00000000000E+00 0. -1.
         21    1    1    2  503  501 -0.41516637103E+02  0.17748682152E+02 -0.31781753090E+02  0.55215276002E+02  0.00000000000E+00 0. -1.
         21    1    1    2  504  503 -0.86795447221E+02  0.67909038905E+02 -0.28736657530E+03  0.30777367630E+03  0.00000000000E+00 0. -1.
         21    1    1    2  505  502  0.86666311955E+02 -0.11167118580E+03 -0.43164387116E+03  0.45420032461E+03  0.00000000000E+00 0. -1.
         21    1    1    2  506  505  0.41645772369E+02  0.26013464745E+02 -0.87428948122E+02  0.10027408276E+03  0.00000000000E+00 0. -1.
<scales pt_clust_3="45.15138" pt_clust_4="124.05519" pt_clust_5="14000.00000" pt_clust_6="43.99661"></scales>
<clustering>
<clus scale="   45.151">  1  3  2 -1</clus>
<clus scale="   43.997">  1  6  2 -1</clus>
<clus scale="  124.055">  2  4  1 -1</clus>
<clus scale="   45.151">  1  3  2 -1</clus>
</clustering>
</event>
<event>
 6    0  0.7442036E+002  0.8883060E+02  0.7546771E-02  0.1305709E+00
         21   -1    0    0  502  501  0.00000000000E+00  0.00000000000E+00  0.28244473874E+03  0.28244473874E+03  0.00000000000E+00 0. -1.
         21   -1    0    0  505  502 -0.00000000000E+00 -0.00000000000E+00 -0.17715855685E+03  0.17715855685E+03  0.00000000000E+00 0.  1.
         21    1    1    2  503  501 -0.29617039891E+02 -0.42039670453E+02  0.49899073019E+02  0.71654870259E+02  0.00000000000E+00 0.  1.
         21    1    1    2  504  506 -0.39192881236E+02 -0.23417094552E+01 -0.35459496956E+02  0.52905023081E+02  0.00000000000E+00 0.  1.
         21    1    1    2  505  504 -0.40906623851E+02 -0.16410841949E+01 -0.10117802501E+03  0.10914686334E+03  0.00000000000E+00 0.  1.
         21    1    1    2  506  503  0.10971654498E+03  0.46022464103E+02  0.19202463084E+03  0.22589653891E+03  0.00000000000E+00 0. -1.
<scales pt_clust_3="51.42473" pt_clust_4="33.34262" pt_clust_5="33.34262" pt_clust_6="82.04674"></scales>
<clustering>
<clus scale="   33.343">  4  5 -1 -1</clus>
<clus scale="   51.425">  1  3  2 -1</clus>
<clus scale="   82.047">  1  6  2 -1</clus>
<clus scale="   51.425">  1  3  2 -1</clus>
</clustering>
</event>
<event>
 6    0  0.7442036E+002  0.1067635E+03  0.7546771E-02  0.1266683E+00
         21   -1    0    0  505  501  0.00000000000E+00  0.00000000000E+00  0.10809833496E+04  0.10809833496E+04  0.00000000000E+00 0.  1.
         21   -1    0    0  503  502 -0.00000000000E+00 -0.00000000000E+00 -0.49907819871E+03  0.49907819871E+03  0.00000000000E+00 0. -1.
         21    1    1    2  503  506  0.53542539000E+02  0.33871036409E+02 -0.49558516690E+02  0.80436914203E+02  0.00000000000E+00 0. -1.
         21    1    1    2  504  501 -0.34492565761E+02  0.57378106108E+01  0.11135392951E+03  0.11671485416E+03  0.00000000000E+00 0. -1.
         21    1    1    2  505  502  0.45799666850E+02 -0.76111979091E+02 -0.42534968117E+03  0.43452617196E+03  0.00000000000E+00 0. -1.
         21    1    1    2  506  504 -0.64849640089E+02  0.36503132071E+02  0.94545941926E+03  0.94838360800E+03  0.00000000000E+00 0.  1.
<scales pt_clust_3="62.94118" pt_clust_4="34.96655" pt_clust_5="106.76353" pt_clust_6="14000.00000"></scales>
<clustering>
<clus scale="   34.967">  1  4  2 -1</clus>
<clus scale="   62.941">  2  3  1 -1</clus>
<clus scale="  106.764">  2  5  1 -1</clus>
<clus scale="   34.967">  1  3  2 -1</clus>
</clustering>
</event>
<event>
 6    0  0.7442036E+002  0.1181034E+03  0.7546771E-02  0.1246259E+00
         21   -1    0    0  502  501  0.00000000000E+00  0.00000000000E+00  0.14552642542E+04  0.14552642542E+04  0.00000000000E+00 0.  1.
         21   -1    0    0  504  502 -0.00000000000E+00 -0.00000000000E+00 -0.78980308714E+03  0.78980308714E+03  0.00000000000E+00 0. -1.
         21    1    1    2  503  506 -0.27115562335E+02  0.90808535024E+02  0.16180165070E+03  0.18751324733E+03  0.00000000000E+00 0.  1.
         21    1    1    2  504  505  0.34300600302E+02 -0.99236932998E+02 -0.76302478240E+03  0.77021511191E+03  0.00000000000E+00 0. -1.
         21    1    1    2  505  503  0.13596622751E+02  0.39117385055E+02  0.32617257153E+02  0.52715495141E+02  0.00000000000E+00 0.  1.
         21    1    1    2  506  501 -0.20781660718E+02 -0.30688987080E+02  0.12340670416E+04  0.12346234870E+04  0.00000000000E+00 0.  1.
<scales pt_clust_3="35.27554" pt_clust_4="105.36027" pt_clust_5="35.27554" pt_clust_6="37.06334"></scales>
<clustering>
<clus scale="   35.276">  3  5 -1 -1</clus>
<clus scale="   37.063">  1  6  2 -1</clus>
<clus scale="  105.360">  2  4  1 -1</clus>
<clus scale="   37.063">  1  3  2 -1</clus>
</clustering>
</event>
<event>
 6    0  0.7442036E+002  0.1351734E+03  0.7546771E-02  0.1219975E+00
         21   -1    0    0  503  501  0.00000000000E+00  0.00000000000E+00  0.32421386959E+03  0.32421386959E+03  0.00000000000E+00 0. -1.
         21   -1    0    0  505  502 -0.00000000000E+00 -0.00000000000E+00 -0.11285331256E+04  0.11285331256E+04  0.00000000000E+00 0.  1.
         21    1    1    2  503  506 -0.89041577363E+02 -0.40994349313E+01 -0.11156828525E+03  0.14280297665E+03  0.00000000000E+00 0. -1.
         21    1    1    2  504  501  0.13382803661E+03  0.46113971399E+02  0.28860067331E+03  0.32144484810E+03  0.00000000000E+00 0. -1.
         21    1    1    2  505  504 -0.26683931009E+02  0.27405174261E+02 -0.18442120602E+03  0.18834610955E+03  0.00000000000E+00 0.  1.
         21    1    1    2  506  502 -0.18102528234E+02 -0.69419710728E+02 -0.79693043809E+03  0.80015306093E+03  0.00000000000E+00 0.  1.
<scales pt_clust_3="14000.00000" pt_clust_4="135.17338" pt_clust_5="38.25017" pt_clust_6="61.57702"></scales>
<clustering>
<clus scale="   38.250">  2  5  1 -1</clus>
<clus scale="   61.577">  2  6  1 -1</clus>
<clus scale="  135.173">  1  4  2 -1</clus>
<clus scale="  135.173">  1  3  2 -1</clus>
</clustering>
</event>
<event>
 6    0  0.7442036E+002  0.1135820E+03  0.7546771E-02  0.1254077E+00
         21   -1    0    0  506  501  0.00000000000E+00  0.00000000000E+00  0.25658453745E+03  0.25658453745E+03  0.00000000000E+00 0. -1.
         21   -1    0    0  505  502 -0.00000000000E+00 -0.00000000000E+00 -0.53554862712E+03  0.53554862712E+03  0.00000000000E+00 0. -1.
         21    1    1    2  503  501  0.11213663796E+03 -0.13328010298E+02  0.13533273129E+03  0.17625892769E+03  0.00000000000E+00 0. -1.
         21    1    1    2  504  502 -0.65356712335E+02  0.54617402984E+02 -0.43036036065E+03  0.43870787612E+03  0.00000000000E+00 0. -1.
         21    1    1    2  505  503 -0.37064420686E+02  0.23504759528E+00 -0.71070992945E+02  0.80155552311E+02  0.00000000000E+00 0.  1.
         21    1    1    2  506  504 -0.97155049430E+01 -0.41524440281E+02  0.87134532637E+02  0.97010808443E+02  0.00000000000E+00 0. -1.
<scales pt_clust_3="113.58198" pt_clust_4="14000.00000" pt_clust_5="37.06517" pt_clust_6="42.73583"></scales>
<clustering>
<clus scale="   37.065">  2  5  1 -1</clus>
<clus scale="   42.736">  1  6  2 -1</clus>
<clus scale="  113.582">  1  3  2 -1</clus>
<clus scale="   42.736">  1  3  2 -1</clus>
</clustering>
</event>
<event>
 6    0  0.7442036E+002  0.1645058E+03  0.7546771E-02  0.1183702E+00
         21   -1    0    0  505  501  0.00000000000E+00  0.00000000000E+00  0.30274360713E+03  0.30274360713E+03  0.00000000000E+00 0. -1.
         21   -1    0    0  506  502 -0.00000000000E+00 -0.00000000000E+00 -0.29743714661E+03  0.29743714661E+03  0.00000000000E+00 0. -1.
         21    1    1    2  503  504 -0.48965227745E+02  0.42252659230E+02  0.14734933382E+02  0.66332488284E+02  0.00000000000E+00 0. -1.
         21    1    1    2  504  502 -0.35401721095E+02  0.53587359463E+02 -0.27628605291E+02  0.69915855005E+02  0.00000000000E+00 0. -1.
         21    1    1    2  505  503  0.55889045242E+01  0.63350755566E+02  0.19994088186E+03  0.20981160674E+03  0.00000000000E+00 0. -1.
         21    1    1    2  506  501  0.78778044316E+02 -0.15919077426E+03 -0.18174074943E+03  0.25412080371E+03  0.00000000000E+00 0. -1.
<scales pt_clust_3="45.60377" pt_clust_4="45.60377" pt_clust_5="63.59681" pt_clust_6="158.01227"></scales>
<clustering>
<clus scale="   45.604">  3  4 -1 -1</clus>
<clus scale="   63.597">  1  5  2 -1</clus>
<clus scale="  158.012">  2  6  1 -1</clus>
<clus scale="   63.597">  1  3  2 -1</clus>
</clustering>
</event>
<event>
 6    0  0.7442036E+002  0.8767840E+02  0.7546771E-02  0.1308573E+00
         21   -1    0    0  503  501  0.00000000000E+00  0.00000000000E+00  0.36291687464E+03  0.36291687464E+03  0.00000000000E+00 0. -1.
         21   -1    0    0  505  502 -0.00000000000E+00 -0.00000000000E+00 -0.44783701860E+03  0.44783701860E+03  0.00000000000E+00 0. -1.
         21    1    1    2  503  502 -0.47083356022E+02  0.25676248122E+02  0.66165865722E+01  0.54036019004E+02  0.00000000000E+00 0. -1.
         21    1    1    2  504  506 -0.41920607478E+02 -0.57302269483E+02  0.45180579513E+02  0.84155642617E+02  0.00000000000E+00 0. -1.
         21    1    1    2  505  504  0.94942285656E+02 -0.19427313129E+01 -0.39794549507E+03  0.40911908884E+03  0.00000000000E+00 0. -1.
         21    1    1    2  506  501 -0.59383221559E+01  0.33568752674E+02  0.26122818502E+03  0.26344314277E+03  0.00000000000E+00 0. -1.
<scales pt_clust_3="87.67840" pt_clust_4="58.03360" pt_clust_5="14000.00000" pt_clust_6="34.08995"></scales>
<clustering>
<clus scale="   34.090">  1  6  2 -1</clus>
<clus scale="   58.034">  1  4  2 -1</clus>
<clus scale="   87.678">  1  3  2 -1</clus>
<clus scale="   34.090">  1  3  2 -1</clus>
</clustering>
</event>
<event>
 6    0  0.7442036E+002  0.7492649E+02  0.7546771E-02  0.1344099E+00
         21   -1    0    0  506  501  0.00000000000E+00  0.00000000000E+00  0.32585235420E+02  0.32585235420E+02  0.00000000000E+00 0.  1.
         21   -1    0    0  504  502 -0.00000000000E+00 -0.00000000000E+00 -0.62720164941E+03  0.62720164941E+03  0.00000000000E+00 0.  1.
         21    1    1    2  503  505  0.26803722381E+02  0.24263390420E+02 -0.10173914662E+03  0.10797224459E+03  0.00000000000E+00 0.  1.
         21    1    1    2  504  503  0.31769615298E+02 -0.85969698218E+01 -0.17306213730E+03  0.17616390014E+03  0.00000000000E+00 0.  1.
         21    1    1    2  505  501 -0.88935922047E+02 -0.74557572250E+02 -0.26626990276E+03  0.29046185795E+03  0.00000000000E+00 0.  1.
         21    1    1    2  506  502  0.30362584368E+02  0.58891151651E+02 -0.53545227312E+02  0.85188882140E+02  0.00000000000E+00 0.  1.
<scales pt_clust_3="40.78250" pt_clust_4="32.91225" pt_clust_5="74.92649" pt_clust_6="14000.00000"></scales>
<clustering>
<clus scale="   32.912">  2  4  1 -1</clus>
<clus scale="   40.782">  2  3  1 -1</clus>
<clus scale="   74.926">  2  5  1 -1</clus>
<clus scale="   74.926">  1  3  2 -1</clus>
</clustering>
</event>
<event>
 6    0  0.7442036E+002  0.1004872E+03  0.7546771E-02  0.1279275E+00
         21   -1    0    0  503  501  0.00000000000E+00  0.00000000000E+00  0.10232525130E+04  0.10232525130E+04  0.00000000000E+00 0.  1.
         21   -1    0    0  505  502 -0.00000000000E+00 -0.00000000000E+00 -0.22532868042E+02  0.22532868042E+02  0.00000000000E+00 0.  1.
         21    1    1    2  503  504 -0.28808146157E+02  0.12794170257E+03  0.52574677199E+03  0.54185667551E+03  0.00000000000E+00 0.  1.
         21    1    1    2  504  506  0.35685332897E+02 -0.17380529299E+02  0.65259089534E+02  0.76382423040E+02  0.00000000000E+00 0.  1.
         21    1    1    2  505  501 -0.28370614995E+02 -0.79509853891E+02  0.28501684852E+03  0.29725630793E+03  0.00000000000E+00 0.  1.
         21    1    1    2  506  502  0.21493428255E+02 -0.31051319384E+02  0.12469693487E+03  0.13028997452E+03  0.00000000000E+00 0.  1.
<scales pt_clust_3="100.48723" pt_clust_4="81.42597" pt_clust_5="14000.00000" pt_clust_6="31.07755"></scales>
<clustering>
<clus scale="   31.078">  4  6 -1 -1</clus>
<clus scale="   81.426">  2  4  1 -1</clus>
<clus scale="  100.487">  2  3  1 -1</clus>
<clus scale="  100.487">  1  3  2 -1</clus>
</clustering>
</event>
<event>
 6    0  0.7442036E+002  0.1671865E+03  0.7546771E-02  0.1180814E+00
         21   -1    0    0  505  501  0.00000000000E+00  0.00000000000E+00  0.33562319962E+03  0.33562319962E+03  0.00000000000E+00 0.  1.
         21   -1    0    0  504  502 -0.00000000000E+00 -0.00000000000E+00 -0.45449229025E+03  0.45449229025E+03  0.00000000000E+00 0. -1.
         21    1    1    2  503  501  0.67885632177E+02 -0.54401903992E+02  0.16151944327E+03  0.18345723417E+03  0.00000000000E+00 0.  1.
         21    1    1    2  504  503 -0.71874101720E+02 -0.15735660226E+03  0.56302907105E+02  0.18192582038E+03  0.00000000000E+00 0.  1.
         21    1    1    2  505  506  0.22072567005E+02  0.42991810602E+02 -0.73360646372E+00  0.48332516709E+02  0.00000000000E+00 0. -1.
         21    1    1    2  506  502 -0.18084097461E+02  0.16876669565E+03 -0.33595783454E+03  0.37639991861E+03  0.00000000000E+00 0. -1.
<scales pt_clust_3="85.74890" pt_clust_4="14000.00000" pt_clust_5="48.32695" pt_clust_6="167.18646"></scales>
<clustering>
<clus scale="   48.327">  1  5  2 -1</clus>
<clus scale="   85.749">  1  3  2 -1</clus>
<clus scale="  167.186">  2  6  1 -1</clus>
<clus scale="   48.327">  1  3  2 -1</clus>
</clustering>
</event>
<event>
 6    0  0.7442036E+002  0.9658213E+02  0.7546771E-02  0.1287652E+00
         21   -1    0    0  504  501  0.00000000000E+00  0.00000000000E+00  0.32125052473E+02  0.32125052473E+02  0.00000000000E+00 0.  1.
         21   -1    0    0  503  502 -0.00000000000E+00 -0.00000000000E+00 -0.17281021556E+04  0.17281021556E+04  0.00000000000E+00 0. -1.
         21    1    1    2  503  506 -0.10075116813E+02  0.34508088146E+02 -0.17046004748E+03  0.17420948285E+03  0.00000000000E+00 0. -1.
         21    1    1    2  504  505 -0.36659298528E+02 -0.11580862615E+02 -0.28352348865E+02  0.47768988200E+02  0.00000000000E+00 0.  1.
         21    1    1    2  505  502 -0.57208200056E+02  0.36877905777E+02 -0.13341055971E+04  0.13358407474E+04  0.00000000000E+00 0. -1.
         21    1    1    2  506  501  0.10394261540E+03 -0.59805131308E+02 -0.16305910961E+03  0.20240798960E+03  0.00000000000E+00 0.  1.
<scales pt_clust_3="35.94880" pt_clust_4="38.43582" pt_clust_5="14000.00000" pt_clust_6="96.58213"></scales>
<clustering>
<clus scale="   35.949">  2  3  1 -1</clus>
<clus scale="   38.436">  1  4  2 -1</clus>
<clus scale="   96.582">  1  6  2 -1</clus>
<clus scale="   38.436">  1  3  2 -1</clus>
</clustering>
</event>
<event>
 6    0  0.7442036E+002  0.9905284E+02  0.7546771E-02  0.1282300E+00
         21   -1    0    0  504  501  0.00000000000E+00  0.00000000000E+00  0.10232193847E+04  0.10232193847E+04  0.00000000000E+00 0.  1.
         21   -1    0    0  505  502 -0.00000000000E+00 -0.00000000000E+00 -0.21040580033E+03  0.21040580033E+03  0.00000000000E+00 0.  1.
         21    1    1    2  503  502 -0.14664788317E+02 -0.66866435342E+02 -0.14913355267E+03  0.16409446281E+03  0.00000000000E+00 0.  1.
         21    1    1    2  504  503 -0.37150978418E+02  0.75217549959E+02  0.71324511307E+03  0.71816186639E+03  0.00000000000E+00 0.  1.
         21    1    1    2  505  506 -0.39602387799E+02 -0.23998178501E+02 -0.31639688787E+02  0.56083255943E+02  0.00000000000E+00 0.  1.
         21    1    1    2  506  501  0.91418154534E+02  0.15647063883E+02  0.28034171274E+03  0.29528559986E+03  0.00000000000E+00 0.  1.
<scales pt_clust_3="99.05284" pt_clust_4="83.83607" pt_clust_5="46.30617" pt_clust_6="14000.00000"></scales>
<clustering>
<clus scale="   46.306">  2  5  1 -1</clus>
<clus scale="   83.836">  1  4  2 -1</clus>
<clus scale="   99.053">  2  3  1 -1</clus>
<clus scale="   83.836">  1  3  2 -1</clus>
</clustering>
</event>
<event>
 6    0  0.7442036E+002  0.2663685E+03  0.7546771E-02  0.1103376E+00
         21   -1    0    0  504  501  0.00000000000E+00  0.00000000000E+00  0.17217784443E+04  0.17217784443E+04  0.00000000000E+00 0.  1.
         21   -1    0    0  501  502 -0.00000000000E+00 -0.00000000000E+00 -0.47269901074E+03  0.47269901074E+03  0.00000000000E+00 0. -1.
         21    1    1    2  503  506  0.95342991773E+01 -0.62233681373E+02 -0.68207031225E+02  0.92823127864E+02  0.00000000000E+00 0. -1.
         21    1    1    2  504  505  0.17713801177E+02  0.34365168658E+02  0.45326375966E+03  0.45490963871E+03  0.00000000000E+00 0.  1.
         21    1    1    2  505  503  0.51105753772E+02  0.21133624869E+03  0.12197054645E+04  0.12389335044E+04  0.00000000000E+00 0.  1.
         21    1    1    2  506  502 -0.78353854126E+02 -0.18346773598E+03 -0.35568275936E+03  0.40781118414E+03  0.00000000000E+00 0. -1.
<scales pt_clust_3="42.95584" pt_clust_4="30.32955" pt_clust_5="265.10105" pt_clust_6="42.95584"></scales>
<clustering>
<clus scale="   30.330">  4  5 -1 -1</clus>
<clus scale="   42.956">  3  6 -1 -1</clus>
<clus scale="  265.101">  1  4  2 -1</clus>
<clus scale="  265.101">  1  3  2 -1</clus>
</clustering>
</event>
<event>
 6    0  0.7442036E+002  0.8347088E+02  0.7546771E-02  0.1319480E+00
         21   -1    0    0  505  501  0.00000000000E+00  0.00000000000E+00  0.22274378207E+03  0.22274378207E+03  0.00000000000E+00 0. -1.
         21   -1    0    0  504  502 -0.00000000000E+00 -0.00000000000E+00 -0.32184336964E+03  0.32184336964E+03  0.00000000000E+00 0.  1.
         21    1    1    2  503  501  0.28487209555E+02 -0.17050217080E+02  0.39929151743E+02  0.51928490924E+02  0.00000000000E+00 0. -1.
         21    1    1    2  504  506 -0.33127339158E+02 -0.28001875558E+02 -0.21380337527E+03  0.21815913666E+03  0.00000000000E+00 0.  1.
         21    1    1    2  505  502 -0.40126250923E+02  0.10115447295E+03  0.14013390733E+03  0.17742563342E+03  0.00000000000E+00 0. -1.
         21    1    1    2  506  503  0.44766380526E+02 -0.56102380313E+02 -0.65359271372E+02  0.97073890704E+02  0.00000000000E+00 0. -1.
<scales pt_clust_3="33.19986" pt_clust_4="43.24588" pt_clust_5="14000.00000" pt_clust_6="83.47088"></scales>
<clustering>
<clus scale="   33.200">  1  3  2 -1</clus>
<clus scale="   43.246">  2  4  1 -1</clus>
<clus scale="   83.471">  2  6  1 -1</clus>
<clus scale="   33.200">  1  3  2 -1</clus>
</clustering>
</event>
<event>
 6    0  0.7442036E+002  0.9431520E+02  0.7546771E-02  0.1292726E+00
         21   -1    0    0  506  501  0.00000000000E+00  0.00000000000E+00  0.25783978416E+03  0.25783978416E+03  0.00000000000E+00 0.  1.
         21   -1    0    0  503  502 -0.00000000000E+00 -0.00000000000E+00 -0.34703895940E+04  0.34703895940E+04  0.00000000000E+00 0.  1.
         21    1    1    2  503  505 -0.32331065864E+02 -0.18537112394E+02 -0.20448340904E+03  0.20785183889E+03  0.00000000000E+00 0.  1.
         21    1    1    2  504  502 -0.31868668316E+02 -0.54753580780E+02 -0.27561007893E+04  0.27568288172E+04  0.00000000000E+00 0.  1.
         21    1    1    2  505  501  0.11359412083E+03  0.36812543731E+02 -0.49689400511E+03  0.51104054631E+03  0.00000000000E+00 0.  1.
         21    1    1    2  506  504 -0.49394386650E+02  0.36478149443E+02  0.24492839361E+03  0.25250817574E+03  0.00000000000E+00 0.  1.
<scales pt_clust_3="37.26825" pt_clust_4="94.31520" pt_clust_5="14000.00000" pt_clust_6="61.42150"></scales>
<clustering>
<clus scale="   37.268">  2  3  1 -1</clus>
<clus scale="   61.422">  1  6  2 -1</clus>
<clus scale="   94.315">  2  4  1 -1</clus>
<clus scale="   61.422">  1  3  2 -1</clus>
</clustering>
</event>
<event>
 6    0  0.7442036E+002  0.7063923E+02  0.7546771E-02  0.1357933E+00
         21   -1    0    0  504  501  0.00000000000E+00  0.00000000000E+00  0.27580160577E+02  0.27580160577E+02  0.00000000000E+00 0.  1.
         21   -1    0    0  503  502 -0.00000000000E+00 -0.00000000000E+00 -0.95667106492E+03  0.95667106492E+03  0.00000000000E+00 0. -1.
         21    1    1    2  503  501 -0.35193337893E+02  0.57761795865E+02 -0.44164691143E+03  0.44679636353E+03  0.00000000000E+00 0. -1.
         21    1    1    2  504  505  0.54560712911E+02  0.48198931804E+02 -0.69365096542E+02  0.10055607907E+03  0.00000000000E+00 0.  1.
         21    1    1    2  505  506 -0.33997677931E+02 -0.60016914834E+02 -0.15818365423E+03  0.17256865485E+03  0.00000000000E+00 0. -1.
         21    1    1    2  506  502  0.14630302913E+02 -0.45943812835E+02 -0.25989524214E+03  0.26433012803E+03  0.00000000000E+00 0. -1.
<scales pt_clust_3="38.37682" pt_clust_4="14000.00000" pt_clust_5="70.63923" pt_clust_6="48.21701"></scales>
<clustering>
<clus scale="   48.217">  2  6  1 -1</clus>
<clus scale="   38.377">  2  3  1 -1</clus>
<clus scale="   70.639">  2  5  1 -1</clus>
<clus scale="   70.639">  1  3  2 -1</clus>
</clustering>
</event>
<event>
 6    0  0.7442036E+002  0.8960237E+02  0.7546771E-02  0.1303817E+00
         21   -1    0    0  505  501  0.00000000000E+00  0.00000000000E+00  0.43146904344E+03  0.43146904344E+03  0.00000000000E+00 0. -1.
         21   -1    0    0  504  502 -0.00000000000E+00 -0.00000000000E+00 -0.20016337180E+03  0.20016337180E+03  0.00000000000E+00 0. -1.
         21    1    1    2  503  502 -0.61738623031E+01  0.29388124133E+02 -0.79349646783E+01  0.31060297491E+02  0.00000000000E+00 0.  1.
         21    1    1    2  504  506 -0.40472145423E+02  0.47974960794E+02 -0.13366539692E+03  0.14766864851E+03  0.00000000000E+00 0. -1.
         21    1    1    2  505  503 -0.59719801237E+02  0.53033141584E+02  0.69121042526E+02  0.10562522088E+03  0.00000000000E+00 0. -1.
         21    1    1    2  506  501  0.10636580896E+03 -0.13039622651E+03  0.30378499071E+03  0.34727824836E+03  0.00000000000E+00 0. -1.
<scales pt_clust_3="30.02963" pt_clust_4="14000.00000" pt_clust_5="82.32606" pt_clust_6="89.60237"></scales>
<clustering>
<clus scale="   30.030">  2  3  1 -1</clus>
<clus scale="   82.326">  1  5  2 -1</clus>
<clus scale="   89.602">  1  6  2 -1</clus>
<clus scale="   82.326">  1  3  2 -1</clus>
</clustering>
</event>
<event>
 6    0  0.7442036E+002  0.1266074E+03  0.7546771E-02  0.1232578E+00
         21   -1    0    0  505  501  0.00000000000E+00  0.00000000000E+00  0.11199928475E+04  0.11199928475E+04  0.00000000000E+00 0. -1.
         21   -1    0    0  504  502 -0.00000000000E+00 -0.00000000000E+00 -0.19786344776E+03  0.19786344776E+03  0.00000000000E+00 0.  1.
         21    1    1    2  503  502 -0.53919144454E+02 -0.11496960386E+03 -0.16202429603E+03  0.20585712631E+03  0.00000000000E+00 0.  1.
         21    1    1    2  504  506  0.42975067958E+02  0.21610299095E+02  0.11478087505E+03  0.12445284557E+03  0.00000000000E+00 0. -1.
         21    1    1    2  505  503  0.41177262896E+02  0.10270636851E+03  0.93212905199E+03  0.93867392351E+03  0.00000000000E+00 0. -1.
         21    1    1    2  506  501 -0.30233186400E+02 -0.93470637418E+01  0.37243768746E+02  0.48872399889E+02  0.00000000000E+00 0.  1.
<scales pt_clust_3="14000.00000" pt_clust_4="44.63989" pt_clust_5="126.60741" pt_clust_6="31.64511"></scales>
<clustering>
<clus scale="   31.645">  1  6  2 -1</clus>
<clus scale="   44.640">  1  4  2 -1</clus>
<clus scale="  126.607">  1  5  2 -1</clus>
<clus scale="   31.645">  1  3  2 -1</clus>
</clustering>
</event>
<event>
 6    0  0.7442036E+002  0.9640396E+02  0.7546771E-02  0.1288045E+00
         21   -1    0    0  504  501  0.00000000000E+00  0.00000000000E+00  0.85014199476E+02  0.85014199476E+02  0.00000000000E+00 0.  1.
         21   -1    0    0  506  502 -0.00000000000E+00 -0.00000000000E+00 -0.74972978544E+03  0.74972978544E+03  0.00000000000E+00 0.  1.
         21    1    1    2  503  501 -0.11849341618E+02 -0.72509687556E+02  0.34014099869E+02  0.80963082180E+02  0.00000000000E+00 0.  1.
         21    1    1    2  504  502  0.11618513434E+03  0.61346040768E+02 -0.20694004088E+03  0.24512548354E+03  0.00000000000E+00 0.  1.
         21    1    1    2  505  503 -0.65184860768E+02 -0.30959151399E+02 -0.28850047163E+03  0.29738873089E+03  0.00000000000E+00 0.  1.
         21    1    1    2  506  505 -0.39150931954E+02  0.42122798187E+02 -0.20328917332E+03  0.21126668831E+03  0.00000000000E+00 0.  1.
<scales pt_clust_3="71.97261" pt_clust_4="14000.00000" pt_clust_5="96.40396" pt_clust_6="57.50761"></scales>
<clustering>
<clus scale="   57.508">  2  6  1 -1</clus>
<clus scale="   71.973">  1  3  2 -1</clus>
<clus scale="   96.404">  2  5  1 -1</clus>
<clus scale="   71.973">  1  3  2 -1</clus>
</clustering>
</event>
<event>
 6    0  0.7442036E+002  0.1703723E+03  0.7546771E-02  0.1177460E+00
         21   -1    0    0  506  501  0.00000000000E+00  0.00000000000E+00  0.27302818021E+03  0.27302818021E+03  0.00000000000E+00 0. -1.
         21   -1    0    0  504  502 -0.00000000000E+00 -0.00000000000E+00 -0.73036747008E+03  0.73036747008E+03  0.00000000000E+00 0.  1.
         21    1    1    2  503  505  0.24737013065E+01  0.82700168661E+02 -0.13161253269E+03  0.15545834122E+03  0.00000000000E+00 0. -1.
         21    1    1    2  504  503 -0.20895925393E+01  0.57939840375E+02 -0.26804165155E+03  0.27424025683E+03  0.00000000000E+00 0.  1.
         21    1    1    2  505  501 -0.93878661352E+01  0.37231300431E+02  0.23117692970E+03  0.23434392373E+03  0.00000000000E+00 0. -1.
         21    1    1    2  506  502  0.90037573680E+01 -0.17787130947E+03 -0.28886203533E+03  0.33935312852E+03  0.00000000000E+00 0.  1.
<scales pt_clust_3="57.76426" pt_clust_4="57.76426" pt_clust_5="38.39664" pt_clust_6="154.56090"></scales>
<clustering>
<clus scale="   38.397">  1  5  2 -1</clus>
<clus scale="   57.764">  3  4 -1 -1</clus>
<clus scale="  154.561">  1  6  2 -1</clus>
<clus scale="   38.397">  1  3  2 -1</clus>
</clustering>
</event>
<event>
 6    0  0.7442036E+002  0.1472119E+03  0.7546771E-02  0.1203941E+00
         21   -1    0    0  506  501  0.00000000000E+00  0.00000000000E+00  0.22607690508E+03  0.22607690508E+03  0.00000000000E+00 0. -1.
         21   -1    0    0  503  502 -0.00000000000E+00 -0.00000000000E+00 -0.22355655559E+03  0.22355655559E+03  0.00000000000E+00 0. -1.
         21    1    1    2  503  501 -0.96385520154E+02  0.16501434139E+03  0.49137507349E+02  0.19731800726E+03  0.00000000000E+00 0. -1.
         21    1    1    2  504  502  0.71099415292E+02 -0.63161710971E+02 -0.84161104861E+02  0.12699456744E+03  0.00000000000E+00 0. -1.
         21    1    1    2  505  504  0.38746377248E+02 -0.44001035343E+02  0.86319579640E+01  0.59261147132E+02  0.00000000000E+00 0. -1.
         21    1    1    2  506  505 -0.13460272386E+02 -0.57851595075E+02  0.28911989035E+02  0.66059738838E+02  0.00000000000E+00 0.  1.
<scales pt_clust_3="135.60573" pt_clust_4="95.10273" pt_clust_5="56.92103" pt_clust_6="56.92103"></scales>
<clustering>
<clus scale="   56.921">  5  6 -1 -1</clus>
<clus scale="   95.103">  2  4  1 -1</clus>
<clus scale="  135.606">  2  3  1 -1</clus>
<clus scale="  147.212">  1  3  2 -1</clus>
</clustering>
</event>
<event>
 6    0  0.7442036E+002  0.9019376E+02  0.7546771E-02  0.1302383E+00
         21   -1    0    0  504  501  0.00000000000E+00  0.00000000000E+00  0.76230103524E+02  0.76230103524E+02  0.00000000000E+00 0. -1.
         21   -1    0    0  503  502 -0.00000000000E+00 -0.00000000000E+00 -0.30536420246E+03  0.30536420246E+03  0.00000000000E+00 0. -1.
         21    1    1    2  503  505 -0.53867369276E+02 -0.84747116295E+02 -0.12842338624E+03  0.16302249332E+03  0.00000000000E+00 0. -1.
         21    1    1    2  504  506 -0.35699429159E+02  0.28301969888E+02 -0.33360869118E+02  0.56465904138E+02  0.00000000000E+00 0. -1.
         21    1    1    2  505  501  0.93195069424E+02  0.12996025665E+02 -0.17205211080E+02  0.95656870826E+02  0.00000000000E+00 0. -1.
         21    1    1    2  506  502 -0.36282709886E+01  0.43449120742E+02 -0.50144632496E+02  0.66449037703E+02  0.00000000000E+00 0. -1.
<scales pt_clust_3="88.60174" pt_clust_4="90.19376" pt_clust_5="14000.00000" pt_clust_6="37.12378"></scales>
<clustering>
<clus scale="   37.124">  4  6 -1 -1</clus>
<clus scale="   90.194">  2  4  1 -1</clus>
<clus scale="   88.602">  2  3  1 -1</clus>
<clus scale="   90.194">  1  3  2 -1</clus>
</clustering>
</event>
<event>
 6    0  0.7442036E+002  0.7298007E+02  0.7546771E-02  0.1350243E+00
         21   -1    0    0  503  501  0.00000000000E+00  0.00000000000E+00  0.30949618017E+03  0.30949618017E+03  0.00000000000E+00 0. -1.
         21   -1    0    0  501  502 -0.00000000000E+00 -0.00000000000E+00 -0.10797821393E+03  0.10797821393E+03  0.00000000000E+00 0.  1.
         21    1    1    2  503  506  0.39978739233E+02  0.41590076934E+02  0.18799729561E+03  0.19664947813E+03  0.00000000000E+00 0. -1.
         21    1    1    2  504  505 -0.67546413614E+02 -0.25776725308E+01  0.38587334454E+02  0.77834084873E+02  0.00000000000E+00 0. -1.
         21    1    1    2  505  502  0.75654641637E+02  0.44311790345E+01 -0.17183711722E+02  0.77708043969E+02  0.00000000000E+00 0.  1.
         21    1    1    2  506  504 -0.48086967256E+02 -0.43443583437E+02 -0.78829521047E+01  0.65282787131E+02  0.00000000000E+00 0. -1.
<scales pt_clust_3="57.68912" pt_clust_4="72.98007" pt_clust_5="14000.00000" pt_clust_6="50.71971"></scales>
<clustering>
<clus scale="   57.689">  1  3  2 -1</clus>
<clus scale="   50.720">  1  6  2 -1</clus>
<clus scale="   72.980">  1  4  2 -1</clus>
<clus scale="   57.689">  1  3  2 -1</clus>
</clustering>
</event>
<event>
 6    0  0.7442036E+002  0.7036430E+02  0.7546771E-02  0.1358859E+00
         21   -1    0    0  504  501  0.00000000000E+00  0.00000000000E+00  0.31188837667E+03  0.31188837667E+03  0.00000000000E+00 0. -1.
         21   -1    0    0  505  502 -0.00000000000E+00 -0.00000000000E+00 -0.78882726594E+02  0.78882726594E+02  0.00000000000E+00 0. -1.
         21    1    1    2  503  502  0.98507060647E+02  0.60362947167E+01  0.23795936208E+02  0.10152006911E+03  0.00000000000E+00 0. -1.
         21    1    1    2  504  503  0.25815408098E+02 -0.25906829372E+02  0.59518885749E+02  0.69857690086E+02  0.00000000000E+00 0. -1.
         21    1    1    2  505  506 -0.45379686104E+02  0.67786295297E+01 -0.40627233180E+01  0.46062690434E+02  0.00000000000E+00 0. -1.
         21    1    1    2  506  501 -0.78942782641E+02  0.13091905126E+02  0.15375355144E+03  0.17333065364E+03  0.00000000000E+00 0. -1.
<scales pt_clust_3="70.36430" pt_clust_4="36.57320" pt_clust_5="43.42858" pt_clust_6="14000.00000"></scales>
<clustering>
<clus scale="   36.573">  1  4  2 -1</clus>
<clus scale="   43.429">  2  5  1 -1</clus>
<clus scale="   70.364">  2  3  1 -1</clus>
<clus scale="   36.573">  1  3  2 -1</clus>
</clustering>
</event>
<event>
 6    0  0.7442036E+002  0.1272751E+03  0.7546771E-02  0.1231556E+00
         21   -1    0    0  503  501  0.00000000000E+00  0.00000000000E+00  0.11328796098E+03  0.11328796098E+03  0.00000000000E+00 0. -1.
         21   -1    0    0  504  502 -0.00000000000E+00 -0.00000000000E+00 -0.39572341188E+03  0.39572341188E+03  0.00000000000E+00 0. -1.
         21    1    1    2  503  502 -0.68085176091E+02 -0.10422512785E+03 -0.29890182553E+03  0.32379124414E+03  0.00000000000E+00 0. -1.
         21    1    1    2  504  506  0.28711312176E+02  0.37401545504E+02  0.36364055091E+01  0.47290998066E+02  0.00000000000E+00 0. -1.
         21    1    1    2  505  501 -0.25827024377E+02  0.42482509079E+02  0.39397102557E+02  0.63434457952E+02  0.00000000000E+00 0. -1.
         21    1    1    2  506  505  0.65200888291E+02  0.24341073270E+02 -0.26567133435E+02  0.74494672701E+02  0.00000000000E+00 0. -1.
<scales pt_clust_3="120.51838" pt_clust_4="33.67955" pt_clust_5="49.71719" pt_clust_6="33.67955"></scales>
<clustering>
<clus scale="   33.680">  4  6 -1 -1</clus>
<clus scale="   49.717">  1  5  2 -1</clus>
<clus scale="  120.518">  2  3  1 -1</clus>
<clus scale="   49.717">  1  3  2 -1</clus>
</clustering>
</event>
<event>
 6    0  0.7442036E+002  0.1320410E+03  0.7546771E-02  0.1224458E+00
         21   -1    0    0  505  501  0.00000000000E+00  0.00000000000E+00  0.89075461564E+02  0.89075461564E+02  0.00000000000E+00 0. -1.
         21   -1    0    0  504  502 -0.00000000000E+00 -0.00000000000E+00 -0.13119612431E+04  0.13119612431E+04  0.00000000000E+00 0. -1.
         21    1    1    2  503  501 -0.39934685877E+02 -0.53319748179E+02  0.52862977577E+02  0.85042748546E+02  0.00000000000E+00 0. -1.
         21    1    1    2  504  506  0.11990462853E+02 -0.28458723672E+02 -0.59714095538E+02  0.67226805356E+02  0.00000000000E+00 0. -1.
         21    1    1    2  505  502  0.14017444637E+03  0.22623846230E+02 -0.83980173018E+03  0.85172041178E+03  0.00000000000E+00 0. -1.
         21    1    1    2  506  503 -0.11223022335E+03  0.59154625621E+02 -0.37623293344E+03  0.39704673902E+03  0.00000000000E+00 0. -1.
<scales pt_clust_3="66.81843" pt_clust_4="30.88155" pt_clust_5="132.04100" pt_clust_6="14000.00000"></scales>
<clustering>
<clus scale="   30.882">  2  4  1 -1</clus>
<clus scale="   66.818">  1  3  2 -1</clus>
<clus scale="  132.041">  2  5  1 -1</clus>
<clus scale="   66.818">  1  3  2 -1</clus>
</clustering>
</event>
<event>
 6    0  0.7442036E+002  0.1184543E+03  0.7546771E-02  0.1245669E+00
         21   -1    0    0  504  501  0.00000000000E+00  0.00000000000E+00  0.10555218544E+03  0.10555218544E+03  0.00000000000E+00 0. -1.
         21   -1    0    0  506  502 -0.00000000000E+00 -0.00000000000E+00 -0.21690318708E+04  0.21690318708E+04  0.00000000000E+00 0.  1.
         21    1    1    2  503  501 -0.38093578029E+02  0.39082889556E+02 -0.57883391032E+01  0.54882582052E+02  0.00000000000E+00 0. -1.
         21    1    1    2  504  505 -0.29675125056E+02 -0.13463837652E+03  0.15792938931E+02  0.13877147545E+03  0.00000000000E+00 0. -1.
         21    1    1    2  505  502  0.17586909503E+02 -0.29676432139E+02 -0.69612153385E+03  0.69697573838E+03  0.00000000000E+00 0.  1.
         21    1    1    2  506  503  0.50181793582E+02  0.12523191910E+03 -0.13773627514E+04  0.13839542604E+04  0.00000000000E+00 0.  1.
<scales pt_clust_3="53.88604" pt_clust_4="118.45425" pt_clust_5="34.49623" pt_clust_6="14000.00000"></scales>
<clustering>
<clus scale="   34.496">  2  5  1 -1</clus>
<clus scale="   53.886">  1  3  2 -1</clus>
<clus scale="  118.454">  1  4  2 -1</clus>
<clus scale="   53.886">  1  3  2 -1</clus>
</clustering>
</event>
<event>
 6    0  0.7442036E+002  0.7879019E+02  0.7546771E-02  0.1332520E+00
         21   -1    0    0  506  501  0.00000000000E+00  0.00000000000E+00  0.39903300556E+02  0.39903300556E+02  0.00000000000E+00 0.  1.
         21   -1    0    0  504  502 -0.00000000000E+00 -0.00000000000E+00 -0.15916814466E+04  0.15916814466E+04  0.00000000000E+00 0.  1.
         21    1    1    2  503  502  0.43956271042E+02  0.71016413785E+02 -0.11658965350E+04  0.11688841752E+04  0.00000000000E+00 0.  1.
         21    1    1    2  504  505 -0.57659699037E+02 -0.40393055604E+02 -0.30308499573E+03  0.31115390801E+03  0.00000000000E+00 0.  1.
         21    1    1    2  505  501 -0.45868022011E+02  0.16744850959E+02 -0.45700162106E+02  0.66878773115E+02  0.00000000000E+00 0.  1.
         21    1    1    2  506  503  0.59571450006E+02 -0.47368209140E+02 -0.37096453229E+02  0.84667890815E+02  0.00000000000E+00 0.  1.
<scales pt_clust_3="14000.00000" pt_clust_4="78.79019" pt_clust_5="48.82894" pt_clust_6="40.50748"></scales>
<clustering>
<clus scale="   48.829">  1  5  2 -1</clus>
<clus scale="   40.507">  1  6  2 -1</clus>
<clus scale="   78.790">  1  4  2 -1</clus>
<clus scale="   48.829">  1  3  2 -1</clus>
</clustering>
</event>
<event>
 6    0  0.7442036E+002  0.1283897E+03  0.7546771E-02  0.1229865E+00
         21   -1    0    0  506  501  0.00000000000E+00  0.00000000000E+00  0.42948297553E+03  0.42948297553E+03  0.00000000000E+00 0.  1.
         21   -1    0    0  504  502 -0.00000000000E+00 -0.00000000000E+00 -0.41531720635E+03  0.41531720635E+03  0.00000000000E+00 0.  1.
         21    1    1    2  503  501 -0.17769181739E+03 -0.58371337904E+02  0.12614950808E+03  0.22559985249E+03  0.00000000000E+00 0.  1.
         21    1    1    2  504  505  0.34642837391E+02 -0.81908526464E+00 -0.23126814005E+03  0.23384984431E+03  0.00000000000E+00 0.  1.
         21    1    1    2  505  503  0.33203283523E+02  0.31708803844E+02 -0.11571702384E+03  0.12449231255E+03  0.00000000000E+00 0.  1.
         21    1    1    2  506  502  0.10984569647E+03  0.27481619325E+02  0.23500142498E+03  0.26085817253E+03  0.00000000000E+00 0.  1.
<scales pt_clust_3="128.38973" pt_clust_4="34.65252" pt_clust_5="64.06418" pt_clust_6="14000.00000"></scales>
<clustering>
<clus scale="   34.653">  2  4  1 -1</clus>
<clus scale="   64.064">  2  5  1 -1</clus>
<clus scale="  128.390">  2  3  1 -1</clus>
<clus scale="  128.390">  1  3  2 -1</clus>
</clustering>
</event>
<event>
 6    0  0.7442036E+002  0.1862550E+03  0.7546771E-02  0.1161883E+00
         21   -1    0    0  504  501  0.00000000000E+00  0.00000000000E+00  0.52979462992E+02  0.52979462992E+02  0.00000000000E+00 0. -1.
         21   -1    0    0  506  502 -0.00000000000E+00 -0.00000000000E+00 -0.89175751825E+03  0.89175751825E+03  0.00000000000E+00 0. -1.
         21    1    1    2  503  502  0.26806554775E+01 -0.17647839733E+03 -0.36905075491E+03  0.40908467380E+03  0.00000000000E+00 0. -1.
         21    1    1    2  504  503  0.49996019829E+02  0.46452907804E+01 -0.34335632612E+02  0.60828582032E+02  0.00000000000E+00 0. -1.
         21    1    1    2  505  501 -0.36793851650E+02  0.67954358215E+02 -0.25057544691E+03  0.26222058827E+03  0.00000000000E+00 0. -1.
         21    1    1    2  506  505 -0.15882823657E+02  0.10387874833E+03 -0.18481622083E+03  0.21260313714E+03  0.00000000000E+00 0. -1.
<scales pt_clust_3="176.35397" pt_clust_4="50.21136" pt_clust_5="50.41315" pt_clust_6="50.41315"></scales>
<clustering>
<clus scale="   50.211">  1  4  2 -1</clus>
<clus scale="   50.413">  5  6 -1 -1</clus>
<clus scale="  176.354">  1  3  2 -1</clus>
<clus scale="   50.211">  1  3  2 -1</clus>
</clustering>
</event>
<event>
 6    0  0.7442036E+002  0.9703381E+02  0.7546771E-02  0.1286660E+00
         21   -1    0    0  503  501  0.00000000000E+00  0.00000000000E+00  0.18265532139E+03  0.18265532139E+03  0.00000000000E+00 0. -1.
         21   -1    0    0  506  502 -0.00000000000E+00 -0.00000000000E+00 -0.29916630482E+03  0.29916630482E+03  0.00000000000E+00 0. -1.
         21    1    1    2  503  505 -0.44120431105E+02  0.55861633193E+02  0.53774111267E+02  0.89212048213E+02  0.00000000000E+00 0. -1.
         21    1    1    2  504  501 -0.61952760310E+02 -0.68317209098E+02  0.72774721042E+02  0.11747997954E+03  0.00000000000E+00 0. -1.
         21    1    1    2  505  502  0.74529754489E+02  0.24442586200E+02 -0.22176667635E+03  0.23522878877E+03  0.00000000000E+00 0. -1.
         21    1    1    2  506  504  0.31543436926E+02 -0.11987010295E+02 -0.21293139385E+02  0.39900809688E+02  0.00000000000E+00 0. -1.
<scales pt_clust_3="69.28274" pt_clust_4="14000.00000" pt_clust_5="97.03381" pt_clust_6="33.74429"></scales>
<clustering>
<clus scale="   33.744">  2  6  1 -1</clus>
<clus scale="   69.283">  1  3  2 -1</clus>
<clus scale="   97.034">  2  5  1 -1</clus>
<clus scale="   69.283">  1  3  2 -1</clus>
</clustering>
</event>
<event>
 6    0  0.7442036E+002  0.1101358E+03  0.7546771E-02  0.1260319E+00
         21   -1    0    0  505  501  0.00000000000E+00  0.00000000000E+00  0.11592196331E+04  0.11592196331E+04  0.00000000000E+00 0.  1.
         21   -1    0    0  503  502 -0.00000000000E+00 -0.00000000000E+00 -0.14126327049E+03  0.14126327049E+03  0.00000000000E+00 0. -1.
         21    1    1    2  503  501 -0.33161634771E+02  0.18990565300E+02 -0.12977034581E+02  0.40357638901E+02  0.00000000000E+00 0. -1.
         21    1    1    2  504  502  0.32274714227E+02  0.91075632930E+02 -0.84299575998E+02  0.12822966352E+03  0.00000000000E+00 0. -1.
         21    1    1    2  505  506  0.29995557316E+02  0.19022100526E+02  0.55944441091E+03  0.56057080076E+03  0.00000000000E+00 0.  1.
         21    1    1    2  506  504 -0.29108636772E+02 -0.12908829876E+03  0.55578856229E+03  0.57132480043E+03  0.00000000000E+00 0.  1.
<scales pt_clust_3="37.84242" pt_clust_4="14000.00000" pt_clust_5="35.51864" pt_clust_6="110.13582"></scales>
<clustering>
<clus scale="   35.519">  1  5  2 -1</clus>
<clus scale="   37.842">  2  3  1 -1</clus>
<clus scale="  110.136">  1  6  2 -1</clus>
<clus scale="   35.519">  1  3  2 -1</clus>
</clustering>
</event>
<event>
 6    0  0.7442036E+002  0.1394997E+03  0.7546771E-02  0.1214004E+00
         21   -1    0    0  506  501  0.00000000000E+00  0.00000000000E+00  0.19012802395E+03  0.19012802395E+03  0.00000000000E+00 0. -1.
         21   -1    0    0  505  502 -0.00000000000E+00 -0.00000000000E+00 -0.97968350807E+03  0.97968350807E+03  0.00000000000E+00 0. -1.
         21    1    1    2  503  504 -0.73999013684E+02 -0.79748166936E+02 -0.38500334985E+03  0.40007899664E+03  0.00000000000E+00 0. -1.
         21    1    1    2  504  501 -0.46642536775E+02  0.21036505313E+02  0.12820528790E+03  0.13803860561E+03  0.00000000000E+00 0. -1.
         21    1    1    2  505  503  0.50347278033E+02 -0.75655056860E+02 -0.44970808478E+03  0.45879831904E+03  0.00000000000E+00 0.  1.
         21    1    1    2  506  502  0.70294272426E+02  0.13436671848E+03 -0.83049337375E+02  0.17289561073E+03  0.00000000000E+00 0. -1.
<scales pt_clust_3="14000.00000" pt_clust_4="51.16699" pt_clust_5="87.44672" pt_clust_6="139.49972"></scales>
<clustering>
<clus scale="   51.167">  1  4  2 -1</clus>
<clus scale="   87.447">  2  5  1 -1</clus>
<clus scale="  139.500">  1  6  2 -1</clus>
<clus scale="   51.167">  1  3  2 -1</clus>
</clustering>
</event>
<event>
 6    0  0.7442036E+002  0.1178045E+03  0.7546771E-02  0.1246764E+00
         21   -1    0    0  504  501  0.00000000000E+00  0.00000000000E+00  0.20036834245E+03  0.20036834245E+03  0.00000000000E+00 0. -1.
         21   -1    0    0  505  502 -0.00000000000E+00 -0.00000000000E+00 -0.53765290294E+03  0.53765290294E+03  0.00000000000E+00 0. -1.
         21    1    1    2  503  502 -0.30148230566E+02  0.49201831958E+02 -0.95379168503E+02  0.11147610443E+03  0.00000000000E+00 0.  1.
         21    1    1    2  504  506  0.85740452538E+02  0.78894320771E+02  0.15369484623E+03  0.19286742807E+03  0.00000000000E+00 0. -1.
         21    1    1    2  505  501  0.32195731975E+02 -0.18382893614E+02 -0.88995104590E+02  0.96408633306E+02  0.00000000000E+00 0.  1.
         21    1    1    2  506  503 -0.87787953947E+02 -0.10971325912E+03 -0.30660513362E+03  0.33726907959E+03  0.00000000000E+00 0. -1.
<scales pt_clust_3="50.32168" pt_clust_4="117.80449" pt_clust_5="37.07420" pt_clust_6="14000.00000"></scales>
<clustering>
<clus scale="   37.074">  2  5  1 -1</clus>
<clus scale="   50.322">  2  3  1 -1</clus>
<clus scale="  117.804">  1  4  2 -1</clus>
<clus scale="  117.804">  1  3  2 -1</clus>
</clustering>
</event>
<event>
 6    0  0.7442036E+002  0.1477180E+03  0.7546771E-02  0.1203306E+00
         21   -1    0    0  505  501  0.00000000000E+00  0.00000000000E+00  0.94471437096E+02  0.94471437096E+02  0.00000000000E+00 0. -1.
         21   -1    0    0  503  502 -0.00000000000E+00 -0.00000000000E+00 -0.19099428009E+04  0.19099428009E+04  0.00000000000E+00 0. -1.
         21    1    1    2  503  504  0.73935523337E+02  0.13547559336E+03 -0.96801740509E+03  0.98024374242E+03  0.00000000000E+00 0. -1.
         21    1    1    2  504  501 -0.13208917275E+03 -0.93945205754E+01 -0.39769828929E+02  0.13826585214E+03  0.00000000000E+00 0. -1.
         21    1    1    2  505  506 -0.33883703093E+01  0.36616435200E+02  0.18809579634E+02  0.41304293555E+02  0.00000000000E+00 0. -1.
         21    1    1    2  506  502  0.61542019727E+02 -0.16269750798E+03 -0.82649370942E+03  0.84460034987E+03  0.00000000000E+00 0. -1.
<scales pt_clust_3="14000.00000" pt_clust_4="135.95813" pt_clust_5="36.77288" pt_clust_6="147.71795"></scales>
<clustering>
<clus scale="   36.773">  1  5  2 -1</clus>
<clus scale="  135.958">  1  4  2 -1</clus>
<clus scale="  147.718">  1  6  2 -1</clus>
<clus scale="   36.773">  1  3  2 -1</clus>
</clustering>
</event>
<event>
 6    0  0.7442036E+002  0.1517665E+03  0.7546771E-02  0.1198319E+00
         21   -1    0    0  506  501  0.00000000000E+00  0.00000000000E+00  0.35151373846E+03  0.35151373846E+03  0.00000000000E+00 0.  1.
         21   -1    0    0  504  502 -0.00000000000E+00 -0.00000000000E+00 -0.34532975930E+03  0.34532975930E+03  0.00000000000E+00 0.  1.
         21    1    1    2  503  505 -0.60754662195E+02  0.12421327903E+03 -0.17327786574E+03  0.22168736189E+03  0.00000000000E+00 0.  1.
         21    1    1    2  504  501  0.25047947149E+02  0.66534306471E+02  0.22607027814E+03  0.23698519839E+03  0.00000000000E+00 0.  1.
         21    1    1    2  505  502 -0.35811883630E+02 -0.17791062044E+02 -0.30552231690E+02  0.50323471254E+02  0.00000000000E+00 0.  1.
         21    1    1    2  506  503  0.71518598676E+02 -0.17295652345E+03 -0.16056201559E+02  0.18784746623E+03  0.00000000000E+00 0.  1.
<scales pt_clust_3="151.76654" pt_clust_4="70.57080" pt_clust_5="39.98766" pt_clust_6="14000.00000"></scales>
<clustering>
<clus scale="   39.988">  2  5  1 -1</clus>
<clus scale="   70.571">  1  4  2 -1</clus>
<clus scale="  151.767">  2  3  1 -1</clus>
<clus scale="   70.571">  1  3  2 -1</clus>
</clustering>
</event>
<event>
 6    0  0.7442036E+002  0.1859336E+03  0.7546771E-02  0.1162181E+00
         21   -1    0    0  503  501  0.00000000000E+00  0.00000000000E+00  0.69168890931E+03  0.69168890931E+03  0.00000000000E+00 0. -1.
         21   -1    0    0  506  502 -0.00000000000E+00 -0.00000000000E+00 -0.44341094399E+03  0.44341094399E+03  0.00000000000E+00 0. -1.
         21    1    1    2  503  505  0.56056591434E+02 -0.76808342669E+02 -0.13464304312E+03  0.16483510550E+03  0.00000000000E+00 0. -1.
         21    1    1    2  504  502 -0.25492459467E+02 -0.57121958868E+02 -0.17733651136E+03  0.18804526566E+03  0.00000000000E+00 0. -1.
         21    1    1    2  505  504 -0.74147801880E+02 -0.59528435280E+02 -0.72205987392E+02  0.11939529198E+03  0.00000000000E+00 0.  1.
         21    1    1    2  506  501  0.43583669913E+02  0.19345873682E+03  0.63246350719E+03  0.66282419016E+03  0.00000000000E+00 0. -1.
<scales pt_clust_3="185.93361" pt_clust_4="62.55225" pt_clust_5="116.00793" pt_clust_6="14000.00000"></scales>
<clustering>
<clus scale="   62.552">  2  4  1 -1</clus>
<clus scale="  116.008">  2  5  1 -1</clus>
<clus scale="  185.934">  2  3  1 -1</clus>
<clus scale="  185.934">  1  3  2 -1</clus>
</clustering>
</event>
<event>
 6    0  0.7442036E+002  0.6597599E+02  0.7546771E-02  0.1374337E+00
         21   -1    0    0  505  501  0.00000000000E+00  0.00000000000E+00  0.53885596771E+02  0.53885596771E+02  0.00000000000E+00 0. -1.
         21   -1    0    0  503  502 -0.00000000000E+00 -0.00000000000E+00 -0.62200818031E+03  0.62200818031E+03  0.00000000000E+00 0. -1.
         21    1    1    2  503  504  0.10771336686E+01  0.55520570469E+02 -0.35794925273E+03  0.36223108852E+03  0.00000000000E+00 0. -1.
         21    1    1    2  504  506  0.53261755578E+02 -0.30488612254E+02 -0.13509390107E+03  0.14838036323E+03  0.00000000000E+00 0. -1.
         21    1    1    2  505  502 -0.25337024065E+02 -0.80549324840E+02 -0.47011424378E+02  0.96644878513E+02  0.00000000000E+00 0. -1.
         21    1    1    2  506  501 -0.29001865181E+02  0.55517366625E+02 -0.28068005360E+02  0.68637446819E+02  0.00000000000E+00 0. -1.
<scales pt_clust_3="55.53102" pt_clust_4="53.84647" pt_clust_5="14000.00000" pt_clust_6="65.97599"></scales>
<clustering>
<clus scale="   55.531">  2  3  1 -1</clus>
<clus scale="   53.846">  2  4  1 -1</clus>
<clus scale="   65.976">  1  6  2 -1</clus>
<clus scale="   65.976">  1  3  2 -1</clus>
</clustering>
</event>
<event>
 6    0  0.7442036E+002  0.1104047E+03  0.7546771E-02  0.1259822E+00
         21   -1    0    0  503  501  0.00000000000E+00  0.00000000000E+00  0.12007156507E+04  0.12007156507E+04  0.00000000000E+00 0.  1.
         21   -1    0    0  505  502 -0.00000000000E+00 -0.00000000000E+00 -0.13226654593E+03  0.13226654593E+03  0.00000000000E+00 0.  1.
         21    1    1    2  503  502 -0.14003594949E+03 -0.13289112741E+03  0.55858786116E+03  0.59100805201E+03  0.00000000000E+00 0.  1.
         21    1    1    2  504  506  0.20471444950E+02  0.62395077356E+02 -0.48783136407E+02  0.81804768408E+02  0.00000000000E+00 0.  1.
         21    1    1    2  505  504  0.61461444704E+02  0.15694423980E+02 -0.27117889416E+02  0.68986984682E+02  0.00000000000E+00 0.  1.
         21    1    1    2  506  501  0.58103059841E+02  0.54801626071E+02  0.58576226946E+03  0.59118239157E+03  0.00000000000E+00 0.  1.
<scales pt_clust_3="110.40468" pt_clust_4="14000.00000" pt_clust_5="63.43362" pt_clust_6="81.66117"></scales>
<clustering>
<clus scale="   63.434">  2  5  1 -1</clus>
<clus scale="   81.661">  1  6  2 -1</clus>
<clus scale="  110.405">  1  3  2 -1</clus>
<clus scale="   81.661">  1  3  2 -1</clus>
</clustering>
</event>
<event>
 6    0  0.7442036E+002  0.6783401E+02  0.7546771E-02  0.1367617E+00
         21   -1    0    0  505  501  0.00000000000E+00  0.00000000000E+00  0.17709057878E+03  0.17709057878E+03  0.00000000000E+00 0.  1.
         21   -1    0    0  503  502 -0.00000000000E+00 -0.00000000000E+00 -0.25386922074E+03  0.25386922074E+03  0.00000000000E+00 0.  1.
         21    1    1    2  503  506 -0.68791788945E+02  0.26472007644E+02 -0.82222560521E+02  0.11042475662E+03  0.00000000000E+00 0.  1.
         21    1    1    2  504  502 -0.21943684004E+02 -0.49448044249E+02 -0.45280853308E+02  0.70547785394E+02  0.00000000000E+00 0.  1.
         21    1    1    2  505  504  0.53979580389E+02 -0.32334588916E+02 -0.80940712819E+02  0.10252180125E+03  0.00000000000E+00 0. -1.
         21    1    1    2  506  501  0.36755892560E+02  0.55310625521E+02  0.13166548469E+03  0.14746545626E+03  0.00000000000E+00 0.  1.
<scales pt_clust_3="14000.00000" pt_clust_4="54.09838" pt_clust_5="67.83401" pt_clust_6="64.26087"></scales>
<clustering>
<clus scale="   54.098">  2  4  1 -1</clus>
<clus scale="   64.261">  1  6  2 -1</clus>
<clus scale="   67.834">  2  5  1 -1</clus>
<clus scale="   64.261">  1  3  2 -1</clus>
</clustering>
</event>
<event>
 6    0  0.7442036E+002  0.1251625E+03  0.7546771E-02  0.1234816E+00
         21   -1    0    0  504  501  0.00000000000E+00  0.00000000000E+00  0.15717365218E+03  0.15717365218E+03  0.00000000000E+00 0. -1.
         21   -1    0    0  506  502 -0.00000000000E+00 -0.00000000000E+00 -0.10713773369E+04  0.10713773369E+04  0.00000000000E+00 0. -1.
         21    1    1    2  503  502  0.73130139248E+02 -0.49192146178E+02 -0.77934534649E+03  0.78431310942E+03  0.00000000000E+00 0. -1.
         21    1    1    2  504  503 -0.67873975919E+02  0.60786620620E+02  0.39661665160E+02  0.99372720284E+02  0.00000000000E+00 0. -1.
         21    1    1    2  505  501 -0.59484916447E+02 -0.21142590437E+02  0.69976330255E+02  0.94245165452E+02  0.00000000000E+00 0. -1.
         21    1    1    2  506  505  0.54228753118E+02  0.95481159955E+01 -0.24449633361E+03  0.25061999388E+03  0.00000000000E+00 0. -1.
<scales pt_clust_3="14000.00000" pt_clust_4="125.16250" pt_clust_5="62.33095" pt_clust_6="55.06291"></scales>
<clustering>
<clus scale="   55.063">  2  6  1 -1</clus>
<clus scale="   62.331">  1  5  2 -1</clus>
<clus scale="  125.162">  1  4  2 -1</clus>
<clus scale="   62.331">  1  3  2 -1</clus>
</clustering>
</event>
<event>
 6    0  0.7442036E+002  0.1035826E+03  0.7546771E-02  0.1272938E+00
         21   -1    0    0  504  501  0.00000000000E+00  0.00000000000E+00  0.28659706353E+04  0.28659706353E+04  0.00000000000E+00 0.  1.
         21   -1    0    0  505  502 -0.00000000000E+00 -0.00000000000E+00 -0.11679782625E+03  0.11679782625E+03  0.00000000000E+00 0. -1.
         21    1    1    2  503  501 -0.45671467059E+02 -0.80213438606E+01  0.23835864003E+04  0.23840374058E+04  0.00000000000E+00 0.  1.
         21    1    1    2  504  502  0.29830290788E+02 -0.20328374584E+02  0.27178901867E+02  0.45186079366E+02  0.00000000000E+00 0.  1.
         21    1    1    2  505  506  0.28479381196E+02 -0.70061917774E+02 -0.87834082189E+02  0.11590760747E+03  0.00000000000E+00 0. -1.
         21    1    1    2  506  503 -0.12638204926E+02  0.98411636219E+02  0.42624158905E+03  0.43763736884E+03  0.00000000000E+00 0.  1.
<scales pt_clust_3="46.31644" pt_clust_4="36.09832" pt_clust_5="14000.00000" pt_clust_6="103.58265"></scales>
<clustering>
<clus scale="   36.098">  2  4  1 -1</clus>
<clus scale="   46.316">  1  3  2 -1</clus>
<clus scale="  103.583">  1  6  2 -1</clus>
<clus scale="   46.316">  1  3  2 -1</clus>
</clustering>
</event>
<event>
 6    0  0.1146131E+003  0.1495730E+03  0.7546771E-02  0.1200999E+00
         21   -1    0    0  504  501  0.00000000000E+00  0.00000000000E+00  0.75918523455E+03  0.75918523455E+03  0.00000000000E+00 0. -1.
         21   -1    0    0  506  502 -0.00000000000E+00 -0.00000000000E+00 -0.13738607350E+04  0.13738607350E+04  0.00000000000E+00 0.  1.
         21    1    1    2  503  502  0.64962670372E+02 -0.14993243391E+02 -0.11294111399E+04  0.11313772442E+04  0.00000000000E+00 0.  1.
         21    1    1    2  504  503 -0.14575634932E+03 -0.50978992904E+02  0.72144406540E+03  0.73778405417E+03  0.00000000000E+00 0. -1.
         21    1    1    2  505  501  0.52399743631E+02  0.94057223349E+02 -0.89340124450E+02  0.13990765609E+03  0.00000000000E+00 0.  1.
         21    1    1    2  506  505  0.28393935321E+02 -0.28084987054E+02 -0.11736830155E+03  0.12397701508E+03  0.00000000000E+00 0.  1.
<scales pt_clust_3="99.14604" pt_clust_4="14000.00000" pt_clust_5="149.57304" pt_clust_6="39.93723"></scales>
<clustering>
<clus scale="   39.937">  2  6  1 -1</clus>
<clus scale="   99.146">  2  3  1 -1</clus>
<clus scale="  149.573">  2  5  1 -1</clus>
<clus scale="  149.573">  1  3  2 -1</clus>
</clustering>
</event>
<event>
 6    0  0.7442036E+002  0.7745371E+02  0.7546771E-02  0.1336437E+00
         21   -1    0    0  504  501  0.00000000000E+00  0.00000000000E+00  0.17458672395E+03  0.17458672395E+03  0.00000000000E+00 0. -1.
         21   -1    0    0  506  502 -0.00000000000E+00 -0.00000000000E+00 -0.18675204313E+03  0.18675204313E+03  0.00000000000E+00 0. -1.
         21    1    1    2  503  505 -0.23325921103E+02  0.95440101058E+02 -0.51849926275E+02  0.11109152236E+03  0.00000000000E+00 0. -1.
         21    1    1    2  504  502  0.48866953777E+02  0.19647307323E+02  0.91957671121E+02  0.10597268108E+03  0.00000000000E+00 0. -1.
         21    1    1    2  505  501 -0.53116947932E+01 -0.47420869773E+02  0.11536708094E+02  0.49092246080E+02  0.00000000000E+00 0. -1.
         21    1    1    2  506  503 -0.20229337881E+02 -0.67666538609E+02 -0.63809772117E+02  0.95182317560E+02  0.00000000000E+00 0. -1.
<scales pt_clust_3="14000.00000" pt_clust_4="47.02218" pt_clust_5="47.71743" pt_clust_6="77.45371"></scales>
<clustering>
<clus scale="   47.717">  1  5  2 -1</clus>
<clus scale="   47.022">  1  4  2 -1</clus>
<clus scale="   77.454">  2  6  1 -1</clus>
<clus scale="   47.717">  1  3  2 -1</clus>
</clustering>
</event>
<event>
 6    0  0.7442036E+002  0.9551709E+02  0.7546771E-02  0.1290016E+00
         21   -1    0    0  504  501  0.00000000000E+00  0.00000000000E+00  0.15657034005E+03  0.15657034005E+03  0.00000000000E+00 0. -1.
         21   -1    0    0  501  502 -0.00000000000E+00 -0.00000000000E+00 -0.30269490444E+03  0.30269490444E+03  0.00000000000E+00 0. -1.
         21    1    1    2  503  506 -0.27440146704E+02  0.18040646748E+02 -0.11789891829E+03  0.12238701533E+03  0.00000000000E+00 0. -1.
         21    1    1    2  504  505 -0.16869646600E+02  0.63251325506E+02  0.67615803241E+02  0.94112762167E+02  0.00000000000E+00 0. -1.
         21    1    1    2  505  503  0.99334773165E+02 -0.68640111438E+02  0.11695025742E+02  0.12130801987E+03  0.00000000000E+00 0. -1.
         21    1    1    2  506  502 -0.55024979862E+02 -0.12651860816E+02 -0.10753647508E+03  0.12145744713E+03  0.00000000000E+00 0. -1.
<scales pt_clust_3="32.44142" pt_clust_4="65.46232" pt_clust_5="85.52220" pt_clust_6="32.44142"></scales>
<clustering>
<clus scale="   32.441">  3  6 -1 -1</clus>
<clus scale="   65.462">  1  4  2 -1</clus>
<clus scale="   85.522">  1  5  2 -1</clus>
<clus scale="   65.462">  1  3  2 -1</clus>
</clustering>
</event>
<event>
 6    0  0.7442036E+002  0.1348788E+03  0.7546771E-02  0.1220391E+00
         21   -1    0    0  506  501  0.00000000000E+00  0.00000000000E+00  0.74791275230E+02  0.74791275230E+02  0.00000000000E+00 0. -1.
         21   -1    0    0  504  502 -0.00000000000E+00 -0.00000000000E+00 -0.64664519297E+03  0.64664519297E+03  0.00000000000E+00 0. -1.
         21    1    1    2  503  502  0.38601951745E+02  0.16507141151E+03 -0.32725097577E+03  0.36855377181E+03  0.00000000000E+00 0. -1.
         21    1    1    2  504  505  0.16840908657E+02 -0.11414863738E+03 -0.22292742696E+03  0.25101825693E+03  0.00000000000E+00 0. -1.
         21    1    1    2  505  501 -0.50225649761E+02 -0.12618540168E+02 -0.33212573375E+02  0.61521691135E+02  0.00000000000E+00 0.  1.
         21    1    1    2  506  503 -0.52172106410E+01 -0.38304233961E+02  0.11537058368E+02  0.40342748320E+02  0.00000000000E+00 0. -1.
<scales pt_clust_3="134.87880" pt_clust_4="14000.00000" pt_clust_5="56.91442" pt_clust_6="38.65791"></scales>
<clustering>
<clus scale="   38.658">  1  6  2 -1</clus>
<clus scale="   56.914">  1  5  2 -1</clus>
<clus scale="  134.879">  1  3  2 -1</clus>
<clus scale="   38.658">  1  3  2 -1</clus>
</clustering>
</event>
<event>
 6    0  0.7442036E+002  0.8588708E+02  0.7546771E-02  0.1313129E+00
         21   -1    0    0  505  501  0.00000000000E+00  0.00000000000E+00  0.15629419570E+03  0.15629419570E+03  0.00000000000E+00 0. -1.
         21   -1    0    0  503  502 -0.00000000000E+00 -0.00000000000E+00 -0.43605699788E+03  0.43605699788E+03  0.00000000000E+00 0.  1.
         21    1    1    2  503  504  0.49104828645E+02  0.73683124605E+02 -0.26109777229E+03  0.27570370644E+03  0.00000000000E+00 0.  1.
         21    1    1    2  504  506 -0.79505495981E+02 -0.38435191353E+02 -0.94839414767E+02  0.12958743156E+03  0.00000000000E+00 0.  1.
         21    1    1    2  505  502 -0.40665721855E+02  0.29292095866E+02 -0.17349851286E+02  0.53035319871E+02  0.00000000000E+00 0.  1.
         21    1    1    2  506  501  0.71066389191E+02 -0.64540029118E+02  0.93524236169E+02  0.13402473571E+03  0.00000000000E+00 0. -1.
<scales pt_clust_3="85.88708" pt_clust_4="14000.00000" pt_clust_5="50.11714" pt_clust_6="55.27345"></scales>
<clustering>
<clus scale="   50.117">  1  5  2 -1</clus>
<clus scale="   55.273">  1  6  2 -1</clus>
<clus scale="   85.887">  2  3  1 -1</clus>
<clus scale="   50.117">  1  3  2 -1</clus>
</clustering>
</event>
<event>
 6    0  0.7442036E+002  0.1971554E+03  0.7546771E-02  0.1152161E+00
         21   -1    0    0  505  501  0.00000000000E+00  0.00000000000E+00  0.57097478312E+03  0.57097478312E+03  0.00000000000E+00 0.  1.
         21   -1    0    0  504  502 -0.00000000000E+00 -0.00000000000E+00 -0.14712826163E+03  0.14712826163E+03  0.00000000000E+00 0.  1.
         21    1    1    2  503  506 -0.65853900555E+02 -0.55575460185E+02  0.89699520854E+00  0.86175243507E+02  0.00000000000E+00 0.  1.
         21    1    1    2  504  503 -0.45597742543E+02 -0.92320157672E+02  0.97029417931E+01  0.10342297964E+03  0.00000000000E+00 0. -1.
         21    1    1    2  505  502  0.19557508109E+03  0.11520131838E+03  0.22430547352E+03  0.31911424529E+03  0.00000000000E+00 0.  1.
         21    1    1    2  506  501 -0.84123437987E+02  0.32694299479E+02  0.18894111097E+03  0.20939057632E+03  0.00000000000E+00 0.  1.
<scales pt_clust_3="35.90608" pt_clust_4="35.90608" pt_clust_5="193.20897" pt_clust_6="90.25337"></scales>
<clustering>
<clus scale="   35.906">  3  4 -1 -1</clus>
<clus scale="   90.253">  1  6  2 -1</clus>
<clus scale="  193.209">  1  5  2 -1</clus>
<clus scale="   90.253">  1  3  2 -1</clus>
</clustering>
</event>
<event>
 6    0  0.7442036E+002  0.1439069E+03  0.7546771E-02  0.1208167E+00
         21   -1    0    0  503  501  0.00000000000E+00  0.00000000000E+00  0.84680899570E+03  0.84680899570E+03  0.00000000000E+00 0.  1.
         21   -1    0    0  506  502 -0.00000000000E+00 -0.00000000000E+00 -0.15817780708E+03  0.15817780708E+03  0.00000000000E+00 0.  1.
         21    1    1    2  503  502  0.33489245609E+02 -0.23047593970E+02  0.83154448657E+01  0.41495394715E+02  0.00000000000E+00 0. -1.
         21    1    1    2  504  505 -0.82566427214E+01  0.10028495207E+03  0.86281837707E+02  0.13255111950E+03  0.00000000000E+00 0.  1.
         21    1    1    2  505  501 -0.94990105326E+01  0.84745728092E+02  0.65247192509E+03  0.65802103512E+03  0.00000000000E+00 0.  1.
         21    1    1    2  506  504 -0.15733592355E+02 -0.16198308620E+03 -0.58438019045E+02  0.17291925344E+03  0.00000000000E+00 0.  1.
<scales pt_clust_3="40.65367" pt_clust_4="143.90689" pt_clust_5="84.75664" pt_clust_6="14000.00000"></scales>
<clustering>
<clus scale="   40.654">  2  3  1 -1</clus>
<clus scale="   84.757">  1  5  2 -1</clus>
<clus scale="  143.907">  1  4  2 -1</clus>
<clus scale="   84.757">  1  3  2 -1</clus>
</clustering>
</event>
<event>
 6    0  0.7442036E+002  0.1036258E+03  0.7546771E-02  0.1272851E+00
         21   -1    0    0  503  501  0.00000000000E+00  0.00000000000E+00  0.30489792449E+03  0.30489792449E+03  0.00000000000E+00 0. -1.
         21   -1    0    0  501  502 -0.00000000000E+00 -0.00000000000E+00 -0.22344580287E+04  0.22344580287E+04  0.00000000000E+00 0. -1.
         21    1    1    2  503  504  0.27020673323E+02 -0.95857133246E+02  0.22360738226E+03  0.24478351289E+03  0.00000000000E+00 0. -1.
         21    1    1    2  504  505 -0.12440732300E+03  0.13651687146E+03 -0.54904638100E+02  0.19268772014E+03  0.00000000000E+00 0. -1.
         21    1    1    2  505  506  0.39600475975E+02 -0.50961957432E+02 -0.10561146348E+04  0.10580847984E+04  0.00000000000E+00 0. -1.
         21    1    1    2  506  502  0.57786173700E+02  0.10302219222E+02 -0.10421482136E+04  0.10437999218E+04  0.00000000000E+00 0. -1.
<scales pt_clust_3="99.64526" pt_clust_4="14000.00000" pt_clust_5="103.62582" pt_clust_6="58.69734"></scales>
<clustering>
<clus scale="   58.697">  2  6  1 -1</clus>
<clus scale="   99.645">  1  3  2 -1</clus>
<clus scale="  103.626">  2  5  1 -1</clus>
<clus scale="   99.645">  1  3  2 -1</clus>
</clustering>
</event>
<event>
 6    0  0.7442036E+002  0.2012247E+03  0.7546771E-02  0.1148710E+00
         21   -1    0    0  504  501  0.00000000000E+00  0.00000000000E+00  0.10219319683E+03  0.10219319683E+03  0.00000000000E+00 0. -1.
         21   -1    0    0  501  502 -0.00000000000E+00 -0.00000000000E+00 -0.14484651046E+04  0.14484651046E+04  0.00000000000E+00 0. -1.
         21    1    1    2  503  505  0.33351896279E+02 -0.14748361918E+03 -0.99239769325E+03  0.10038510589E+04  0.00000000000E+00 0. -1.
         21    1    1    2  504  506 -0.11433118981E+03  0.47571034547E+02 -0.37300622955E+02  0.12932888604E+03  0.00000000000E+00 0. -1.
         21    1    1    2  505  502  0.45591134542E+02 -0.37997795409E+02 -0.25593259062E+03  0.26272395198E+03  0.00000000000E+00 0. -1.
         21    1    1    2  506  503  0.35388158992E+02  0.13791038004E+03 -0.60641000971E+02  0.15475440452E+03  0.00000000000E+00 0. -1.
<scales pt_clust_3="45.38745" pt_clust_4="123.83305" pt_clust_5="45.38745" pt_clust_6="187.73114"></scales>
<clustering>
<clus scale="   45.387">  3  5 -1 -1</clus>
<clus scale="  123.833">  1  4  2 -1</clus>
<clus scale="  187.731">  1  6  2 -1</clus>
<clus scale="  123.833">  1  3  2 -1</clus>
</clustering>
</event>
<event>
 6    0  0.7442036E+002  0.1227352E+03  0.7546771E-02  0.1238652E+00
         21   -1    0    0  505  501  0.00000000000E+00  0.00000000000E+00  0.11097631814E+04  0.11097631814E+04  0.00000000000E+00 0.  1.
         21   -1    0    0  504  502 -0.00000000000E+00 -0.00000000000E+00 -0.70814354005E+02  0.70814354005E+02  0.00000000000E+00 0.  1.
         21    1    1    2  503  501 -0.10136130198E+03  0.14141693521E+03  0.38092880885E+03  0.41878350077E+03  0.00000000000E+00 0.  1.
         21    1    1    2  504  503  0.33103525960E+02 -0.51668162659E+01  0.45869519264E+02  0.56802748338E+02  0.00000000000E+00 0.  1.
         21    1    1    2  505  506  0.89970074770E+01 -0.65360022764E+02  0.60897605454E+03  0.61253956095E+03  0.00000000000E+00 0.  1.
         21    1    1    2  506  502  0.59260768541E+02 -0.70890096184E+02  0.31744447606E+01  0.92451725373E+02  0.00000000000E+00 0.  1.
<scales pt_clust_3="14000.00000" pt_clust_4="33.50432" pt_clust_5="66.24477" pt_clust_6="122.73523"></scales>
<clustering>
<clus scale="   33.504">  2  4  1 -1</clus>
<clus scale="   66.245">  1  5  2 -1</clus>
<clus scale="  122.735">  2  6  1 -1</clus>
<clus scale="   66.245">  1  3  2 -1</clus>
</clustering>
</event>
<event>
 6    0  0.7442036E+002  0.8390804E+02  0.7546771E-02  0.1318313E+00
         21   -1    0    0  506  501  0.00000000000E+00  0.00000000000E+00  0.21100148920E+02  0.21100148920E+02  0.00000000000E+00 0. -1.
         21   -1    0    0  504  502 -0.00000000000E+00 -0.00000000000E+00 -0.92573508616E+03  0.92573508616E+03  0.00000000000E+00 0. -1.
         21    1    1    2  503  502  0.26171121917E+02 -0.46484152091E+02 -0.28430349494E+03  0.28926489806E+03  0.00000000000E+00 0. -1.
         21    1    1    2  504  501  0.77032237525E+02  0.44332241171E+02 -0.27009927796E+03  0.28434650196E+03  0.00000000000E+00 0. -1.
         21    1    1    2  505  503 -0.72023121224E+02 -0.33924726682E+02 -0.24694459228E+03  0.25946068822E+03  0.00000000000E+00 0. -1.
         21    1    1    2  506  505 -0.31180238218E+02  0.36076637602E+02 -0.10328757206E+03  0.11376314684E+03  0.00000000000E+00 0. -1.
<scales pt_clust_3="46.06032" pt_clust_4="83.90804" pt_clust_5="14000.00000" pt_clust_6="47.68366"></scales>
<clustering>
<clus scale="   47.684">  1  6  2 -1</clus>
<clus scale="   46.060">  2  3  1 -1</clus>
<clus scale="   83.908">  1  4  2 -1</clus>
<clus scale="   47.684">  1  3  2 -1</clus>
</clustering>
</event>
<event>
 6    0  0.7442036E+002  0.7970017E+02  0.7546771E-02  0.1329904E+00
         21   -1    0    0  505  501  0.00000000000E+00  0.00000000000E+00  0.12687355330E+03  0.12687355330E+03  0.00000000000E+00 0.  1.
         21   -1    0    0  504  502 -0.00000000000E+00 -0.00000000000E+00 -0.27088098225E+04  0.27088098225E+04  0.00000000000E+00 0. -1.
         21    1    1    2  503  502  0.11265781064E+02  0.46691754183E+02 -0.16741539204E+04  0.16748427946E+04  0.00000000000E+00 0. -1.
         21    1    1    2  504  501 -0.88397144666E+02 -0.73748414895E+02  0.94462253600E+02  0.14891608791E+03  0.00000000000E+00 0.  1.
         21    1    1    2  505  506  0.22119216829E+02  0.24871379370E+02 -0.64651137911E+02  0.72715987912E+02  0.00000000000E+00 0.  1.
         21    1    1    2  506  503  0.55012146773E+02  0.21852813413E+01 -0.93759346458E+03  0.93920850538E+03  0.00000000000E+00 0.  1.
<scales pt_clust_3="48.11399" pt_clust_4="79.70017" pt_clust_5="33.28431" pt_clust_6="14000.00000"></scales>
<clustering>
<clus scale="   33.284">  1  5  2 -1</clus>
<clus scale="   48.114">  2  3  1 -1</clus>
<clus scale="   79.700">  1  4  2 -1</clus>
<clus scale="   33.284">  1  3  2 -1</clus>
</clustering>
</event>
<event>
 6    0  0.7442036E+002  0.2835223E+03  0.7546771E-02  0.1093781E+00
         21   -1    0    0  505  501  0.00000000000E+00  0.00000000000E+00  0.15459922549E+04  0.15459922549E+04  0.00000000000E+00 0.  1.
         21   -1    0    0  503  502 -0.00000000000E+00 -0.00000000000E+00 -0.46511403405E+03  0.46511403405E+03  0.00000000000E+00 0.  1.
         21    1    1    2  503  504 -0.58122407660E+02  0.48210863019E+01 -0.40304572000E+02  0.70893692734E+02  0.00000000000E+00 0.  1.
         21    1    1    2  504  506 -0.12887395155E+03 -0.21807231510E+03 -0.31471720705E+03  0.40399375046E+03  0.00000000000E+00 0.  1.
         21    1    1    2  505  502 -0.30874243923E+01 -0.10410323930E+03  0.81610576432E+02  0.13231516469E+03  0.00000000000E+00 0. -1.
         21    1    1    2  506  501  0.19008378360E+03  0.31735446810E+03  0.13542894235E+04  0.14039036811E+04  0.00000000000E+00 0.  1.
<scales pt_clust_3="58.32201" pt_clust_4="283.52229" pt_clust_5="104.01985" pt_clust_6="14000.00000"></scales>
<clustering>
<clus scale="   58.322">  2  3  1 -1</clus>
<clus scale="  104.020">  1  5  2 -1</clus>
<clus scale="  283.522">  2  4  1 -1</clus>
<clus scale="  104.020">  1  3  2 -1</clus>
</clustering>
</event>
<event>
 6    0  0.8948195E+002  0.1264710E+03  0.7546771E-02  0.1232788E+00
         21   -1    0    0  503  501  0.00000000000E+00  0.00000000000E+00  0.93911328663E+03  0.93911328663E+03  0.00000000000E+00 0.  1.
         21   -1    0    0  505  502 -0.00000000000E+00 -0.00000000000E+00 -0.10213867981E+04  0.10213867981E+04  0.00000000000E+00 0.  1.
         21    1    1    2  503  506  0.62757728027E+02  0.59609023237E+02  0.18795529367E+03  0.20692742809E+03  0.00000000000E+00 0.  1.
         21    1    1    2  504  501  0.64466615203E+02 -0.37195378681E+02  0.73322694074E+03  0.73699469964E+03  0.00000000000E+00 0.  1.
         21    1    1    2  505  504 -0.96144948346E+02 -0.20917998191E+02 -0.94714717571E+03  0.95224428914E+03  0.00000000000E+00 0.  1.
         21    1    1    2  506  502 -0.31079394884E+02 -0.14956463656E+01 -0.56308570151E+02  0.64333667833E+02  0.00000000000E+00 0.  1.
<scales pt_clust_3="14000.00000" pt_clust_4="74.37612" pt_clust_5="126.47095" pt_clust_6="31.11536"></scales>
<clustering>
<clus scale="   31.115">  2  6  1 -1</clus>
<clus scale="   74.376">  1  4  2 -1</clus>
<clus scale="  126.471">  2  5  1 -1</clus>
<clus scale="   74.376">  1  3  2 -1</clus>
</clustering>
</event>
<event>
 6    0  0.7442036E+002  0.1045073E+03  0.7546771E-02  0.1271093E+00
         21   -1    0    0  505  501  0.00000000000E+00  0.00000000000E+00  0.77715925596E+03  0.77715925596E+03  0.00000000000E+00 0.  1.
         21   -1    0    0  503  502 -0.00000000000E+00 -0.00000000000E+00 -0.25550819167E+03  0.25550819167E+03  0.00000000000E+00 0.  1.
         21    1    1    2  503  504 -0.79503300217E+02 -0.91175746833E+02 -0.87228567924E+02  0.14913958099E+03  0.00000000000E+00 0.  1.
         21    1    1    2  504  501  0.33341728608E+02 -0.49845931267E+01  0.67603460337E+02  0.75543000237E+02  0.00000000000E+00 0. -1.
         21    1    1    2  505  506  0.39124421915E+02 -0.67341024132E+01  0.65399734876E+03  0.65520119101E+03  0.00000000000E+00 0.  1.
         21    1    1    2  506  502  0.70371496947E+01  0.10289444237E+03 -0.11272117688E+03  0.15278367538E+03  0.00000000000E+00 0.  1.
<scales pt_clust_3="14000.00000" pt_clust_4="33.71227" pt_clust_5="70.97164" pt_clust_6="104.50728"></scales>
<clustering>
<clus scale="   33.712">  1  4  2 -1</clus>
<clus scale="   70.972">  1  5  2 -1</clus>
<clus scale="  104.507">  2  6  1 -1</clus>
<clus scale="   33.712">  1  3  2 -1</clus>
</clustering>
</event>
<event>
 6    0  0.7442036E+002  0.1100674E+03  0.7546771E-02  0.1260445E+00
         21   -1    0    0  506  501  0.00000000000E+00  0.00000000000E+00  0.90138112166E+02  0.90138112166E+02  0.00000000000E+00 0.  1.
         21   -1    0    0  503  502 -0.00000000000E+00 -0.00000000000E+00 -0.31770811029E+03  0.31770811029E+03  0.00000000000E+00 0. -1.
         21    1    1    2  503  504 -0.50930078990E+02 -0.33764943073E+02 -0.89157351865E+02  0.10808782410E+03  0.00000000000E+00 0. -1.
         21    1    1    2  504  501 -0.20065145618E+02 -0.60985320099E+02 -0.14148672924E+03  0.15537153500E+03  0.00000000000E+00 0. -1.
         21    1    1    2  505  502  0.79280125589E+01  0.72932799319E+02 -0.15779801102E+02  0.75040313981E+02  0.00000000000E+00 0.  1.
         21    1    1    2  506  505  0.63067212050E+02  0.21817463853E+02  0.18853884089E+02  0.69346549373E+02  0.00000000000E+00 0.  1.
<scales pt_clust_3="45.72002" pt_clust_4="45.72002" pt_clust_5="99.59231" pt_clust_6="66.73436"></scales>
<clustering>
<clus scale="   45.720">  3  4 -1 -1</clus>
<clus scale="   66.734">  1  6  2 -1</clus>
<clus scale="   99.592">  1  5  2 -1</clus>
<clus scale="   66.734">  1  3  2 -1</clus>
</clustering>
</event>
<event>
 6    0  0.7442036E+002  0.1130561E+03  0.7546771E-02  0.1255013E+00
         21   -1    0    0  504  501  0.00000000000E+00  0.00000000000E+00  0.43833279488E+03  0.43833279488E+03  0.00000000000E+00 0.  1.
         21   -1    0    0  503  502 -0.00000000000E+00 -0.00000000000E+00 -0.26170773660E+03  0.26170773660E+03  0.00000000000E+00 0. -1.
         21    1    1    2  503  501  0.16277276009E+03 -0.13744835103E+02  0.21952259424E+03  0.27363125059E+03  0.00000000000E+00 0.  1.
         21    1    1    2  504  506 -0.46746985208E+02  0.39389460060E+02  0.15322214763E+03  0.16496616839E+03  0.00000000000E+00 0.  1.
         21    1    1    2  505  502 -0.44855186603E+02 -0.71025745126E+02 -0.12738351605E+03  0.15258834948E+03  0.00000000000E+00 0. -1.
         21    1    1    2  506  505 -0.71170588277E+02  0.45381120169E+02 -0.68736167535E+02  0.10885476301E+03  0.00000000000E+00 0. -1.
<scales pt_clust_3="113.05613" pt_clust_4="61.12945" pt_clust_5="83.67196" pt_clust_6="14000.00000"></scales>
<clustering>
<clus scale="   61.129">  1  4  2 -1</clus>
<clus scale="   83.672">  2  5  1 -1</clus>
<clus scale="  113.056">  1  3  2 -1</clus>
<clus scale="   61.129">  1  3  2 -1</clus>
</clustering>
</event>
<event>
 6    0  0.7442036E+002  0.1031981E+03  0.7546771E-02  0.1273711E+00
         21   -1    0    0  505  501  0.00000000000E+00  0.00000000000E+00  0.13624890878E+03  0.13624890878E+03  0.00000000000E+00 0.  1.
         21   -1    0    0  504  502 -0.00000000000E+00 -0.00000000000E+00 -0.12393952632E+04  0.12393952632E+04  0.00000000000E+00 0.  1.
         21    1    1    2  503  502 -0.74398394362E+02 -0.34947604735E+02 -0.85232845444E+03  0.85628280983E+03  0.00000000000E+00 0.  1.
         21    1    1    2  504  506  0.25381038559E+02 -0.53080025997E+02 -0.23367070402E+03  0.24096407242E+03  0.00000000000E+00 0.  1.
         21    1    1    2  505  503  0.64567126662E+02  0.13100588580E+03 -0.10465151345E+03  0.17967580591E+03  0.00000000000E+00 0.  1.
         21    1    1    2  506  501 -0.15549770858E+02 -0.42978255073E+02  0.87504317510E+02  0.98721483811E+02  0.00000000000E+00 0.  1.
<scales pt_clust_3="14000.00000" pt_clust_4="61.60846" pt_clust_5="103.19814" pt_clust_6="45.70477"></scales>
<clustering>
<clus scale="   45.705">  1  6  2 -1</clus>
<clus scale="   61.608">  2  4  1 -1</clus>
<clus scale="  103.198">  1  5  2 -1</clus>
<clus scale="   45.705">  1  3  2 -1</clus>
</clustering>
</event>
<event>
 6    0  0.7442036E+002  0.2032176E+03  0.7546771E-02  0.1147052E+00
         21   -1    0    0  505  501  0.00000000000E+00  0.00000000000E+00  0.10367369789E+04  0.10367369789E+04  0.00000000000E+00 0.  1.
         21   -1    0    0  506  502 -0.00000000000E+00 -0.00000000000E+00 -0.39333085379E+03  0.39333085379E+03  0.00000000000E+00 0.  1.
         21    1    1    2  503  504  0.14435572268E+03  0.13118951396E+03 -0.26877975622E+03  0.33210212375E+03  0.00000000000E+00 0.  1.
         21    1    1    2  504  501  0.40430518912E+02 -0.22219733164E+02  0.42953129878E+03  0.43200171300E+03  0.00000000000E+00 0.  1.
         21    1    1    2  505  502 -0.21407149885E+03 -0.81965105973E+02  0.54541596249E+03  0.59162780306E+03  0.00000000000E+00 0.  1.
         21    1    1    2  506  503  0.29285257255E+02 -0.27004674826E+02 -0.62761379966E+02  0.74336192868E+02  0.00000000000E+00 0. -1.
<scales pt_clust_3="203.21761" pt_clust_4="46.28106" pt_clust_5="14000.00000" pt_clust_6="39.83565"></scales>
<clustering>
<clus scale="   39.836">  2  6  1 -1</clus>
<clus scale="   46.281">  1  4  2 -1</clus>
<clus scale="  203.218">  2  3  1 -1</clus>
<clus scale="   46.281">  1  3  2 -1</clus>
</clustering>
</event>
<event>
 6    0  0.7442036E+002  0.1579911E+03  0.7546771E-02  0.1190984E+00
         21   -1    0    0  505  501  0.00000000000E+00  0.00000000000E+00  0.39070115437E+03  0.39070115437E+03  0.00000000000E+00 0.  1.
         21   -1    0    0  504  502 -0.00000000000E+00 -0.00000000000E+00 -0.18547503335E+03  0.18547503335E+03  0.00000000000E+00 0. -1.
         21    1    1    2  503  502 -0.70234581137E+02 -0.13973673131E+02 -0.60257518913E+02  0.93590215909E+02  0.00000000000E+00 0. -1.
         21    1    1    2  504  506  0.11408430592E+03 -0.34706578130E+01  0.40930303534E+02  0.12125413011E+03  0.00000000000E+00 0.  1.
         21    1    1    2  505  503 -0.10471046471E+03 -0.97109011005E+01 -0.20706217221E+02  0.10717896460E+03  0.00000000000E+00 0. -1.
         21    1    1    2  506  501  0.60860739934E+02  0.27155232044E+02  0.24525955362E+03  0.25415287709E+03  0.00000000000E+00 0.  1.
<scales pt_clust_3="41.96760" pt_clust_4="149.58198" pt_clust_5="41.96760" pt_clust_6="66.64410"></scales>
<clustering>
<clus scale="   41.968">  3  5 -1 -1</clus>
<clus scale="   66.644">  1  6  2 -1</clus>
<clus scale="  149.582">  1  4  2 -1</clus>
<clus scale="   66.644">  1  3  2 -1</clus>
</clustering>
</event>
<event>
 6    0  0.7442036E+002  0.1397420E+03  0.7546771E-02  0.1213677E+00
         21   -1    0    0  503  501  0.00000000000E+00  0.00000000000E+00  0.10945095608E+03  0.10945095608E+03  0.00000000000E+00 0. -1.
         21   -1    0    0  504  502 -0.00000000000E+00 -0.00000000000E+00 -0.13414431223E+04  0.13414431223E+04  0.00000000000E+00 0. -1.
         21    1    1    2  503  505 -0.17407195769E+02 -0.29207615245E+02  0.75125346767E+02  0.82461584872E+02  0.00000000000E+00 0. -1.
         21    1    1    2  504  506 -0.98995198180E+02  0.96028592666E+01 -0.84529999549E+03  0.85113121582E+03  0.00000000000E+00 0. -1.
         21    1    1    2  505  502 -0.40131185254E+02  0.48381388250E+02 -0.21173725549E+03  0.22087085847E+03  0.00000000000E+00 0. -1.
         21    1    1    2  506  501  0.15653357920E+03 -0.28776632272E+02 -0.25008026197E+03  0.29643041917E+03  0.00000000000E+00 0. -1.
<scales pt_clust_3="34.00140" pt_clust_4="14000.00000" pt_clust_5="61.35183" pt_clust_6="139.74196"></scales>
<clustering>
<clus scale="   34.001">  1  3  2 -1</clus>
<clus scale="   61.352">  2  5  1 -1</clus>
<clus scale="  139.742">  1  6  2 -1</clus>
<clus scale="   34.001">  1  3  2 -1</clus>
</clustering>
</event>
<event>
 6    0  0.7442036E+002  0.2024435E+03  0.7546771E-02  0.1147694E+00
         21   -1    0    0  504  501  0.00000000000E+00  0.00000000000E+00  0.16945711729E+03  0.16945711729E+03  0.00000000000E+00 0.  1.
         21   -1    0    0  503  502 -0.00000000000E+00 -0.00000000000E+00 -0.73024619836E+03  0.73024619836E+03  0.00000000000E+00 0.  1.
         21    1    1    2  503  505  0.93549516507E+01 -0.79880255691E+02 -0.30491744914E+03  0.31534587544E+03  0.00000000000E+00 0.  1.
         21    1    1    2  504  502  0.31749151599E+02  0.34150732094E+01 -0.13700643015E+03  0.14067847474E+03  0.00000000000E+00 0.  1.
         21    1    1    2  505  506  0.17663290349E+03  0.43429774376E+02 -0.12935640936E+03  0.22320037755E+03  0.00000000000E+00 0.  1.
         21    1    1    2  506  501 -0.21773700674E+03  0.33035408106E+02  0.10491207579E+02  0.22047858791E+03  0.00000000000E+00 0.  1.
<scales pt_clust_3="82.30535" pt_clust_4="31.93229" pt_clust_5="202.44345" pt_clust_6="14000.00000"></scales>
<clustering>
<clus scale="   31.932">  2  4  1 -1</clus>
<clus scale="   82.305">  2  3  1 -1</clus>
<clus scale="  202.443">  2  5  1 -1</clus>
<clus scale="  202.443">  1  3  2 -1</clus>
</clustering>
</event>
<event>
 6    0  0.7442036E+002  0.1181555E+03  0.7546771E-02  0.1246171E+00
         21   -1    0    0  505  501  0.00000000000E+00  0.00000000000E+00  0.57421557358E+03  0.57421557358E+03  0.00000000000E+00 0. -1.
         21   -1    0    0  506  502 -0.00000000000E+00 -0.00000000000E+00 -0.56302614897E+03  0.56302614897E+03  0.00000000000E+00 0.  1.
         21    1    1    2  503  502 -0.27599590455E+02 -0.13269415667E+02 -0.49021782359E+01  0.31013644367E+02  0.00000000000E+00 0. -1.
         21    1    1    2  504  501  0.10257997879E+03  0.26871566020E+02  0.33361465389E+03  0.35006209506E+03  0.00000000000E+00 0. -1.
         21    1    1    2  505  503 -0.50631159315E+01  0.42806115423E+02  0.21339313015E+03  0.21770306993E+03  0.00000000000E+00 0. -1.
         21    1    1    2  506  504 -0.69917272401E+02 -0.56408265775E+02 -0.53091618120E+03  0.53846291319E+03  0.00000000000E+00 0.  1.
<scales pt_clust_3="30.62376" pt_clust_4="14000.00000" pt_clust_5="43.06538" pt_clust_6="118.15553"></scales>
<clustering>
<clus scale="   30.624">  2  3  1 -1</clus>
<clus scale="   43.065">  1  5  2 -1</clus>
<clus scale="  118.156">  2  6  1 -1</clus>
<clus scale="   43.065">  1  3  2 -1</clus>
</clustering>
</event>
<event>
 6    0  0.7442036E+002  0.8144275E+02  0.7546771E-02  0.1325006E+00
         21   -1    0    0  505  501  0.00000000000E+00  0.00000000000E+00  0.63565823388E+02  0.63565823388E+02  0.00000000000E+00 0.  1.
         21   -1    0    0  504  502 -0.00000000000E+00 -0.00000000000E+00 -0.55005794806E+03  0.55005794806E+03  0.00000000000E+00 0.  1.
         21    1    1    2  503  501  0.37092389434E+02 -0.56572730232E+02 -0.56358559699E+02  0.88048886485E+02  0.00000000000E+00 0.  1.
         21    1    1    2  504  503 -0.53341577860E+02 -0.16484407967E+02 -0.30612697910E+03  0.31117645632E+03  0.00000000000E+00 0.  1.
         21    1    1    2  505  506 -0.29530876082E+02  0.87897883035E+02 -0.13288551503E+02  0.93673347785E+02  0.00000000000E+00 0.  1.
         21    1    1    2  506  502  0.45780064508E+02 -0.14840744836E+02 -0.11071803437E+03  0.12072508086E+03  0.00000000000E+00 0.  1.
<scales pt_clust_3="81.44275" pt_clust_4="34.11261" pt_clust_5="14000.00000" pt_clust_6="48.12548"></scales>
<clustering>
<clus scale="   48.125">  2  6  1 -1</clus>
<clus scale="   34.113">  2  4  1 -1</clus>
<clus scale="   81.443">  2  3  1 -1</clus>
<clus scale="   81.443">  1  3  2 -1</clus>
</clustering>
</event>
<event>
 6    0  0.7442036E+002  0.1502637E+03  0.7546771E-02  0.1200149E+00
         21   -1    0    0  505  501  0.00000000000E+00  0.00000000000E+00  0.27196839301E+03  0.27196839301E+03  0.00000000000E+00 0.  1.
         21   -1    0    0  503  502 -0.00000000000E+00 -0.00000000000E+00 -0.76576016003E+03  0.76576016003E+03  0.00000000000E+00 0.  1.
         21    1    1    2  503  504 -0.26359275676E+02  0.47953517778E+02 -0.43927826542E+03  0.44267340755E+03  0.00000000000E+00 0.  1.
         21    1    1    2  504  506 -0.55056003082E+02  0.65070924869E+02 -0.29249794157E+03  0.30466446225E+03  0.00000000000E+00 0.  1.
         21    1    1    2  505  502  0.27294759398E+02 -0.14663378321E+02  0.13342116085E+03  0.13697162012E+03  0.00000000000E+00 0.  1.
         21    1    1    2  506  501  0.54120519360E+02 -0.98361064326E+02  0.10456327911E+03  0.15341906313E+03  0.00000000000E+00 0.  1.
<scales pt_clust_3="48.39377" pt_clust_4="48.39377" pt_clust_5="30.98417" pt_clust_6="137.71229"></scales>
<clustering>
<clus scale="   30.984">  1  5  2 -1</clus>
<clus scale="   48.394">  3  4 -1 -1</clus>
<clus scale="  137.712">  1  6  2 -1</clus>
<clus scale="   30.984">  1  3  2 -1</clus>
</clustering>
</event>
<event>
 6    0  0.7442036E+002  0.1601930E+03  0.7546771E-02  0.1188479E+00
         21   -1    0    0  506  501  0.00000000000E+00  0.00000000000E+00  0.13704228330E+03  0.13704228330E+03  0.00000000000E+00 0.  1.
         21   -1    0    0  504  502 -0.00000000000E+00 -0.00000000000E+00 -0.95812215750E+03  0.95812215750E+03  0.00000000000E+00 0.  1.
         21    1    1    2  503  505  0.15945884859E+02 -0.78464417128E+02 -0.31116670138E+03  0.32130305328E+03  0.00000000000E+00 0.  1.
         21    1    1    2  504  503 -0.94598425418E+01 -0.72304872369E+02 -0.52912042223E+03  0.53412161949E+03  0.00000000000E+00 0.  1.
         21    1    1    2  505  501  0.30105177914E+02  0.15161893013E+03 -0.49146427469E+02  0.16220355435E+03  0.00000000000E+00 0.  1.
         21    1    1    2  506  502 -0.36591220232E+02 -0.84964063182E+00  0.68353676880E+02  0.77536213670E+02  0.00000000000E+00 0.  1.
<scales pt_clust_3="51.58152" pt_clust_4="51.58152" pt_clust_5="150.88515" pt_clust_6="36.60108"></scales>
<clustering>
<clus scale="   36.601">  1  6  2 -1</clus>
<clus scale="   51.582">  3  4 -1 -1</clus>
<clus scale="  150.885">  1  5  2 -1</clus>
<clus scale="   36.601">  1  3  2 -1</clus>
</clustering>
</event>
<event>
 6    0  0.7442036E+002  0.1429617E+03  0.7546771E-02  0.1209398E+00
         21   -1    0    0  503  501  0.00000000000E+00  0.00000000000E+00  0.31077270307E+03  0.31077270307E+03  0.00000000000E+00 0. -1.
         21   -1    0    0  506  502 -0.00000000000E+00 -0.00000000000E+00 -0.27881908903E+03  0.27881908903E+03  0.00000000000E+00 0. -1.
         21    1    1    2  503  504  0.21578603012E+03  0.22940480854E+02  0.29321834274E+02  0.21897407705E+03  0.00000000000E+00 0. -1.
         21    1    1    2  504  502 -0.71315925929E+02  0.58441624077E+02 -0.64235252883E+02  0.11237238286E+03  0.00000000000E+00 0. -1.
         21    1    1    2  505  501 -0.60179290885E+02 -0.40531270831E+02  0.12747622582E+03  0.14667828441E+03  0.00000000000E+00 0. -1.
         21    1    1    2  506  505 -0.84290813303E+02 -0.40850834099E+02 -0.60609193170E+02  0.11156704778E+03  0.00000000000E+00 0. -1.
<scales pt_clust_3="14000.00000" pt_clust_4="95.57931" pt_clust_5="72.55571" pt_clust_6="142.96172"></scales>
<clustering>
<clus scale="   72.556">  1  5  2 -1</clus>
<clus scale="   95.579">  2  4  1 -1</clus>
<clus scale="  142.962">  2  6  1 -1</clus>
<clus scale="   72.556">  1  3  2 -1</clus>
</clustering>
</event>
<event>
 6    0  0.7442036E+002  0.1446894E+03  0.7546771E-02  0.1207155E+00
         21   -1    0    0  506  501  0.00000000000E+00  0.00000000000E+00  0.80384789458E+03  0.80384789458E+03  0.00000000000E+00 0. -1.
         21   -1    0    0  503  502 -0.00000000000E+00 -0.00000000000E+00 -0.19823742817E+03  0.19823742817E+03  0.00000000000E+00 0. -1.
         21    1    1    2  503  501 -0.19144361088E+03  0.54901047174E+02  0.45284349474E+02  0.20424361296E+03  0.00000000000E+00 0. -1.
         21    1    1    2  504  505  0.84205491736E+02 -0.78699584205E+02  0.13197326701E+03  0.17521738669E+03  0.00000000000E+00 0. -1.
         21    1    1    2  505  502  0.59546914369E+02  0.47627610169E+01 -0.86551941577E+02  0.10516538163E+03  0.00000000000E+00 0. -1.
         21    1    1    2  506  504  0.47691204777E+02  0.19035776014E+02  0.51490479150E+03  0.51745894146E+03  0.00000000000E+00 0. -1.
<scales pt_clust_3="14000.00000" pt_clust_4="144.68943" pt_clust_5="61.32617" pt_clust_6="51.34990"></scales>
<clustering>
<clus scale="   51.350">  1  6  2 -1</clus>
<clus scale="   61.326">  2  5  1 -1</clus>
<clus scale="  144.689">  1  4  2 -1</clus>
<clus scale="   51.350">  1  3  2 -1</clus>
</clustering>
</event>
<event>
 6    0  0.7442036E+002  0.6414672E+02  0.7546771E-02  0.1381210E+00
         21   -1    0    0  504  501  0.00000000000E+00  0.00000000000E+00  0.85612005015E+03  0.85612005015E+03  0.00000000000E+00 0.  1.
         21   -1    0    0  506  502 -0.00000000000E+00 -0.00000000000E+00 -0.19216266710E+03  0.19216266710E+03  0.00000000000E+00 0. -1.
         21    1    1    2  503  502  0.32478923795E+02  0.72904736566E+02 -0.25917456981E+02  0.83914812048E+02  0.00000000000E+00 0.  1.
         21    1    1    2  504  503  0.27046476771E+02  0.23276940242E+02  0.35510854613E+02  0.50342314688E+02  0.00000000000E+00 0.  1.
         21    1    1    2  505  501 -0.88905247283E+02 -0.39066017062E+02  0.77302283723E+03  0.77909858398E+03  0.00000000000E+00 0.  1.
         21    1    1    2  506  505  0.29379846717E+02 -0.57115659746E+02 -0.11865885181E+03  0.13492700654E+03  0.00000000000E+00 0. -1.
<scales pt_clust_3="63.98577" pt_clust_4="35.68372" pt_clust_5="14000.00000" pt_clust_6="64.14672"></scales>
<clustering>
<clus scale="   35.684">  1  4  2 -1</clus>
<clus scale="   64.147">  2  6  1 -1</clus>
<clus scale="   63.986">  2  3  1 -1</clus>
<clus scale="   35.684">  1  3  2 -1</clus>
</clustering>
</event>
<event>
 6    0  0.7442036E+002  0.9055233E+02  0.7546771E-02  0.1301520E+00
         21   -1    0    0  504  501  0.00000000000E+00  0.00000000000E+00  0.39636625419E+03  0.39636625419E+03  0.00000000000E+00 0.  1.
         21   -1    0    0  506  502 -0.00000000000E+00 -0.00000000000E+00 -0.54916132540E+03  0.54916132540E+03  0.00000000000E+00 0. -1.
         21    1    1    2  503  501  0.36752253535E+02  0.36239802838E+02  0.27969342771E+03  0.28441600685E+03  0.00000000000E+00 0.  1.
         21    1    1    2  504  505  0.33669030735E+02 -0.47055805779E+02 -0.31247648023E+02  0.65759166625E+02  0.00000000000E+00 0.  1.
         21    1    1    2  505  502 -0.62242269271E+02  0.78781802912E+02 -0.48035319618E+03  0.49073400701E+03  0.00000000000E+00 0. -1.
         21    1    1    2  506  503 -0.81790149994E+01 -0.67965799971E+02  0.79112345296E+02  0.10461839910E+03  0.00000000000E+00 0.  1.
<scales pt_clust_3="51.61445" pt_clust_4="14000.00000" pt_clust_5="90.55233" pt_clust_6="44.32614"></scales>
<clustering>
<clus scale="   51.614">  1  3  2 -1</clus>
<clus scale="   44.326">  1  6  2 -1</clus>
<clus scale="   90.552">  2  5  1 -1</clus>
<clus scale="   51.614">  1  3  2 -1</clus>
</clustering>
</event>
<event>
 6    0  0.7442036E+002  0.1079391E+03  0.7546771E-02  0.1264435E+00
         21   -1    0    0  503  501  0.00000000000E+00  0.00000000000E+00  0.94629629328E+02  0.94629629328E+02  0.00000000000E+00 0. -1.
         21   -1    0    0  504  502 -0.00000000000E+00 -0.00000000000E+00 -0.10329103894E+04  0.10329103894E+04  0.00000000000E+00 0. -1.
         21    1    1    2  503  502  0.76585821468E+01 -0.38615964590E+02 -0.58698960303E+01  0.39803294853E+02  0.00000000000E+00 0. -1.
         21    1    1    2  504  506  0.53108502530E+02 -0.96661679035E+01 -0.38524448798E+03  0.38900805051E+03  0.00000000000E+00 0. -1.
         21    1    1    2  505  501 -0.98878198530E+02  0.81316529481E+02  0.19783216889E+02  0.12954015509E+03  0.00000000000E+00 0. -1.
         21    1    1    2  506  505  0.38111113853E+02 -0.33034396987E+02 -0.56694959290E+03  0.56918851822E+03  0.00000000000E+00 0. -1.
<scales pt_clust_3="39.36809" pt_clust_4="35.15479" pt_clust_5="101.62731" pt_clust_6="35.15479"></scales>
<clustering>
<clus scale="   35.155">  4  6 -1 -1</clus>
<clus scale="   39.368">  1  3  2 -1</clus>
<clus scale="  101.627">  1  5  2 -1</clus>
<clus scale="   39.368">  1  3  2 -1</clus>
</clustering>
</event>
<event>
 6    0  0.7442036E+002  0.9490148E+02  0.7546771E-02  0.1291398E+00
         21   -1    0    0  506  501  0.00000000000E+00  0.00000000000E+00  0.20940017473E+03  0.20940017473E+03  0.00000000000E+00 0.  1.
         21   -1    0    0  504  502 -0.00000000000E+00 -0.00000000000E+00 -0.17069781280E+03  0.17069781280E+03  0.00000000000E+00 0.  1.
         21    1    1    2  503  505 -0.39024840084E+02  0.81618382985E+02  0.88129414760E+02  0.12629842569E+03  0.00000000000E+00 0.  1.
         21    1    1    2  504  503  0.48072182887E+02 -0.64241672611E+01 -0.87859379117E+02  0.10035673964E+03  0.00000000000E+00 0.  1.
         21    1    1    2  505  501 -0.29460435145E+02  0.65337484119E+01  0.59407302890E+02  0.66632084943E+02  0.00000000000E+00 0.  1.
         21    1    1    2  506  502  0.20413092342E+02 -0.81727964136E+02 -0.20974976597E+02  0.86810737263E+02  0.00000000000E+00 0.  1.
<scales pt_clust_3="94.90148" pt_clust_4="47.21619" pt_clust_5="30.17627" pt_clust_6="14000.00000"></scales>
<clustering>
<clus scale="   30.176">  1  5  2 -1</clus>
<clus scale="   47.216">  2  4  1 -1</clus>
<clus scale="   94.901">  1  3  2 -1</clus>
<clus scale="   30.176">  1  3  2 -1</clus>
</clustering>
</event>
<event>
 6    0  0.7442036E+002  0.1160991E+03  0.7546771E-02  0.1249675E+00
         21   -1    0    0  506  501  0.00000000000E+00  0.00000000000E+00  0.13166876555E+04  0.13166876555E+04  0.00000000000E+00 0. -1.
         21   -1    0    0  503  502 -0.00000000000E+00 -0.00000000000E+00 -0.11857733699E+03  0.11857733699E+03  0.00000000000E+00 0. -1.
         21    1    1    2  503  504 -0.49573120849E+02 -0.55579504170E+02 -0.34192783648E+02  0.81949509139E+02  0.00000000000E+00 0. -1.
         21    1    1    2  504  505  0.51278355425E+02 -0.64295419196E+02 -0.21989050646E+02  0.85128661524E+02  0.00000000000E+00 0. -1.
         21    1    1    2  505  501  0.21938430747E+02 -0.24040938958E+02  0.11235787426E+03  0.11697672161E+03  0.00000000000E+00 0. -1.
         21    1    1    2  506  502 -0.23643665323E+02  0.14391586232E+03  0.11419342786E+04  0.11512101002E+04  0.00000000000E+00 0. -1.
<scales pt_clust_3="74.54443" pt_clust_4="14000.00000" pt_clust_5="32.54630" pt_clust_6="116.09910"></scales>
<clustering>
<clus scale="   32.546">  1  5  2 -1</clus>
<clus scale="   74.544">  2  3  1 -1</clus>
<clus scale="  116.099">  1  6  2 -1</clus>
<clus scale="   32.546">  1  3  2 -1</clus>
</clustering>
</event>
<event>
 6    0  0.7442036E+002  0.1430947E+03  0.7546771E-02  0.1209224E+00
         21   -1    0    0  505  501  0.00000000000E+00  0.00000000000E+00  0.69591548047E+03  0.69591548047E+03  0.00000000000E+00 0.  1.
         21   -1    0    0  503  502 -0.00000000000E+00 -0.00000000000E+00 -0.15247791079E+03  0.15247791079E+03  0.00000000000E+00 0.  1.
         21    1    1    2  503  501 -0.46160698335E+02  0.37010499660E+02 -0.33697879043E+02  0.68089163659E+02  0.00000000000E+00 0.  1.
         21    1    1    2  504  502  0.31594290211E+02  0.96476107459E+02 -0.65793334007E+02  0.12097355614E+03  0.00000000000E+00 0.  1.
         21    1    1    2  505  506  0.24131818206E+02 -0.23236245178E+02  0.10806414970E+03  0.11313765152E+03  0.00000000000E+00 0.  1.
         21    1    1    2  506  504 -0.95654100815E+01 -0.11025036194E+03  0.53486463302E+03  0.54619301995E+03  0.00000000000E+00 0.  1.
<scales pt_clust_3="59.16576" pt_clust_4="130.94817" pt_clust_5="31.74349" pt_clust_6="31.74349"></scales>
<clustering>
<clus scale="   31.743">  5  6 -1 -1</clus>
<clus scale="   59.166">  2  3  1 -1</clus>
<clus scale="  130.948">  2  4  1 -1</clus>
<clus scale="  143.095">  1  3  2 -1</clus>
</clustering>
</event>
<event>
 6    0  0.7442036E+002  0.1784422E+03  0.7546771E-02  0.1169319E+00
         21   -1    0    0  503  501  0.00000000000E+00  0.00000000000E+00  0.12062177953E+04  0.12062177953E+04  0.00000000000E+00 0. -1.
         21   -1    0    0  506  502 -0.00000000000E+00 -0.00000000000E+00 -0.44434829312E+03  0.44434829312E+03  0.00000000000E+00 0.  1.
         21    1    1    2  503  504 -0.14348825674E+03 -0.16769570841E+03  0.88325739279E+03  0.91041438497E+03  0.00000000000E+00 0. -1.
         21    1    1    2  504  502 -0.62817294732E+01  0.14140642860E+03 -0.37745485194E+03  0.40312207013E+03  0.00000000000E+00 0.  1.
         21    1    1    2  505  501  0.12739335239E+03  0.51291275893E+02  0.26822807917E+03  0.30134061072E+03  0.00000000000E+00 0. -1.
         21    1    1    2  506  505  0.22376633827E+02 -0.25001996083E+02 -0.12161117808E+02  0.35689022625E+02  0.00000000000E+00 0. -1.
<scales pt_clust_3="14000.00000" pt_clust_4="119.08150" pt_clust_5="178.44216" pt_clust_6="33.55315"></scales>
<clustering>
<clus scale="   33.553">  2  6  1 -1</clus>
<clus scale="  119.081">  2  4  1 -1</clus>
<clus scale="  178.442">  2  5  1 -1</clus>
<clus scale="  178.442">  1  3  2 -1</clus>
</clustering>
</event>
<event>
 6    0  0.7442036E+002  0.1651098E+03  0.7546771E-02  0.1183046E+00
         21   -1    0    0  505  501  0.00000000000E+00  0.00000000000E+00  0.59435223573E+02  0.59435223573E+02  0.00000000000E+00 0.  1.
         21   -1    0    0  506  502 -0.00000000000E+00 -0.00000000000E+00 -0.53065807832E+03  0.53065807832E+03  0.00000000000E+00 0.  1.
         21    1    1    2  503  502 -0.25966556817E+02 -0.15445951029E+02 -0.46730439868E+02  0.55646864120E+02  0.00000000000E+00 0.  1.
         21    1    1    2  504  501 -0.61847738077E+01  0.11412023379E+03 -0.74760707553E+02  0.13656808771E+03  0.00000000000E+00 0.  1.
         21    1    1    2  505  503  0.30002019286E+02 -0.14240875106E+03 -0.25753280911E+03  0.29580994119E+03  0.00000000000E+00 0.  1.
         21    1    1    2  506  504  0.21493113391E+01  0.43734468299E+02 -0.92198898222E+02  0.10206840887E+03  0.00000000000E+00 0. -1.
<scales pt_clust_3="30.21323" pt_clust_4="38.89918" pt_clust_5="152.06507" pt_clust_6="38.89918"></scales>
<clustering>
<clus scale="   30.213">  2  3  1 -1</clus>
<clus scale="   38.899">  4  6 -1 -1</clus>
<clus scale="  152.065">  2  5  1 -1</clus>
<clus scale="  165.110">  1  3  2 -1</clus>
</clustering>
</event>
<event>
 6    0  0.7442036E+002  0.1773132E+03  0.7546771E-02  0.1170429E+00
         21   -1    0    0  506  501  0.00000000000E+00  0.00000000000E+00  0.53274747541E+03  0.53274747541E+03  0.00000000000E+00 0. -1.
         21   -1    0    0  504  502 -0.00000000000E+00 -0.00000000000E+00 -0.14281055694E+03  0.14281055694E+03  0.00000000000E+00 0.  1.
         21    1    1    2  503  501 -0.19765948925E+02  0.16514398047E+03  0.39551180697E+03  0.42906038791E+03  0.00000000000E+00 0. -1.
         21    1    1    2  504  505  0.12768136631E+02 -0.93698478582E+02 -0.50533078853E+02  0.10721950503E+03  0.00000000000E+00 0.  1.
         21    1    1    2  505  503  0.42962709332E+02 -0.66052289958E+02 -0.32843381749E+01  0.78863719663E+02  0.00000000000E+00 0.  1.
         21    1    1    2  506  502 -0.35964897039E+02 -0.53932119272E+01  0.48242528536E+02  0.60414419748E+02  0.00000000000E+00 0. -1.
<scales pt_clust_3="168.33172" pt_clust_4="50.47393" pt_clust_5="50.47393" pt_clust_6="36.36703"></scales>
<clustering>
<clus scale="   36.367">  1  6  2 -1</clus>
<clus scale="   50.474">  4  5 -1 -1</clus>
<clus scale="  168.332">  1  3  2 -1</clus>
<clus scale="   36.367">  1  3  2 -1</clus>
</clustering>
</event>
<event>
 6    0  0.7442036E+002  0.1224679E+03  0.7546771E-02  0.1239080E+00
         21   -1    0    0  506  501  0.00000000000E+00  0.00000000000E+00  0.75494515390E+02  0.75494515390E+02  0.00000000000E+00 0.  1.
         21   -1    0    0  501  502 -0.00000000000E+00 -0.00000000000E+00 -0.13800710439E+04  0.13800710439E+04  0.00000000000E+00 0.  1.
         21    1    1    2  503  502 -0.20542089910E+02 -0.40468524582E+02 -0.72695313356E+03  0.72836840770E+03  0.00000000000E+00 0.  1.
         21    1    1    2  504  505 -0.12504253990E+02  0.95879096999E+02  0.21379150391E+02  0.99026388809E+02  0.00000000000E+00 0.  1.
         21    1    1    2  505  503 -0.22990951770E+02 -0.67133761738E+02 -0.54456968949E+03  0.54917362695E+03  0.00000000000E+00 0.  1.
         21    1    1    2  506  504  0.56037295670E+02  0.11723189321E+02 -0.54432855860E+02  0.78997135840E+02  0.00000000000E+00 0.  1.
<scales pt_clust_3="34.58259" pt_clust_4="114.57922" pt_clust_5="34.58259" pt_clust_6="57.25043"></scales>
<clustering>
<clus scale="   34.583">  3  5 -1 -1</clus>
<clus scale="   57.250">  1  6  2 -1</clus>
<clus scale="  114.579">  1  4  2 -1</clus>
<clus scale="   57.250">  1  3  2 -1</clus>
</clustering>
</event>
<event>
 6    0  0.7442036E+002  0.2498629E+03  0.7546771E-02  0.1113392E+00
         21   -1    0    0  503  501  0.00000000000E+00  0.00000000000E+00  0.86661819479E+03  0.86661819479E+03  0.00000000000E+00 0.  1.
         21   -1    0    0  505  502 -0.00000000000E+00 -0.00000000000E+00 -0.16771442043E+03  0.16771442043E+03  0.00000000000E+00 0.  1.
         21    1    1    2  503  502 -0.21040657266E+03  0.10952518370E+03  0.15058709196E+03  0.28096826146E+03  0.00000000000E+00 0.  1.
         21    1    1    2  504  506  0.10192441809E+03 -0.55301775971E+02  0.27379831105E+02  0.11914918623E+03  0.00000000000E+00 0.  1.
         21    1    1    2  505  504  0.13989599128E+03 -0.25527405365E+02  0.35040396705E+02  0.14645943535E+03  0.00000000000E+00 0.  1.
         21    1    1    2  506  501 -0.31413836708E+02 -0.28696002363E+02  0.48589645459E+03  0.48775573218E+03  0.00000000000E+00 0.  1.
<scales pt_clust_3="246.55684" pt_clust_4="36.58269" pt_clust_5="36.58269" pt_clust_6="42.54750"></scales>
<clustering>
<clus scale="   36.583">  4  5 -1 -1</clus>
<clus scale="   42.547">  1  6  2 -1</clus>
<clus scale="  246.557">  1  3  2 -1</clus>
<clus scale="   42.547">  1  3  2 -1</clus>
</clustering>
</event>
<event>
 6    0  0.7442036E+002  0.7743157E+02  0.7546771E-02  0.1336502E+00
         21   -1    0    0  503  501  0.00000000000E+00  0.00000000000E+00  0.13919031551E+03  0.13919031551E+03  0.00000000000E+00 0.  1.
         21   -1    0    0  504  502 -0.00000000000E+00 -0.00000000000E+00 -0.93086617113E+03  0.93086617113E+03  0.00000000000E+00 0. -1.
         21    1    1    2  503  502 -0.12533065069E+03 -0.15540315318E+02  0.53465904458E+02  0.13714181107E+03  0.00000000000E+00 0.  1.
         21    1    1    2  504  506  0.49826890473E+02 -0.25654696778E+02 -0.72241311335E+03  0.72458373486E+03  0.00000000000E+00 0. -1.
         21    1    1    2  505  501  0.52678350394E+02 -0.21963797894E+02  0.11517314629E+02  0.58224269462E+02  0.00000000000E+00 0. -1.
         21    1    1    2  506  505  0.22825409824E+02  0.63158809990E+02 -0.13424596135E+03  0.15010667125E+03  0.00000000000E+00 0.  1.
<scales pt_clust_3="77.43157" pt_clust_4="56.04358" pt_clust_5="63.36695" pt_clust_6="14000.00000"></scales>
<clustering>
<clus scale="   56.044">  2  4  1 -1</clus>
<clus scale="   63.367">  1  5  2 -1</clus>
<clus scale="   77.432">  1  3  2 -1</clus>
<clus scale="   63.367">  1  3  2 -1</clus>
</clustering>
</event>
<event>
 6    0  0.7442036E+002  0.1069975E+03  0.7546771E-02  0.1266233E+00
         21   -1    0    0  506  501  0.00000000000E+00  0.00000000000E+00  0.10033168216E+04  0.10033168216E+04  0.00000000000E+00 0.  1.
         21   -1    0    0  505  502 -0.00000000000E+00 -0.00000000000E+00 -0.60248213397E+02  0.60248213397E+02  0.00000000000E+00 0. -1.
         21    1    1    2  503  501  0.10808440313E+03  0.44076396977E+02  0.87160296345E+03  0.87938426917E+03  0.00000000000E+00 0.  1.
         21    1    1    2  504  503 -0.23483682399E+02 -0.57399662651E+02  0.13637086726E+02  0.63499407445E+02  0.00000000000E+00 0. -1.
         21    1    1    2  505  504 -0.30394246545E+02 -0.17119342513E+01 -0.10476039847E+02  0.32194539176E+02  0.00000000000E+00 0. -1.
         21    1    1    2  506  502 -0.54206474187E+02  0.15035199926E+02  0.68304597836E+02  0.88486819166E+02  0.00000000000E+00 0. -1.
<scales pt_clust_3="106.99751" pt_clust_4="14000.00000" pt_clust_5="30.44242" pt_clust_6="63.77996"></scales>
<clustering>
<clus scale="   30.442">  2  5  1 -1</clus>
<clus scale="   63.780">  2  6  1 -1</clus>
<clus scale="  106.998">  1  3  2 -1</clus>
<clus scale="  106.998">  1  3  2 -1</clus>
</clustering>
</event>
<event>
 6    0  0.7442036E+002  0.1942934E+03  0.7546771E-02  0.1154645E+00
         21   -1    0    0  506  501  0.00000000000E+00  0.00000000000E+00  0.17721801238E+04  0.17721801238E+04  0.00000000000E+00 0. -1.
         21   -1    0    0  503  502 -0.00000000000E+00 -0.00000000000E+00 -0.15078980293E+03  0.15078980293E+03  0.00000000000E+00 0.  1.
         21    1    1    2  503  501  0.39602104013E+02  0.99091040851E+01 -0.11090533614E+03  0.11817999226E+03  0.00000000000E+00 0.  1.
         21    1    1    2  504  502  0.45752670967E+02  0.53456724084E+01  0.25324781381E+02  0.52566411958E+02  0.00000000000E+00 0. -1.
         21    1    1    2  505  504  0.73128090775E+02  0.83991709576E+02  0.16567602987E+03  0.19962683139E+03  0.00000000000E+00 0.  1.
         21    1    1    2  506  505 -0.15848286575E+03 -0.99246486070E+02  0.15412948457E+04  0.15525966911E+04  0.00000000000E+00 0. -1.
<scales pt_clust_3="40.82300" pt_clust_4="49.06147" pt_clust_5="49.06147" pt_clust_6="180.95197"></scales>
<clustering>
<clus scale="   40.823">  2  3  1 -1</clus>
<clus scale="   49.061">  4  5 -1 -1</clus>
<clus scale="  180.952">  1  6  2 -1</clus>
<clus scale="  180.952">  1  3  2 -1</clus>
</clustering>
</event>
<event>
 6    0  0.7442036E+002  0.6078692E+02  0.7546771E-02  0.1394559E+00
         21   -1    0    0  503  501  0.00000000000E+00  0.00000000000E+00  0.11242223506E+03  0.11242223506E+03  0.00000000000E+00 0.  1.
         21   -1    0    0  505  502 -0.00000000000E+00 -0.00000000000E+00 -0.93641805856E+03  0.93641805856E+03  0.00000000000E+00 0.  1.
         21    1    1    2  503  506  0.25716663609E+02 -0.39168159779E+02  0.60890544575E+02  0.76831959147E+02  0.00000000000E+00 0.  1.
         21    1    1    2  504  501 -0.56450555689E+02  0.80773474351E+02 -0.31032822675E+02  0.10331532064E+03  0.00000000000E+00 0.  1.
         21    1    1    2  505  504  0.78220048673E+02 -0.39236802154E+02 -0.74215623189E+03  0.74729764832E+03  0.00000000000E+00 0.  1.
         21    1    1    2  506  502 -0.47486156593E+02 -0.23685124179E+01 -0.11169731352E+03  0.12139536550E+03  0.00000000000E+00 0.  1.
<scales pt_clust_3="46.85607" pt_clust_4="14000.00000" pt_clust_5="60.78692" pt_clust_6="45.12792"></scales>
<clustering>
<clus scale="   46.856">  1  3  2 -1</clus>
<clus scale="   45.128">  2  6  1 -1</clus>
<clus scale="   60.787">  2  5  1 -1</clus>
<clus scale="   46.856">  1  3  2 -1</clus>
</clustering>
</event>
<event>
 6    0  0.7442036E+002  0.7909556E+02  0.7546771E-02  0.1331638E+00
         21   -1    0    0  503  501  0.00000000000E+00  0.00000000000E+00  0.57737930889E+02  0.57737930889E+02  0.00000000000E+00 0. -1.
         21   -1    0    0  504  502 -0.00000000000E+00 -0.00000000000E+00 -0.81157837687E+03  0.81157837687E+03  0.00000000000E+00 0. -1.
         21    1    1    2  503  506  0.84320976590E+02  0.16403112143E+01 -0.67495208316E+01  0.84606582164E+02  0.00000000000E+00 0. -1.
         21    1    1    2  504  505 -0.17206223838E+02 -0.39294783674E+02 -0.52149526664E+03  0.52325657884E+03  0.00000000000E+00 0. -1.
         21    1    1    2  505  501 -0.55123348920E+02  0.73435470450E+02 -0.13454183842E+03  0.16288909786E+03  0.00000000000E+00 0. -1.
         21    1    1    2  506  502 -0.11991403833E+02 -0.35780997990E+02 -0.91053820085E+02  0.98564048898E+02  0.00000000000E+00 0. -1.
<scales pt_clust_3="14000.00000" pt_clust_4="70.33225" pt_clust_5="79.09556" pt_clust_6="37.73690"></scales>
<clustering>
<clus scale="   37.737">  2  6  1 -1</clus>
<clus scale="   70.332">  2  4  1 -1</clus>
<clus scale="   79.096">  2  5  1 -1</clus>
<clus scale="   79.096">  1  3  2 -1</clus>
</clustering>
</event>
<event>
 6    0  0.7442036E+002  0.1120841E+03  0.7546771E-02  0.1256758E+00
         21   -1    0    0  505  501  0.00000000000E+00  0.00000000000E+00  0.46994446063E+03  0.46994446063E+03  0.00000000000E+00 0.  1.
         21   -1    0    0  501  502 -0.00000000000E+00 -0.00000000000E+00 -0.14234323889E+03  0.14234323889E+03  0.00000000000E+00 0. -1.
         21    1    1    2  503  502  0.82262616677E+02 -0.15843858770E+02 -0.38477815061E+02  0.92188438619E+02  0.00000000000E+00 0. -1.
         21    1    1    2  504  503  0.16350631653E+02 -0.78949778313E+02 -0.13952413062E+02  0.81823471457E+02  0.00000000000E+00 0. -1.
         21    1    1    2  505  506 -0.42719588297E+02 -0.26415095421E+02  0.23850747308E+03  0.24373866169E+03  0.00000000000E+00 0.  1.
         21    1    1    2  506  504 -0.55893660032E+02  0.12120873250E+03  0.14152397679E+03  0.19453712775E+03  0.00000000000E+00 0. -1.
<scales pt_clust_3="79.53784" pt_clust_4="14000.00000" pt_clust_5="50.22669" pt_clust_6="112.08411"></scales>
<clustering>
<clus scale="   50.227">  1  5  2 -1</clus>
<clus scale="   79.538">  2  3  1 -1</clus>
<clus scale="  112.084">  1  6  2 -1</clus>
<clus scale="   50.227">  1  3  2 -1</clus>
</clustering>
</event>
<event>
 6    0  0.7442036E+002  0.2892013E+03  0.7546771E-02  0.1090767E+00
         21   -1    0    0  504  501  0.00000000000E+00  0.00000000000E+00  0.82955540978E+03  0.82955540978E+03  0.00000000000E+00 0. -1.
         21   -1    0    0  503  502 -0.00000000000E+00 -0.00000000000E+00 -0.65500777282E+03  0.65500777282E+03  0.00000000000E+00 0. -1.
         21    1    1    2  503  506  0.12818615017E+03 -0.11300680858E+03 -0.40213855854E+03  0.43694124106E+03  0.00000000000E+00 0. -1.
         21    1    1    2  504  502  0.32913996919E+02 -0.13248939075E+00  0.38529878853E+02  0.50674454226E+02  0.00000000000E+00 0.  1.
         21    1    1    2  505  501 -0.23158134386E+03  0.20193971915E+03  0.71990717586E+03  0.78273616938E+03  0.00000000000E+00 0. -1.
         21    1    1    2  506  505  0.70481196771E+02 -0.88800421180E+02 -0.18175085923E+03  0.21421131793E+03  0.00000000000E+00 0. -1.
<scales pt_clust_3="43.70749" pt_clust_4="32.91426" pt_clust_5="284.18212" pt_clust_6="43.70749"></scales>
<clustering>
<clus scale="   32.914">  1  4  2 -1</clus>
<clus scale="   43.707">  3  6 -1 -1</clus>
<clus scale="  284.182">  1  5  2 -1</clus>
<clus scale="   32.914">  1  3  2 -1</clus>
</clustering>
</event>
<event>
 6    0  0.7442036E+002  0.1742002E+03  0.7546771E-02  0.1173537E+00
         21   -1    0    0  504  501  0.00000000000E+00  0.00000000000E+00  0.15538177159E+03  0.15538177159E+03  0.00000000000E+00 0. -1.
         21   -1    0    0  505  502 -0.00000000000E+00 -0.00000000000E+00 -0.20211470558E+04  0.20211470558E+04  0.00000000000E+00 0. -1.
         21    1    1    2  503  501 -0.27444057427E+02  0.30614924478E+02 -0.93727616650E+02  0.10234899126E+03  0.00000000000E+00 0. -1.
         21    1    1    2  504  506  0.29191492093E+02  0.14368124916E+02  0.13124357302E+03  0.13521635139E+03  0.00000000000E+00 0. -1.
         21    1    1    2  505  503 -0.15037317581E+03  0.13169823417E+02 -0.40517132204E+03  0.43237638286E+03  0.00000000000E+00 0. -1.
         21    1    1    2  506  502  0.14862574115E+03 -0.58152872811E+02 -0.14981099186E+04  0.15065871019E+04  0.00000000000E+00 0. -1.
<scales pt_clust_3="30.85386" pt_clust_4="32.53592" pt_clust_5="30.85386" pt_clust_6="163.86182"></scales>
<clustering>
<clus scale="   30.854">  3  5 -1 -1</clus>
<clus scale="   32.536">  1  4  2 -1</clus>
<clus scale="  163.862">  2  6  1 -1</clus>
<clus scale="   32.536">  1  3  2 -1</clus>
</clustering>
</event>
<event>
 6    0  0.7442036E+002  0.1744938E+03  0.7546771E-02  0.1173241E+00
         21   -1    0    0  506  501  0.00000000000E+00  0.00000000000E+00  0.13086550440E+04  0.13086550440E+04  0.00000000000E+00 0.  1.
         21   -1    0    0  503  502 -0.00000000000E+00 -0.00000000000E+00 -0.87762883654E+03  0.87762883654E+03  0.00000000000E+00 0. -1.
         21    1    1    2  503  504 -0.55457110618E+02  0.10559209620E+03 -0.78436517324E+03  0.79338131241E+03  0.00000000000E+00 0. -1.
         21    1    1    2  504  505  0.13636819413E+03 -0.75893007411E+02  0.51045657135E+03  0.53378080162E+03  0.00000000000E+00 0.  1.
         21    1    1    2  505  501 -0.12488175379E+02 -0.50319224857E+02  0.76439869050E+03  0.76615490402E+03  0.00000000000E+00 0.  1.
         21    1    1    2  506  502 -0.68422908137E+02  0.20620136070E+02 -0.59463881111E+02  0.92966862517E+02  0.00000000000E+00 0. -1.
<scales pt_clust_3="174.49378" pt_clust_4="14000.00000" pt_clust_5="51.84572" pt_clust_6="71.40132"></scales>
<clustering>
<clus scale="   51.846">  1  5  2 -1</clus>
<clus scale="   71.401">  2  6  1 -1</clus>
<clus scale="  174.494">  2  3  1 -1</clus>
<clus scale="   51.846">  1  3  2 -1</clus>
</clustering>
</event>
<event>
 6    0  0.7442036E+002  0.1284697E+03  0.7546771E-02  0.1229744E+00
         21   -1    0    0  503  501  0.00000000000E+00  0.00000000000E+00  0.20549757246E+04  0.20549757246E+04  0.00000000000E+00 0.  1.
         21   -1    0    0  504  502 -0.00000000000E+00 -0.00000000000E+00 -0.69517458881E+02  0.69517458881E+02  0.00000000000E+00 0. -1.
         21    1    1    2  503  506  0.12950790062E+01 -0.56628230919E+02  0.85717086479E+02  0.10274167938E+03  0.00000000000E+00 0.  1.
         21    1    1    2  504  505  0.56572765416E+02  0.11889933356E+03  0.48497782891E+02  0.14031950774E+03  0.00000000000E+00 0. -1.
         21    1    1    2  505  501 -0.36393115533E+02 -0.11803625258E+02  0.18156396805E+04  0.18160427401E+04  0.00000000000E+00 0.  1.
         21    1    1    2  506  502 -0.21474728889E+02 -0.50467477385E+02  0.35603715871E+02  0.65389256291E+02  0.00000000000E+00 0.  1.
<scales pt_clust_3="40.17402" pt_clust_4="121.78625" pt_clust_5="38.25944" pt_clust_6="40.17402"></scales>
<clustering>
<clus scale="   38.259">  1  5  2 -1</clus>
<clus scale="   40.174">  3  6 -1 -1</clus>
<clus scale="  121.786">  2  4  1 -1</clus>
<clus scale="   38.259">  1  3  2 -1</clus>
</clustering>
</event>
<event>
 6    0  0.7442036E+002  0.1295287E+03  0.7546771E-02  0.1228157E+00
         21   -1    0    0  504  501  0.00000000000E+00  0.00000000000E+00  0.10534662382E+04  0.10534662382E+04  0.00000000000E+00 0. -1.
         21   -1    0    0  505  502 -0.00000000000E+00 -0.00000000000E+00 -0.19445116953E+03  0.19445116953E+03  0.00000000000E+00 0. -1.
         21    1    1    2  503  502  0.37310587720E+02 -0.77997516084E+02  0.78499064360E+02  0.11678097267E+03  0.00000000000E+00 0.  1.
         21    1    1    2  504  506 -0.45606936928E+02  0.26384445997E+02  0.21585763030E+03  0.22219506801E+03  0.00000000000E+00 0. -1.
         21    1    1    2  505  501  0.76871337079E+02  0.14991196862E+02 -0.16104840706E+03  0.17908246107E+03  0.00000000000E+00 0. -1.
         21    1    1    2  506  503 -0.68574987871E+02  0.36621873225E+02  0.72570678111E+03  0.72985890603E+03  0.00000000000E+00 0. -1.
<scales pt_clust_3="117.99054" pt_clust_4="43.99542" pt_clust_5="78.31946" pt_clust_6="43.99542"></scales>
<clustering>
<clus scale="   43.995">  4  6 -1 -1</clus>
<clus scale="   78.319">  2  5  1 -1</clus>
<clus scale="  117.991">  2  3  1 -1</clus>
<clus scale="  129.529">  1  3  2 -1</clus>
</clustering>
</event>
<event>
 6    0  0.7442036E+002  0.1765071E+03  0.7546771E-02  0.1171227E+00
         21   -1    0    0  502  501  0.00000000000E+00  0.00000000000E+00  0.29356195641E+04  0.29356195641E+04  0.00000000000E+00 0. -1.
         21   -1    0    0  505  502 -0.00000000000E+00 -0.00000000000E+00 -0.94285945436E+02  0.94285945436E+02  0.00000000000E+00 0. -1.
         21    1    1    2  503  504 -0.38202369663E+01 -0.47479331883E+02  0.16329047519E+02  0.50353936881E+02  0.00000000000E+00 0. -1.
         21    1    1    2  504  506 -0.18898049587E+02  0.29744976841E+02  0.29629468484E+03  0.29838304273E+03  0.00000000000E+00 0. -1.
         21    1    1    2  505  503  0.40126587756E+02 -0.11236496201E+03 -0.26801882201E+02  0.12228805592E+03  0.00000000000E+00 0. -1.
         21    1    1    2  506  501 -0.17408301203E+02  0.13009931705E+03  0.25555117685E+04  0.25588804740E+04  0.00000000000E+00 0. -1.
<scales pt_clust_3="33.59589" pt_clust_4="33.92377" pt_clust_5="172.32405" pt_clust_6="33.92377"></scales>
<clustering>
<clus scale="   33.596">  3  5 -1 -1</clus>
<clus scale="   33.924">  4  6 -1 -1</clus>
<clus scale="  172.324">  2  3  1 -1</clus>
<clus scale="  176.507">  1  3  2 -1</clus>
</clustering>
</event>
<event>
 6    0  0.7442036E+002  0.1269815E+03  0.7546771E-02  0.1232005E+00
         21   -1    0    0  504  501  0.00000000000E+00  0.00000000000E+00  0.27113330920E+03  0.27113330920E+03  0.00000000000E+00 0.  1.
         21   -1    0    0  505  502 -0.00000000000E+00 -0.00000000000E+00 -0.40704201395E+03  0.40704201395E+03  0.00000000000E+00 0.  1.
         21    1    1    2  503  501  0.56790756981E+02  0.40654373673E+02  0.69184746583E+02  0.98308175332E+02  0.00000000000E+00 0.  1.
         21    1    1    2  504  502 -0.37262679340E+02 -0.11961245538E+03 -0.31909039103E+03  0.34280362367E+03  0.00000000000E+00 0.  1.
         21    1    1    2  505  506 -0.32294517054E+02  0.51937870114E+01 -0.48299934560E+02  0.58333480384E+02  0.00000000000E+00 0.  1.
         21    1    1    2  506  503  0.12766439413E+02  0.73764294700E+02  0.16229687426E+03  0.17873004376E+03  0.00000000000E+00 0.  1.
<scales pt_clust_3="68.89241" pt_clust_4="126.98147" pt_clust_5="32.70950" pt_clust_6="14000.00000"></scales>
<clustering>
<clus scale="   32.709">  2  5  1 -1</clus>
<clus scale="   68.892">  1  3  2 -1</clus>
<clus scale="  126.981">  2  4  1 -1</clus>
<clus scale="   68.892">  1  3  2 -1</clus>
</clustering>
</event>
<event>
 6    0  0.7442036E+002  0.1000117E+03  0.7546771E-02  0.1280271E+00
         21   -1    0    0  504  501  0.00000000000E+00  0.00000000000E+00  0.95137434702E+02  0.95137434702E+02  0.00000000000E+00 0.  1.
         21   -1    0    0  503  502 -0.00000000000E+00 -0.00000000000E+00 -0.35303668882E+03  0.35303668882E+03  0.00000000000E+00 0.  1.
         21    1    1    2  503  505 -0.25866834541E+02  0.38523124679E+02 -0.11278184276E+03  0.12195436983E+03  0.00000000000E+00 0.  1.
         21    1    1    2  504  506 -0.38052707506E+02 -0.88378198835E+02 -0.58220259877E+02  0.11246471997E+03  0.00000000000E+00 0.  1.
         21    1    1    2  505  501 -0.50904397464E+02  0.48248165380E+01 -0.73717110335E+02  0.89714819802E+02  0.00000000000E+00 0. -1.
         21    1    1    2  506  502  0.11482393951E+03  0.45030257618E+02 -0.13180041151E+02  0.12404021393E+03  0.00000000000E+00 0.  1.
<scales pt_clust_3="45.17778" pt_clust_4="96.22221" pt_clust_5="45.17778" pt_clust_6="88.05240"></scales>
<clustering>
<clus scale="   45.178">  3  5 -1 -1</clus>
<clus scale="   96.222">  1  4  2 -1</clus>
<clus scale="   88.052">  1  6  2 -1</clus>
<clus scale="   96.222">  1  3  2 -1</clus>
</clustering>
</event>
<event>
 6    0  0.7442036E+002  0.2434006E+03  0.7546771E-02  0.1117548E+00
         21   -1    0    0  504  501  0.00000000000E+00  0.00000000000E+00  0.80374049521E+03  0.80374049521E+03  0.00000000000E+00 0.  1.
         21   -1    0    0  505  502 -0.00000000000E+00 -0.00000000000E+00 -0.12333590435E+04  0.12333590435E+04  0.00000000000E+00 0. -1.
         21    1    1    2  503  506 -0.16869433011E+03 -0.25150766080E+02 -0.71386733985E+03  0.73395975159E+03  0.00000000000E+00 0. -1.
         21    1    1    2  504  503  0.72361081450E+02 -0.44248311570E+02  0.14678203631E+02  0.86078387805E+02  0.00000000000E+00 0.  1.
         21    1    1    2  505  501  0.16087946722E+03  0.46068760939E+02  0.73132857392E+03  0.75023064236E+03  0.00000000000E+00 0.  1.
         21    1    1    2  506  502 -0.64546218564E+02  0.23330316711E+02 -0.46175798598E+03  0.46683075694E+03  0.00000000000E+00 0. -1.
<scales pt_clust_3="46.60853" pt_clust_4="84.81768" pt_clust_5="232.04610" pt_clust_6="46.60853"></scales>
<clustering>
<clus scale="   46.609">  3  6 -1 -1</clus>
<clus scale="   84.818">  1  4  2 -1</clus>
<clus scale="  232.046">  1  5  2 -1</clus>
<clus scale="   84.818">  1  3  2 -1</clus>
</clustering>
</event>
<event>
 6    0  0.7442036E+002  0.1547527E+03  0.7546771E-02  0.1194752E+00
         21   -1    0    0  504  501  0.00000000000E+00  0.00000000000E+00  0.38429773054E+04  0.38429773054E+04  0.00000000000E+00 0. -1.
         21   -1    0    0  501  502 -0.00000000000E+00 -0.00000000000E+00 -0.48877724332E+02  0.48877724332E+02  0.00000000000E+00 0. -1.
         21    1    1    2  503  502  0.47456692747E+02  0.15057973477E+03  0.16745524404E+03  0.23014702468E+03  0.00000000000E+00 0. -1.
         21    1    1    2  504  505 -0.71885268519E+02 -0.98820116894E+01  0.33174100953E+04  0.33182035631E+04  0.00000000000E+00 0. -1.
         21    1    1    2  505  506  0.31604994982E+02 -0.54235847365E+02  0.13335962164E+03  0.14739467946E+03  0.00000000000E+00 0. -1.
         21    1    1    2  506  503 -0.71764192106E+01 -0.86461875718E+02  0.17587462010E+03  0.19610976248E+03  0.00000000000E+00 0. -1.
<scales pt_clust_3="148.22796" pt_clust_4="72.56133" pt_clust_5="37.81966" pt_clust_6="37.81966"></scales>
<clustering>
<clus scale="   37.820">  5  6 -1 -1</clus>
<clus scale="   72.561">  1  4  2 -1</clus>
<clus scale="  148.228">  2  3  1 -1</clus>
<clus scale="   72.561">  1  3  2 -1</clus>
</clustering>
</event>
<event>
 6    0  0.7442036E+002  0.1351073E+03  0.7546771E-02  0.1220068E+00
         21   -1    0    0  503  501  0.00000000000E+00  0.00000000000E+00  0.70893246461E+02  0.70893246461E+02  0.00000000000E+00 0. -1.
         21   -1    0    0  505  502 -0.00000000000E+00 -0.00000000000E+00 -0.11096073870E+04  0.11096073870E+04  0.00000000000E+00 0. -1.
         21    1    1    2  503  506  0.56562434750E+02  0.34225022952E+02  0.58367578604E+01  0.66368132136E+02  0.00000000000E+00 0. -1.
         21    1    1    2  504  501 -0.61961325180E+02 -0.49275969600E+02 -0.59714789519E+03  0.60237275481E+03  0.00000000000E+00 0. -1.
         21    1    1    2  505  504 -0.52170370362E+02  0.19990819182E+02 -0.45044726246E+03  0.45389879561E+03  0.00000000000E+00 0. -1.
         21    1    1    2  506  502  0.57569260792E+02 -0.49398725342E+01  0.30442592327E+01  0.57860950935E+02  0.00000000000E+00 0. -1.
<scales pt_clust_3="123.91123" pt_clust_4="55.53569" pt_clust_5="55.53569" pt_clust_6="35.84778"></scales>
<clustering>
<clus scale="   35.848">  3  6 -1 -1</clus>
<clus scale="   55.536">  4  5 -1 -1</clus>
<clus scale="  123.911">  1  3  2 -1</clus>
<clus scale="  123.911">  1  3  2 -1</clus>
</clustering>
</event>
<event>
 6    0  0.7442036E+002  0.1738656E+03  0.7546771E-02  0.1173876E+00
         21   -1    0    0  506  501  0.00000000000E+00  0.00000000000E+00  0.12414459176E+04  0.12414459176E+04  0.00000000000E+00 0.  1.
         21   -1    0    0  505  502 -0.00000000000E+00 -0.00000000000E+00 -0.17178907637E+03  0.17178907637E+03  0.00000000000E+00 0.  1.
         21    1    1    2  503  504 -0.12784251086E+03 -0.26192456915E+01 -0.89060839738E+02  0.15582811429E+03  0.00000000000E+00 0.  1.
         21    1    1    2  504  502 -0.32368115947E+02 -0.34174978585E+02 -0.27614197317E+02  0.54572593714E+02  0.00000000000E+00 0.  1.
         21    1    1    2  505  501  0.12748694019E+03  0.32866559178E+02  0.11294219221E+04  0.11370694828E+04  0.00000000000E+00 0.  1.
         21    1    1    2  506  503  0.32723686609E+02  0.39276650984E+01  0.56909956170E+02  0.65764803122E+02  0.00000000000E+00 0.  1.
<scales pt_clust_3="36.59614" pt_clust_4="36.59614" pt_clust_5="163.08009" pt_clust_6="32.95855"></scales>
<clustering>
<clus scale="   32.959">  1  6  2 -1</clus>
<clus scale="   36.596">  3  4 -1 -1</clus>
<clus scale="  163.080">  1  5  2 -1</clus>
<clus scale="   32.959">  1  3  2 -1</clus>
</clustering>
</event>
<event>
 6    0  0.7442036E+002  0.1401438E+03  0.7546771E-02  0.1213136E+00
         21   -1    0    0  506  501  0.00000000000E+00  0.00000000000E+00  0.27974527635E+03  0.27974527635E+03  0.00000000000E+00 0.  1.
         21   -1    0    0  504  502 -0.00000000000E+00 -0.00000000000E+00 -0.26999179179E+03  0.26999179179E+03  0.00000000000E+00 0. -1.
         21    1    1    2  503  501  0.82884174344E+01 -0.41160391410E+02  0.64788425997E+01  0.42483539000E+02  0.00000000000E+00 0. -1.
         21    1    1    2  504  503  0.28835454321E+02  0.68626062861E+02  0.21326636166E+01  0.74468571785E+02  0.00000000000E+00 0.  1.
         21    1    1    2  505  502  0.13064384035E+03 -0.40494116669E+02 -0.15255008858E+03  0.20488805732E+03  0.00000000000E+00 0. -1.
         21    1    1    2  506  505 -0.16776771211E+03  0.13028445218E+02  0.15369206692E+03  0.22789690003E+03  0.00000000000E+00 0.  1.
<scales pt_clust_3="41.98661" pt_clust_4="69.31653" pt_clust_5="140.14378" pt_clust_6="14000.00000"></scales>
<clustering>
<clus scale="   41.987">  1  3  2 -1</clus>
<clus scale="   69.317">  1  4  2 -1</clus>
<clus scale="  140.144">  2  5  1 -1</clus>
<clus scale="   41.987">  1  3  2 -1</clus>
</clustering>
</event>
<event>
 6    0  0.7442036E+002  0.9891287E+02  0.7546771E-02  0.1282599E+00
         21   -1    0    0  506  501  0.00000000000E+00  0.00000000000E+00  0.63416117978E+02  0.63416117978E+02  0.00000000000E+00 0. -1.
         21   -1    0    0  505  502 -0.00000000000E+00 -0.00000000000E+00 -0.68605356363E+03  0.68605356363E+03  0.00000000000E+00 0. -1.
         21    1    1    2  503  502 -0.62065788297E+01 -0.63401941558E+02 -0.40912159041E+03  0.41405169188E+03  0.00000000000E+00 0. -1.
         21    1    1    2  504  501  0.30839780645E+02 -0.26327199534E+02  0.89455976607E+01  0.41523935544E+02  0.00000000000E+00 0. -1.
         21    1    1    2  505  504  0.33592705449E+02 -0.34566192237E+02 -0.95250579181E+02  0.10675188214E+03  0.00000000000E+00 0. -1.
         21    1    1    2  506  503 -0.58225907264E+02  0.12429533333E+03 -0.12721087372E+03  0.18714217204E+03  0.00000000000E+00 0. -1.
<scales pt_clust_3="98.91287" pt_clust_4="40.54890" pt_clust_5="54.28432" pt_clust_6="14000.00000"></scales>
<clustering>
<clus scale="   40.549">  1  4  2 -1</clus>
<clus scale="   54.284">  2  5  1 -1</clus>
<clus scale="   98.913">  2  3  1 -1</clus>
<clus scale="   40.549">  1  3  2 -1</clus>
</clustering>
</event>
<event>
 6    0  0.7442036E+002  0.1068871E+03  0.7546771E-02  0.1266445E+00
         21   -1    0    0  505  501  0.00000000000E+00  0.00000000000E+00  0.35034368953E+02  0.35034368953E+02  0.00000000000E+00 0.  1.
         21   -1    0    0  504  502 -0.00000000000E+00 -0.00000000000E+00 -0.22884925348E+04  0.22884925348E+04  0.00000000000E+00 0. -1.
         21    1    1    2  503  506 -0.38856176893E+02 -0.74572597989E+01 -0.10269972352E+03  0.11005746871E+03  0.00000000000E+00 0. -1.
         21    1    1    2  504  503 -0.58296976284E+02  0.37376685191E+02 -0.21916668294E+03  0.22984688153E+03  0.00000000000E+00 0. -1.
         21    1    1    2  505  502  0.77387977413E+02  0.73128843849E+02 -0.18436336619E+04  0.18467056631E+04  0.00000000000E+00 0. -1.
         21    1    1    2  506  501  0.19765175764E+02 -0.10304826924E+03 -0.87958097488E+02  0.13691689041E+03  0.00000000000E+00 0.  1.
<scales pt_clust_3="30.26388" pt_clust_4="30.26388" pt_clust_5="99.10492" pt_clust_6="104.92668"></scales>
<clustering>
<clus scale="   30.264">  3  4 -1 -1</clus>
<clus scale="  104.927">  1  6  2 -1</clus>
<clus scale="   99.105">  2  5  1 -1</clus>
<clus scale="  104.927">  1  3  2 -1</clus>
</clustering>
</event>
<event>
 6    0  0.7442036E+002  0.1302781E+03  0.7546771E-02  0.1227044E+00
         21   -1    0    0  503  501  0.00000000000E+00  0.00000000000E+00  0.56324883290E+03  0.56324883290E+03  0.00000000000E+00 0.  1.
         21   -1    0    0  504  502 -0.00000000000E+00 -0.00000000000E+00 -0.51008625108E+02  0.51008625108E+02  0.00000000000E+00 0.  1.
         21    1    1    2  503  505  0.96063536134E+02  0.11363780447E+03  0.18666188243E+03  0.23871407988E+03  0.00000000000E+00 0.  1.
         21    1    1    2  504  506 -0.28702707673E+02 -0.40037876790E+02  0.70807698358E+02  0.86258954042E+02  0.00000000000E+00 0.  1.
         21    1    1    2  505  502 -0.62097564757E+02 -0.67723717544E+01  0.76108852523E+02  0.98460804386E+02  0.00000000000E+00 0.  1.
         21    1    1    2  506  501 -0.52632637037E+01 -0.66827555926E+02  0.17866177448E+03  0.19082361970E+03  0.00000000000E+00 0.  1.
<scales pt_clust_3="122.50129" pt_clust_4="38.00891" pt_clust_5="62.46577" pt_clust_6="38.00891"></scales>
<clustering>
<clus scale="   38.009">  4  6 -1 -1</clus>
<clus scale="   62.466">  2  5  1 -1</clus>
<clus scale="  122.501">  2  3  1 -1</clus>
<clus scale="  130.278">  1  3  2 -1</clus>
</clustering>
</event>
<event>
 6    0  0.7442036E+002  0.9223440E+02  0.7546771E-02  0.1297529E+00
         21   -1    0    0  505  501  0.00000000000E+00  0.00000000000E+00  0.10254695474E+04  0.10254695474E+04  0.00000000000E+00 0.  1.
         21   -1    0    0  506  502 -0.00000000000E+00 -0.00000000000E+00 -0.29550034731E+03  0.29550034731E+03  0.00000000000E+00 0.  1.
         21    1    1    2  503  502  0.91873363694E+02  0.13931185848E+02 -0.26808340618E+03  0.28373139686E+03  0.00000000000E+00 0.  1.
         21    1    1    2  504  503 -0.46496127119E+02  0.49465690589E+02  0.11378726907E+03  0.13250013957E+03  0.00000000000E+00 0.  1.
         21    1    1    2  505  504 -0.36126173029E+02 -0.12744372051E+02  0.29312292966E+02  0.48236188859E+02  0.00000000000E+00 0.  1.
         21    1    1    2  506  501 -0.92510635464E+01 -0.50652504386E+02  0.85495304428E+03  0.85650216946E+03  0.00000000000E+00 0.  1.
<scales pt_clust_3="14000.00000" pt_clust_4="69.95371" pt_clust_5="38.30822" pt_clust_6="92.23440"></scales>
<clustering>
<clus scale="   38.308">  1  5  2 -1</clus>
<clus scale="   69.954">  1  4  2 -1</clus>
<clus scale="   92.234">  1  6  2 -1</clus>
<clus scale="   38.308">  1  3  2 -1</clus>
</clustering>
</event>
<event>
 6    0  0.7442036E+002  0.6577271E+02  0.7546771E-02  0.1375088E+00
         21   -1    0    0  504  501  0.00000000000E+00  0.00000000000E+00  0.10822798823E+04  0.10822798823E+04  0.00000000000E+00 0.  1.
         21   -1    0    0  503  502 -0.00000000000E+00 -0.00000000000E+00 -0.50209547779E+02  0.50209547779E+02  0.00000000000E+00 0.  1.
         21    1    1    2  503  506  0.45371890898E+02  0.24798135283E+02  0.14847028068E+02  0.53795819909E+02  0.00000000000E+00 0. -1.
         21    1    1    2  504  505  0.31439006834E+02  0.39420069722E+02  0.39475774105E+03  0.39796485669E+03  0.00000000000E+00 0.  1.
         21    1    1    2  505  502 -0.76914566750E+02  0.29744678865E+02  0.41696743358E+02  0.92407872531E+02  0.00000000000E+00 0.  1.
         21    1    1    2  506  501  0.10366901820E+00 -0.93962883870E+02  0.58076882209E+03  0.58832088099E+03  0.00000000000E+00 0.  1.
<scales pt_clust_3="54.04164" pt_clust_4="50.42175" pt_clust_5="14000.00000" pt_clust_6="65.77271"></scales>
<clustering>
<clus scale="   50.422">  1  4  2 -1</clus>
<clus scale="   54.042">  2  3  1 -1</clus>
<clus scale="   65.773">  1  6  2 -1</clus>
<clus scale="   50.422">  1  3  2 -1</clus>
</clustering>
</event>
<event>
 6    0  0.7442036E+002  0.1828439E+03  0.7546771E-02  0.1165079E+00
         21   -1    0    0  502  501  0.00000000000E+00  0.00000000000E+00  0.85666075752E+03  0.85666075752E+03  0.00000000000E+00 0.  1.
         21   -1    0    0  505  502 -0.00000000000E+00 -0.00000000000E+00 -0.62818867304E+02  0.62818867304E+02  0.00000000000E+00 0.  1.
         21    1    1    2  503  504 -0.41232817579E+02  0.57690117761E+01  0.50654280139E+02  0.65568916712E+02  0.00000000000E+00 0.  1.
         21    1    1    2  504  506  0.12903120012E+03  0.77648985091E+02  0.40712298914E+03  0.43408241588E+03  0.00000000000E+00 0.  1.
         21    1    1    2  505  503 -0.13100328394E+03 -0.71992619661E+02  0.10064880329E+03  0.18020815546E+03  0.00000000000E+00 0.  1.
         21    1    1    2  506  501  0.43204901403E+02 -0.11425377206E+02  0.23541581764E+03  0.23962013677E+03  0.00000000000E+00 0.  1.
<scales pt_clust_3="31.05650" pt_clust_4="173.11552" pt_clust_5="31.05650" pt_clust_6="44.69007"></scales>
<clustering>
<clus scale="   31.057">  3  5 -1 -1</clus>
<clus scale="   44.690">  1  6  2 -1</clus>
<clus scale="  173.116">  1  4  2 -1</clus>
<clus scale="   44.690">  1  3  2 -1</clus>
</clustering>
</event>
<event>
 6    0  0.7442036E+002  0.1146667E+03  0.7546771E-02  0.1252164E+00
         21   -1    0    0  506  501  0.00000000000E+00  0.00000000000E+00  0.92758001846E+02  0.92758001846E+02  0.00000000000E+00 0.  1.
         21   -1    0    0  505  502 -0.00000000000E+00 -0.00000000000E+00 -0.34260136678E+03  0.34260136678E+03  0.00000000000E+00 0.  1.
         21    1    1    2  503  501 -0.10606795745E+02  0.43303025193E+02  0.66481278978E+01  0.45076088022E+02  0.00000000000E+00 0. -1.
         21    1    1    2  504  503  0.32136212297E+02  0.62942381056E+02 -0.12217930328E+03  0.14114624197E+03  0.00000000000E+00 0.  1.
         21    1    1    2  505  504 -0.10583246984E+02  0.33016328801E+02 -0.99223089429E+02  0.10510615853E+03  0.00000000000E+00 0. -1.
         21    1    1    2  506  502 -0.10946169567E+02 -0.13926173505E+03 -0.35089100131E+02  0.14403088011E+03  0.00000000000E+00 0.  1.
<scales pt_clust_3="44.58314" pt_clust_4="30.91895" pt_clust_5="30.91895" pt_clust_6="105.82927"></scales>
<clustering>
<clus scale="   30.919">  4  5 -1 -1</clus>
<clus scale="   44.583">  1  3  2 -1</clus>
<clus scale="  105.829">  1  6  2 -1</clus>
<clus scale="   44.583">  1  3  2 -1</clus>
</clustering>
</event>
<event>
 6    0  0.7442036E+002  0.8465930E+02  0.7546771E-02  0.1316326E+00
         21   -1    0    0  504  501  0.00000000000E+00  0.00000000000E+00  0.52225041733E+03  0.52225041733E+03  0.00000000000E+00 0. -1.
         21   -1    0    0  505  502 -0.00000000000E+00 -0.00000000000E+00 -0.95001730409E+02  0.95001730409E+02  0.00000000000E+00 0. -1.
         21    1    1    2  503  502 -0.54992475499E+02  0.33822919201E+01  0.15295889917E+02  0.57180210812E+02  0.00000000000E+00 0. -1.
         21    1    1    2  504  503 -0.19955943837E+02  0.25201252775E+02  0.10032169697E+03  0.10534602849E+03  0.00000000000E+00 0. -1.
         21    1    1    2  505  506 -0.30996381953E+02  0.31147934329E+02 -0.53870642070E+02  0.69519893442E+02  0.00000000000E+00 0. -1.
         21    1    1    2  506  501  0.10594480129E+03 -0.59731479024E+02  0.36550174211E+03  0.38520601500E+03  0.00000000000E+00 0. -1.
<scales pt_clust_3="84.65930" pt_clust_4="32.14565" pt_clust_5="44.53872" pt_clust_6="14000.00000"></scales>
<clustering>
<clus scale="   32.146">  1  4  2 -1</clus>
<clus scale="   44.539">  2  5  1 -1</clus>
<clus scale="   84.659">  2  3  1 -1</clus>
<clus scale="   32.146">  1  3  2 -1</clus>
</clustering>
</event>
<event>
 6    0  0.7442036E+002  0.8893216E+02  0.7546771E-02  0.1305458E+00
         21   -1    0    0  505  501  0.00000000000E+00  0.00000000000E+00  0.14323849727E+03  0.14323849727E+03  0.00000000000E+00 0.  1.
         21   -1    0    0  503  502 -0.00000000000E+00 -0.00000000000E+00 -0.48373587003E+03  0.48373587003E+03  0.00000000000E+00 0.  1.
         21    1    1    2  503  506  0.98855426969E+01 -0.38606698300E+02 -0.16216375150E+03  0.16698887211E+03  0.00000000000E+00 0.  1.
         21    1    1    2  504  501 -0.40528547078E+02  0.12428517219E+03  0.98961123748E+01  0.13110034399E+03  0.00000000000E+00 0.  1.
         21    1    1    2  505  502  0.53769411077E+02 -0.45455060663E+02  0.49886873172E+02  0.86290278840E+02  0.00000000000E+00 0.  1.
         21    1    1    2  506  504 -0.23126406696E+02 -0.40223413228E+02 -0.23811660680E+03  0.24259487236E+03  0.00000000000E+00 0.  1.
<scales pt_clust_3="31.35993" pt_clust_4="82.24328" pt_clust_5="70.40818" pt_clust_6="31.35993"></scales>
<clustering>
<clus scale="   31.360">  3  6 -1 -1</clus>
<clus scale="   70.408">  1  5  2 -1</clus>
<clus scale="   82.243">  1  4  2 -1</clus>
<clus scale="   70.408">  1  3  2 -1</clus>
</clustering>
</event>
<event>
 6    0  0.7442036E+002  0.1485005E+03  0.7546771E-02  0.1202328E+00
         21   -1    0    0  503  501  0.00000000000E+00  0.00000000000E+00  0.25326647261E+03  0.25326647261E+03  0.00000000000E+00 0. -1.
         21   -1    0    0  504  502 -0.00000000000E+00 -0.00000000000E+00 -0.35503569272E+03  0.35503569272E+03  0.00000000000E+00 0. -1.
         21    1    1    2  503  506 -0.35197682093E+02 -0.12328294292E+03  0.12779888567E+03  0.18102518061E+03  0.00000000000E+00 0. -1.
         21    1    1    2  504  505  0.30290836004E+02  0.11958476596E+03 -0.87040392405E+02  0.15097708735E+03  0.00000000000E+00 0. -1.
         21    1    1    2  505  501  0.51299694090E+01  0.11664878209E+03 -0.39058893394E+02  0.12312129021E+03  0.00000000000E+00 0. -1.
         21    1    1    2  506  502 -0.22312332054E+00 -0.11295060514E+03 -0.10346881998E+03  0.15317860716E+03  0.00000000000E+00 0. -1.
<scales pt_clust_3="141.01213" pt_clust_4="45.29879" pt_clust_5="45.29879" pt_clust_6="112.95083"></scales>
<clustering>
<clus scale="   45.299">  4  5 -1 -1</clus>
<clus scale="  112.951">  2  6  1 -1</clus>
<clus scale="  141.012">  1  3  2 -1</clus>
<clus scale="  141.012">  1  3  2 -1</clus>
</clustering>
</event>
<event>
 6    0  0.7442036E+002  0.1601815E+03  0.7546771E-02  0.1188492E+00
         21   -1    0    0  504  501  0.00000000000E+00  0.00000000000E+00  0.88148084077E+02  0.88148084077E+02  0.00000000000E+00 0.  1.
         21   -1    0    0  506  502 -0.00000000000E+00 -0.00000000000E+00 -0.11285862479E+04  0.11285862479E+04  0.00000000000E+00 0.  1.
         21    1    1    2  503  502  0.13225835026E+03  0.14024781053E+03 -0.25449945348E+03  0.31926742927E+03  0.00000000000E+00 0. -1.
         21    1    1    2  504  503 -0.15685035475E+03 -0.20571712693E+02 -0.88335033352E+02  0.18118583627E+03  0.00000000000E+00 0.  1.
         21    1    1    2  505  501  0.54675422989E+02 -0.75374005483E+02 -0.57502434662E+03  0.58251492838E+03  0.00000000000E+00 0.  1.
         21    1    1    2  506  505 -0.30083418501E+02 -0.44302092354E+02 -0.12257933034E+03  0.13376613802E+03  0.00000000000E+00 0.  1.
<scales pt_clust_3="14000.00000" pt_clust_4="160.18148" pt_clust_5="107.66140" pt_clust_6="53.55079"></scales>
<clustering>
<clus scale="   53.551">  2  6  1 -1</clus>
<clus scale="  107.661">  2  5  1 -1</clus>
<clus scale="  160.181">  1  4  2 -1</clus>
<clus scale="  160.181">  1  3  2 -1</clus>
</clustering>
</event>
<event>
 6    0  0.7442036E+002  0.1223045E+03  0.7546771E-02  0.1239343E+00
         21   -1    0    0  504  501  0.00000000000E+00  0.00000000000E+00  0.23694741913E+03  0.23694741913E+03  0.00000000000E+00 0.  1.
         21   -1    0    0  506  502 -0.00000000000E+00 -0.00000000000E+00 -0.25259441095E+03  0.25259441095E+03  0.00000000000E+00 0.  1.
         21    1    1    2  503  502 -0.46347736257E+02 -0.11590358714E+03 -0.15791678197E+03  0.20129447135E+03  0.00000000000E+00 0.  1.
         21    1    1    2  504  503  0.39753986208E+02 -0.69234160938E+01 -0.40130523883E+01  0.40551420435E+02  0.00000000000E+00 0.  1.
         21    1    1    2  505  501 -0.36235019325E+02  0.16831040291E+02  0.12523392425E+03  0.13145263910E+03  0.00000000000E+00 0.  1.
         21    1    1    2  506  505  0.42828769374E+02  0.10599596295E+03  0.21048918296E+02  0.11624329920E+03  0.00000000000E+00 0.  1.
<scales pt_clust_3="14000.00000" pt_clust_4="33.90644" pt_clust_5="39.95323" pt_clust_6="122.30452"></scales>
<clustering>
<clus scale="   39.953">  1  5  2 -1</clus>
<clus scale="   33.906">  1  4  2 -1</clus>
<clus scale="  122.305">  1  6  2 -1</clus>
<clus scale="   39.953">  1  3  2 -1</clus>
</clustering>
</event>
<event>
 6    0  0.7442036E+002  0.1585369E+03  0.7546771E-02  0.1190358E+00
         21   -1    0    0  505  501  0.00000000000E+00  0.00000000000E+00  0.89288494161E+03  0.89288494161E+03  0.00000000000E+00 0.  1.
         21   -1    0    0  504  502 -0.00000000000E+00 -0.00000000000E+00 -0.20131913852E+03  0.20131913852E+03  0.00000000000E+00 0.  1.
         21    1    1    2  503  501  0.35874711184E+02  0.35792290296E+02  0.26265397630E+02  0.57078490343E+02  0.00000000000E+00 0.  1.
         21    1    1    2  504  503  0.23745080509E+02 -0.29646185513E+02  0.10328144560E+02  0.39362364435E+02  0.00000000000E+00 0.  1.
         21    1    1    2  505  506 -0.15824447277E+03 -0.31411715350E+02  0.80247763733E+03  0.81853427994E+03  0.00000000000E+00 0.  1.
         21    1    1    2  506  502  0.98624681073E+02  0.25265610567E+02 -0.14750537643E+03  0.17922894540E+03  0.00000000000E+00 0.  1.
<scales pt_clust_3="50.43193" pt_clust_4="37.98322" pt_clust_5="158.53695" pt_clust_6="14000.00000"></scales>
<clustering>
<clus scale="   37.983">  2  4  1 -1</clus>
<clus scale="   50.432">  2  3  1 -1</clus>
<clus scale="  158.537">  1  5  2 -1</clus>
<clus scale="  158.537">  1  3  2 -1</clus>
</clustering>
</event>
<event>
 6    0  0.7442036E+002  0.1570478E+03  0.7546771E-02  0.1192071E+00
         21   -1    0    0  506  501  0.00000000000E+00  0.00000000000E+00  0.26314451388E+03  0.26314451388E+03  0.00000000000E+00 0.  1.
         21   -1    0    0  503  502 -0.00000000000E+00 -0.00000000000E+00 -0.14860425669E+03  0.14860425669E+03  0.00000000000E+00 0. -1.
         21    1    1    2  503  504  0.58679046971E+02  0.29121878403E+02 -0.52417076132E+02  0.83897939340E+02  0.00000000000E+00 0. -1.
         21    1    1    2  504  501  0.54204996709E+02  0.59579414326E+02 -0.20683880367E+02  0.83160755087E+02  0.00000000000E+00 0. -1.
         21    1    1    2  505  502 -0.75629948030E+02 -0.47086543070E+02  0.66113149808E+02  0.11094133655E+03  0.00000000000E+00 0.  1.
         21    1    1    2  506  505 -0.37254095651E+02 -0.41614749659E+02  0.12152806388E+03  0.13374873959E+03  0.00000000000E+00 0.  1.
<scales pt_clust_3="39.86562" pt_clust_4="150.21604" pt_clust_5="50.40986" pt_clust_6="50.40986"></scales>
<clustering>
<clus scale="   39.866">  3  4 -1 -1</clus>
<clus scale="   50.410">  5  6 -1 -1</clus>
<clus scale="  150.216">  2  3  1 -1</clus>
<clus scale="  157.048">  1  3  2 -1</clus>
</clustering>
</event>
<event>
 6    0  0.7442036E+002  0.1232342E+03  0.7546771E-02  0.1237855E+00
         21   -1    0    0  505  501  0.00000000000E+00  0.00000000000E+00  0.59162921511E+03  0.59162921511E+03  0.00000000000E+00 0.  1.
         21   -1    0    0  503  502 -0.00000000000E+00 -0.00000000000E+00 -0.45962772470E+03  0.45962772470E+03  0.00000000000E+00 0.  1.
         21    1    1    2  503  501  0.93372430031E+00 -0.55129051661E+02 -0.64949711244E+02  0.85197119486E+02  0.00000000000E+00 0. -1.
         21    1    1    2  504  506 -0.34841905215E+01  0.10147401312E+03  0.27526172057E+03  0.29339074582E+03  0.00000000000E+00 0.  1.
         21    1    1    2  505  504 -0.43588712533E+02  0.16460731433E+02  0.29126400128E+03  0.29496720153E+03  0.00000000000E+00 0.  1.
         21    1    1    2  506  502  0.46139178754E+02 -0.62805692892E+02 -0.36957452018E+03  0.37770187297E+03  0.00000000000E+00 0.  1.
<scales pt_clust_3="54.57352" pt_clust_4="14000.00000" pt_clust_5="46.59326" pt_clust_6="123.23416"></scales>
<clustering>
<clus scale="   46.593">  1  5  2 -1</clus>
<clus scale="   54.574">  2  3  1 -1</clus>
<clus scale="  123.234">  2  6  1 -1</clus>
<clus scale="   46.593">  1  3  2 -1</clus>
</clustering>
</event>
<event>
 6    0  0.7442036E+002  0.1462461E+03  0.7546771E-02  0.1205163E+00
         21   -1    0    0  506  501  0.00000000000E+00  0.00000000000E+00  0.83828072725E+03  0.83828072725E+03  0.00000000000E+00 0. -1.
         21   -1    0    0  505  502 -0.00000000000E+00 -0.00000000000E+00 -0.42652179504E+03  0.42652179504E+03  0.00000000000E+00 0.  1.
         21    1    1    2  503  501  0.64291145039E+02  0.25071153133E+02 -0.12764048234E+03  0.14509998891E+03  0.00000000000E+00 0.  1.
         21    1    1    2  504  502 -0.15759682552E+03  0.18817134616E+02  0.34738002400E+03  0.38192109793E+03  0.00000000000E+00 0. -1.
         21    1    1    2  505  503  0.51585158938E+02  0.47328074820E+02 -0.26283508332E+03  0.27199863292E+03  0.00000000000E+00 0.  1.
         21    1    1    2  506  504  0.41720521540E+02 -0.91216362570E+02  0.45485447388E+03  0.46578280252E+03  0.00000000000E+00 0. -1.
<scales pt_clust_3="52.82682" pt_clust_4="136.22334" pt_clust_5="52.82682" pt_clust_6="100.30467"></scales>
<clustering>
<clus scale="   52.827">  3  5 -1 -1</clus>
<clus scale="  100.305">  1  6  2 -1</clus>
<clus scale="  136.223">  1  4  2 -1</clus>
<clus scale="  100.305">  1  3  2 -1</clus>
</clustering>
</event>
<event>
 6    0  0.7442036E+002  0.1313700E+03  0.7546771E-02  0.1225437E+00
         21   -1    0    0  506  501  0.00000000000E+00  0.00000000000E+00  0.10385848588E+03  0.10385848588E+03  0.00000000000E+00 0. -1.
         21   -1    0    0  504  502 -0.00000000000E+00 -0.00000000000E+00 -0.46923255228E+03  0.46923255228E+03  0.00000000000E+00 0.  1.
         21    1    1    2  503  501 -0.70551117960E+01  0.13892298365E+03  0.22203910190E+01  0.13911973305E+03  0.00000000000E+00 0. -1.
         21    1    1    2  504  505 -0.54069690343E+02 -0.46941953387E+01 -0.65251816662E+02  0.84872648488E+02  0.00000000000E+00 0.  1.
         21    1    1    2  505  503  0.60645653019E+02 -0.27448543630E+02 -0.96896925674E+02  0.11755990806E+03  0.00000000000E+00 0.  1.
         21    1    1    2  506  502  0.47914912023E+00 -0.10678024468E+03 -0.20544571508E+03  0.23153874856E+03  0.00000000000E+00 0.  1.
<scales pt_clust_3="131.36998" pt_clust_4="54.27308" pt_clust_5="54.17880" pt_clust_6="14000.00000"></scales>
<clustering>
<clus scale="   54.273">  2  4  1 -1</clus>
<clus scale="   54.179">  2  5  1 -1</clus>
<clus scale="  131.370">  1  3  2 -1</clus>
<clus scale="  131.370">  1  3  2 -1</clus>
</clustering>
</event>
<event>
 6    0  0.7442036E+002  0.2192345E+03  0.7546771E-02  0.1134455E+00
         21   -1    0    0  504  501  0.00000000000E+00  0.00000000000E+00  0.17221899053E+03  0.17221899053E+03  0.00000000000E+00 0.  1.
         21   -1    0    0  506  502 -0.00000000000E+00 -0.00000000000E+00 -0.15644869487E+04  0.15644869487E+04  0.00000000000E+00 0.  1.
         21    1    1    2  503  502 -0.15719581580E+02  0.26709568806E+02 -0.13604409216E+03  0.13952957150E+03  0.00000000000E+00 0.  1.
         21    1    1    2  504  505  0.12789107886E+03  0.10908748246E+03  0.57724096984E+02  0.17773091530E+03  0.00000000000E+00 0.  1.
         21    1    1    2  505  503  0.49938972947E+02  0.27171058245E+01  0.30244091550E+02  0.58446460601E+02  0.00000000000E+00 0.  1.
         21    1    1    2  506  501 -0.16211047023E+03 -0.13851415709E+03 -0.13441920545E+04  0.13609989918E+04  0.00000000000E+00 0.  1.
<scales pt_clust_3="30.99204" pt_clust_4="34.06928" pt_clust_5="34.06928" pt_clust_6="210.10999"></scales>
<clustering>
<clus scale="   30.992">  2  3  1 -1</clus>
<clus scale="   34.069">  4  5 -1 -1</clus>
<clus scale="  210.110">  2  6  1 -1</clus>
<clus scale="  219.235">  1  3  2 -1</clus>
</clustering>
</event>
<event>
 6    0  0.7442036E+002  0.1210922E+03  0.7546771E-02  0.1241306E+00
         21   -1    0    0  505  501  0.00000000000E+00  0.00000000000E+00  0.15752352846E+03  0.15752352846E+03  0.00000000000E+00 0. -1.
         21   -1    0    0  504  502 -0.00000000000E+00 -0.00000000000E+00 -0.18453892686E+03  0.18453892686E+03  0.00000000000E+00 0. -1.
         21    1    1    2  503  501  0.38741476909E+02  0.10351451849E+02  0.71438583075E+02  0.81923902130E+02  0.00000000000E+00 0. -1.
         21    1    1    2  504  506  0.19705861682E+02  0.59805824101E+02 -0.59269013524E+02  0.86474698873E+02  0.00000000000E+00 0. -1.
         21    1    1    2  505  502 -0.66046784661E+02 -0.10912154217E+03 -0.40838938268E+02  0.13393098077E+03  0.00000000000E+00 0. -1.
         21    1    1    2  506  503  0.75994460700E+01  0.38964266223E+02  0.16539703222E+01  0.39732873552E+02  0.00000000000E+00 0. -1.
<scales pt_clust_3="40.10056" pt_clust_4="36.45303" pt_clust_5="112.05164" pt_clust_6="36.45303"></scales>
<clustering>
<clus scale="   36.453">  4  6 -1 -1</clus>
<clus scale="   40.101">  1  3  2 -1</clus>
<clus scale="  112.052">  1  5  2 -1</clus>
<clus scale="   40.101">  1  3  2 -1</clus>
</clustering>
</event>
<event>
 6    0  0.7442036E+002  0.1037386E+03  0.7546771E-02  0.1272625E+00
         21   -1    0    0  503  501  0.00000000000E+00  0.00000000000E+00  0.11175649751E+04  0.11175649751E+04  0.00000000000E+00 0.  1.
         21   -1    0    0  505  502 -0.00000000000E+00 -0.00000000000E+00 -0.62551811951E+03  0.62551811951E+03  0.00000000000E+00 0. -1.
         21    1    1    2  503  504  0.31559459439E+02  0.50631031625E+02 -0.46750516356E+03  0.47129669933E+03  0.00000000000E+00 0. -1.
         21    1    1    2  504  502  0.20388352382E+02  0.47651889276E+02 -0.13074209437E+03  0.14064097093E+03  0.00000000000E+00 0. -1.
         21    1    1    2  505  506 -0.79459941160E+02 -0.30161016295E+02  0.75462808381E+02  0.11365827995E+03  0.00000000000E+00 0.  1.
         21    1    1    2  506  501  0.27512129339E+02 -0.68121904606E+02  0.10148313051E+04  0.10174871444E+04  0.00000000000E+00 0.  1.
<scales pt_clust_3="14000.00000" pt_clust_4="51.83037" pt_clust_5="103.73863" pt_clust_6="73.36874"></scales>
<clustering>
<clus scale="   51.830">  2  4  1 -1</clus>
<clus scale="   73.369">  1  6  2 -1</clus>
<clus scale="  103.739">  1  5  2 -1</clus>
<clus scale="   73.369">  1  3  2 -1</clus>
</clustering>
</event>
<event>
 6    0  0.7442036E+002  0.1257184E+03  0.7546771E-02  0.1233951E+00
         21   -1    0    0  506  501  0.00000000000E+00  0.00000000000E+00  0.83228412042E+02  0.83228412042E+02  0.00000000000E+00 0. -1.
         21   -1    0    0  505  502 -0.00000000000E+00 -0.00000000000E+00 -0.74099558900E+03  0.74099558900E+03  0.00000000000E+00 0. -1.
         21    1    1    2  503  501  0.30649699628E+02 -0.25772983233E+01  0.27978410083E+02  0.41579297549E+02  0.00000000000E+00 0.  1.
         21    1    1    2  504  503  0.81978676309E+02  0.44447084473E+02 -0.13770526478E+03  0.16630931013E+03  0.00000000000E+00 0. -1.
         21    1    1    2  505  504 -0.18971251259E+03  0.32577383509E+00 -0.32083632914E+03  0.37272898151E+03  0.00000000000E+00 0. -1.
         21    1    1    2  506  502  0.77084136652E+02 -0.42195559985E+02 -0.22720399312E+03  0.24360641185E+03  0.00000000000E+00 0. -1.
<scales pt_clust_3="30.75787" pt_clust_4="14000.00000" pt_clust_5="125.71843" pt_clust_6="92.66178"></scales>
<clustering>
<clus scale="   30.758">  1  3  2 -1</clus>
<clus scale="   92.662">  2  6  1 -1</clus>
<clus scale="  125.718">  2  5  1 -1</clus>
<clus scale="   30.758">  1  3  2 -1</clus>
</clustering>
</event>
<event>
 6    0  0.7442036E+002  0.2016088E+03  0.7546771E-02  0.1148389E+00
         21   -1    0    0  502  501  0.00000000000E+00  0.00000000000E+00  0.37390673600E+03  0.37390673600E+03  0.00000000000E+00 0.  1.
         21   -1    0    0  504  502 -0.00000000000E+00 -0.00000000000E+00 -0.18924887080E+04  0.18924887080E+04  0.00000000000E+00 0. -1.
         21    1    1    2  503  501  0.28832889064E+02 -0.26304908501E+02  0.12203177355E+03  0.12812118271E+03  0.00000000000E+00 0.  1.
         21    1    1    2  504  506  0.40106449166E+02 -0.12663540307E+03 -0.12853624016E+04  0.12922080157E+04  0.00000000000E+00 0. -1.
         21    1    1    2  505  503 -0.52200745030E+02  0.21828260353E+03  0.19158337641E+03  0.29508711070E+03  0.00000000000E+00 0.  1.
         21    1    1    2  506  505 -0.16738593200E+02 -0.65342291965E+02 -0.54683472039E+03  0.55097913486E+03  0.00000000000E+00 0. -1.
<scales pt_clust_3="39.02927" pt_clust_4="38.97236" pt_clust_5="194.04905" pt_clust_6="38.97236"></scales>
<clustering>
<clus scale="   38.972">  4  6 -1 -1</clus>
<clus scale="   39.029">  1  3  2 -1</clus>
<clus scale="  194.049">  1  5  2 -1</clus>
<clus scale="   39.029">  1  3  2 -1</clus>
</clustering>
</event>
<event>
 6    0  0.7442036E+002  0.1021698E+03  0.7546771E-02  0.1275798E+00
         21   -1    0    0  505  501  0.00000000000E+00  0.00000000000E+00  0.22408331317E+02  0.22408331317E+02  0.00000000000E+00 0.  1.
         21   -1    0    0  503  502 -0.00000000000E+00 -0.00000000000E+00 -0.16876737686E+04  0.16876737686E+04  0.00000000000E+00 0.  1.
         21    1    1    2  503  504 -0.10708912685E+03  0.20610707536E+02 -0.13009099208E+04  0.13054729045E+04  0.00000000000E+00 0.  1.
         21    1    1    2  504  506  0.82507292066E+02  0.38189422867E+02 -0.23691428459E+03  0.25376024808E+03  0.00000000000E+00 0.  1.
         21    1    1    2  505  502  0.91142348417E+01 -0.31125429138E+02 -0.10996368094E+03  0.11464673019E+03  0.00000000000E+00 0.  1.
         21    1    1    2  506  501  0.15467599946E+02 -0.27674701264E+02 -0.17477550922E+02  0.36202217120E+02  0.00000000000E+00 0.  1.
<scales pt_clust_3="102.16976" pt_clust_4="14000.00000" pt_clust_5="38.00070" pt_clust_6="31.70388"></scales>
<clustering>
<clus scale="   31.704">  1  6  2 -1</clus>
<clus scale="   38.001">  1  5  2 -1</clus>
<clus scale="  102.170">  2  3  1 -1</clus>
<clus scale="   31.704">  1  3  2 -1</clus>
</clustering>
</event>
<event>
 6    0  0.7442036E+002  0.1399383E+03  0.7546771E-02  0.1213412E+00
         21   -1    0    0  503  501  0.00000000000E+00  0.00000000000E+00  0.55193660187E+03  0.55193660187E+03  0.00000000000E+00 0.  1.
         21   -1    0    0  504  502 -0.00000000000E+00 -0.00000000000E+00 -0.51393935762E+03  0.51393935762E+03  0.00000000000E+00 0. -1.
         21    1    1    2  503  505 -0.95838104884E+02  0.71412882474E+02  0.21955765240E+03  0.24998060897E+03  0.00000000000E+00 0.  1.
         21    1    1    2  504  506  0.11443958469E+02  0.43147344999E+02 -0.34750240990E+03  0.35035779205E+03  0.00000000000E+00 0. -1.
         21    1    1    2  505  502 -0.26665984201E+02  0.21807177193E+02 -0.12275110618E+03  0.12749298710E+03  0.00000000000E+00 0. -1.
         21    1    1    2  506  501  0.11106013062E+03 -0.13636740467E+03  0.28869310793E+03  0.33804457137E+03  0.00000000000E+00 0.  1.
<scales pt_clust_3="14000.00000" pt_clust_4="63.94830" pt_clust_5="34.44746" pt_clust_6="139.93828"></scales>
<clustering>
<clus scale="   34.447">  2  5  1 -1</clus>
<clus scale="   63.948">  2  4  1 -1</clus>
<clus scale="  139.938">  2  6  1 -1</clus>
<clus scale="  139.938">  1  3  2 -1</clus>
</clustering>
</event>
<event>
 6    0  0.7442036E+002  0.1044721E+03  0.7546771E-02  0.1271163E+00
         21   -1    0    0  506  501  0.00000000000E+00  0.00000000000E+00  0.13297134476E+03  0.13297134476E+03  0.00000000000E+00 0.  1.
         21   -1    0    0  505  502 -0.00000000000E+00 -0.00000000000E+00 -0.93521744534E+03  0.93521744534E+03  0.00000000000E+00 0. -1.
         21    1    1    2  503  501  0.26028369764E+02 -0.75860292492E+02 -0.74064209104E+03  0.74497178942E+03  0.00000000000E+00 0. -1.
         21    1    1    2  504  502 -0.90123179372E+02  0.59084182103E+02  0.48136561619E+02  0.11802650804E+03  0.00000000000E+00 0.  1.
         21    1    1    2  505  503  0.40382214139E+02 -0.72443509810E+01 -0.14834348068E+03  0.15391228703E+03  0.00000000000E+00 0. -1.
         21    1    1    2  506  504  0.23712595469E+02  0.24020461370E+02  0.38602909513E+02  0.51278205615E+02  0.00000000000E+00 0.  1.
<scales pt_clust_3="104.47212" pt_clust_4="14000.00000" pt_clust_5="41.64026" pt_clust_6="33.75307"></scales>
<clustering>
<clus scale="   33.753">  1  6  2 -1</clus>
<clus scale="   41.640">  2  5  1 -1</clus>
<clus scale="  104.472">  2  3  1 -1</clus>
<clus scale="   33.753">  1  3  2 -1</clus>
</clustering>
</event>
<event>
 6    0  0.7442036E+002  0.1409876E+03  0.7546771E-02  0.1212006E+00
         21   -1    0    0  506  501  0.00000000000E+00  0.00000000000E+00  0.34938767247E+03  0.34938767247E+03  0.00000000000E+00 0. -1.
         21   -1    0    0  504  502 -0.00000000000E+00 -0.00000000000E+00 -0.22179567303E+03  0.22179567303E+03  0.00000000000E+00 0. -1.
         21    1    1    2  503  501 -0.37883740653E+02  0.82380220033E+01  0.72127615338E+02  0.81886724851E+02  0.00000000000E+00 0. -1.
         21    1    1    2  504  503 -0.47214141287E+02 -0.14143953802E+03  0.15697142299E+03  0.21650483988E+03  0.00000000000E+00 0. -1.
         21    1    1    2  505  502  0.30654104654E+02  0.13646481203E+03 -0.14616266131E+03  0.20230136582E+03  0.00000000000E+00 0. -1.
         21    1    1    2  506  505  0.54443777287E+02 -0.32632960094E+01  0.44655622425E+02  0.70490414953E+02  0.00000000000E+00 0. -1.
<scales pt_clust_3="38.76910" pt_clust_4="14000.00000" pt_clust_5="140.98763" pt_clust_6="46.46123"></scales>
<clustering>
<clus scale="   38.769">  1  3  2 -1</clus>
<clus scale="   46.461">  1  6  2 -1</clus>
<clus scale="  140.988">  2  5  1 -1</clus>
<clus scale="   38.769">  1  3  2 -1</clus>
</clustering>
</event>
<event>
 6    0  0.7442036E+002  0.1235884E+03  0.7546771E-02  0.1237292E+00
         21   -1    0    0  505  501  0.00000000000E+00  0.00000000000E+00  0.24975288658E+04  0.24975288658E+04  0.00000000000E+00 0. -1.
         21   -1    0    0  504  502 -0.00000000000E+00 -0.00000000000E+00 -0.38927428624E+03  0.38927428624E+03  0.00000000000E+00 0.  1.
         21    1    1    2  503  506 -0.74109061507E+02 -0.11870273929E+02 -0.16452395270E+03  0.18083469637E+03  0.00000000000E+00 0.  1.
         21    1    1    2  504  501 -0.28253948692E+02  0.13382545603E+02  0.14869457897E+04  0.14872744063E+04  0.00000000000E+00 0. -1.
         21    1    1    2  505  503  0.14052063033E+03  0.31246842375E+01  0.99558048705E+03  0.10054532895E+04  0.00000000000E+00 0. -1.
         21    1    1    2  506  502 -0.38157620133E+02 -0.46369559111E+01 -0.20974774450E+03  0.21324075984E+03  0.00000000000E+00 0.  1.
<scales pt_clust_3="34.58980" pt_clust_4="31.26305" pt_clust_5="113.72876" pt_clust_6="34.58980"></scales>
<clustering>
<clus scale="   31.263">  1  4  2 -1</clus>
<clus scale="   34.590">  3  6 -1 -1</clus>
<clus scale="  113.729">  1  5  2 -1</clus>
<clus scale="   31.263">  1  3  2 -1</clus>
</clustering>
</event>
<event>
 6    0  0.7442036E+002  0.1339463E+03  0.7546771E-02  0.1221715E+00
         21   -1    0    0  502  501  0.00000000000E+00  0.00000000000E+00  0.28072218865E+03  0.28072218865E+03  0.00000000000E+00 0.  1.
         21   -1    0    0  504  502 -0.00000000000E+00 -0.00000000000E+00 -0.43482391509E+03  0.43482391509E+03  0.00000000000E+00 0.  1.
         21    1    1    2  503  505 -0.83077213876E+02  0.56746650970E+02 -0.42871003112E+02  0.10936145925E+03  0.00000000000E+00 0.  1.
         21    1    1    2  504  503 -0.10478016525E+02  0.55673080065E+02 -0.22989393789E+03  0.23677099348E+03  0.00000000000E+00 0.  1.
         21    1    1    2  505  506  0.11569157004E+03 -0.13967391089E+03 -0.57128363081E+02  0.19014991620E+03  0.00000000000E+00 0.  1.
         21    1    1    2  506  501 -0.22136339643E+02  0.27254179851E+02  0.17579157764E+03  0.17926373482E+03  0.00000000000E+00 0.  1.
<scales pt_clust_3="14000.00000" pt_clust_4="57.68209" pt_clust_5="133.94626" pt_clust_6="35.11136"></scales>
<clustering>
<clus scale="   35.111">  1  6  2 -1</clus>
<clus scale="   57.682">  2  4  1 -1</clus>
<clus scale="  133.946">  1  5  2 -1</clus>
<clus scale="   35.111">  1  3  2 -1</clus>
</clustering>
</event>
<event>
 6    0  0.7442036E+002  0.1610650E+03  0.7546771E-02  0.1187500E+00
         21   -1    0    0  505  501  0.00000000000E+00  0.00000000000E+00  0.18736537497E+04  0.18736537497E+04  0.00000000000E+00 0.  1.
         21   -1    0    0  503  502 -0.00000000000E+00 -0.00000000000E+00 -0.63465375068E+02  0.63465375068E+02  0.00000000000E+00 0.  1.
         21    1    1    2  503  506 -0.41175071472E+02  0.53769280585E+01  0.27847806186E+02  0.49997981714E+02  0.00000000000E+00 0. -1.
         21    1    1    2  504  502  0.19227529945E+03 -0.77484220067E+02  0.19383722791E+03  0.28380709304E+03  0.00000000000E+00 0.  1.
         21    1    1    2  505  504 -0.35048834249E+02  0.36543365332E+02  0.10534382192E+04  0.10546544079E+04  0.00000000000E+00 0.  1.
         21    1    1    2  506  501 -0.11605139373E+03  0.35563926676E+02  0.53506512134E+03  0.54865964216E+03  0.00000000000E+00 0.  1.
<scales pt_clust_3="41.52467" pt_clust_4="14000.00000" pt_clust_5="51.01111" pt_clust_6="161.06503"></scales>
<clustering>
<clus scale="   41.525">  2  3  1 -1</clus>
<clus scale="   51.011">  1  5  2 -1</clus>
<clus scale="  161.065">  1  6  2 -1</clus>
<clus scale="   51.011">  1  3  2 -1</clus>
</clustering>
</event>
<event>
 6    0  0.7442036E+002  0.1387033E+03  0.7546771E-02  0.1215084E+00
         21   -1    0    0  505  501  0.00000000000E+00  0.00000000000E+00  0.38870812475E+03  0.38870812475E+03  0.00000000000E+00 0. -1.
         21   -1    0    0  506  502 -0.00000000000E+00 -0.00000000000E+00 -0.11363459563E+03  0.11363459563E+03  0.00000000000E+00 0. -1.
         21    1    1    2  503  501  0.76469604138E+02  0.37630477193E+01  0.10388422046E+02  0.77263705566E+02  0.00000000000E+00 0. -1.
         21    1    1    2  504  502 -0.14917709518E+03  0.22950245158E+02  0.55625970124E+02  0.16085635838E+03  0.00000000000E+00 0. -1.
         21    1    1    2  505  504  0.43662878632E+02  0.12029920163E+02  0.21095732293E+03  0.21576412595E+03  0.00000000000E+00 0. -1.
         21    1    1    2  506  503  0.29044612405E+02 -0.38743213041E+02 -0.18981859836E+01  0.48458530482E+02  0.00000000000E+00 0. -1.
<scales pt_clust_3="44.29906" pt_clust_4="125.94233" pt_clust_5="45.28980" pt_clust_6="44.29906"></scales>
<clustering>
<clus scale="   45.290">  1  5  2 -1</clus>
<clus scale="   44.299">  3  6 -1 -1</clus>
<clus scale="  125.942">  1  4  2 -1</clus>
<clus scale="   45.290">  1  3  2 -1</clus>
</clustering>
</event>
<event>
 6    0  0.7442036E+002  0.8433420E+02  0.7546771E-02  0.1317183E+00
         21   -1    0    0  505  501  0.00000000000E+00  0.00000000000E+00  0.55590924226E+02  0.55590924226E+02  0.00000000000E+00 0. -1.
         21   -1    0    0  504  502 -0.00000000000E+00 -0.00000000000E+00 -0.17108053594E+04  0.17108053594E+04  0.00000000000E+00 0. -1.
         21    1    1    2  503  501  0.74460058935E+02  0.43352751301E+02 -0.77570657493E+02  0.11593519020E+03  0.00000000000E+00 0. -1.
         21    1    1    2  504  503 -0.50151083497E+02  0.21327923890E+02 -0.38760642779E+03  0.39141889885E+03  0.00000000000E+00 0. -1.
         21    1    1    2  505  506  0.28931428133E+01 -0.10751485356E+03 -0.51276753776E+02  0.11915166591E+03  0.00000000000E+00 0. -1.
         21    1    1    2  506  502 -0.27202118251E+02  0.42834178374E+02 -0.11387605961E+04  0.11398905286E+04  0.00000000000E+00 0. -1.
<scales pt_clust_3="14000.00000" pt_clust_4="85.27092" pt_clust_5="84.33420" pt_clust_6="50.74172"></scales>
<clustering>
<clus scale="   50.742">  2  6  1 -1</clus>
<clus scale="   85.271">  2  4  1 -1</clus>
<clus scale="   84.334">  1  5  2 -1</clus>
<clus scale="   84.334">  1  3  2 -1</clus>
</clustering>
</event>
<event>
 6    0  0.7442036E+002  0.1790131E+03  0.7546771E-02  0.1168762E+00
         21   -1    0    0  504  501  0.00000000000E+00  0.00000000000E+00  0.52259708374E+03  0.52259708374E+03  0.00000000000E+00 0.  1.
         21   -1    0    0  503  502 -0.00000000000E+00 -0.00000000000E+00 -0.10116131049E+04  0.10116131049E+04  0.00000000000E+00 0. -1.
         21    1    1    2  503  506 -0.46622049035E+02 -0.27886954035E+02 -0.72600759593E+02  0.90676170822E+02  0.00000000000E+00 0.  1.
         21    1    1    2  504  502  0.54889307412E+01 -0.13463629415E+03 -0.90914906834E+03  0.91908056694E+03  0.00000000000E+00 0. -1.
         21    1    1    2  505  501  0.31886560380E+02  0.26619272972E+02  0.85796082662E+02  0.95322118245E+02  0.00000000000E+00 0. -1.
         21    1    1    2  506  505  0.92465579130E+01  0.13590397522E+03  0.40693772412E+03  0.42913133261E+03  0.00000000000E+00 0.  1.
<scales pt_clust_3="54.32585" pt_clust_4="166.99282" pt_clust_5="35.61226" pt_clust_6="35.61226"></scales>
<clustering>
<clus scale="   35.612">  5  6 -1 -1</clus>
<clus scale="   54.326">  2  3  1 -1</clus>
<clus scale="  166.993">  2  4  1 -1</clus>
<clus scale="  179.013">  1  3  2 -1</clus>
</clustering>
</event>
<event>
 6    0  0.7442036E+002  0.1333521E+03  0.7546771E-02  0.1222565E+00
         21   -1    0    0  504  501  0.00000000000E+00  0.00000000000E+00  0.13959369711E+04  0.13959369711E+04  0.00000000000E+00 0. -1.
         21   -1    0    0  505  502 -0.00000000000E+00 -0.00000000000E+00 -0.29968648481E+03  0.29968648481E+03  0.00000000000E+00 0. -1.
         21    1    1    2  503  501 -0.15562489497E+03 -0.35570089464E+02  0.90997949987E+03  0.92387608984E+03  0.00000000000E+00 0. -1.
         21    1    1    2  504  502  0.96660251224E+02  0.55411190487E+02  0.46822794304E+03  0.48130137215E+03  0.00000000000E+00 0. -1.
         21    1    1    2  505  506  0.31074638143E+02 -0.23722425578E+01 -0.19491068627E+03  0.19738651497E+03  0.00000000000E+00 0. -1.
         21    1    1    2  506  503  0.27890005598E+02 -0.17468858466E+02 -0.87046270384E+02  0.93059478916E+02  0.00000000000E+00 0. -1.
<scales pt_clust_3="14000.00000" pt_clust_4="133.35209" pt_clust_5="30.59829" pt_clust_6="69.70760"></scales>
<clustering>
<clus scale="   30.598">  5  6 -1 -1</clus>
<clus scale="   69.708">  2  5  1 -1</clus>
<clus scale="  133.352">  1  4  2 -1</clus>
<clus scale="  133.352">  1  3  2 -1</clus>
</clustering>
</event>
<event>
 6    0  0.7442036E+002  0.1010846E+03  0.7546771E-02  0.1278032E+00
         21   -1    0    0  503  501  0.00000000000E+00  0.00000000000E+00  0.19835824719E+03  0.19835824719E+03  0.00000000000E+00 0. -1.
         21   -1    0    0  504  502 -0.00000000000E+00 -0.00000000000E+00 -0.14539946420E+03  0.14539946420E+03  0.00000000000E+00 0.  1.
         21    1    1    2  503  506 -0.34146521938E+02 -0.21796794050E+02  0.37324030982E+02  0.55083286758E+02  0.00000000000E+00 0. -1.
         21    1    1    2  504  505  0.37188501192E+02  0.76016383424E+01 -0.14589348252E+02  0.40664709624E+02  0.00000000000E+00 0.  1.
         21    1    1    2  505  501  0.60711249981E+01 -0.97968194012E+02 -0.49662167443E+02  0.11000434751E+03  0.00000000000E+00 0.  1.
         21    1    1    2  506  502 -0.91131042519E+01  0.11216334972E+03  0.79886267701E+02  0.13800536749E+03  0.00000000000E+00 0. -1.
<scales pt_clust_3="37.85241" pt_clust_4="37.95747" pt_clust_5="101.08461" pt_clust_6="14000.00000"></scales>
<clustering>
<clus scale="   37.957">  2  4  1 -1</clus>
<clus scale="   37.852">  1  3  2 -1</clus>
<clus scale="  101.085">  2  5  1 -1</clus>
<clus scale="   37.852">  1  3  2 -1</clus>
</clustering>
</event>
<event>
 6    0  0.7442036E+002  0.1632667E+03  0.7546771E-02  0.1185057E+00
         21   -1    0    0  503  501  0.00000000000E+00  0.00000000000E+00  0.40557800994E+02  0.40557800994E+02  0.00000000000E+00 0.  1.
         21   -1    0    0  506  502 -0.00000000000E+00 -0.00000000000E+00 -0.11033395649E+04  0.11033395649E+04  0.00000000000E+00 0.  1.
         21    1    1    2  503  505  0.15413373164E+02 -0.15176085989E+03 -0.44515189906E+03  0.47056258234E+03  0.00000000000E+00 0.  1.
         21    1    1    2  504  502 -0.60922024977E+01  0.91238080935E+02 -0.45577884826E+03  0.46486111998E+03  0.00000000000E+00 0.  1.
         21    1    1    2  505  504 -0.40808147555E+02  0.47810437461E+02 -0.16279011123E+03  0.17450433563E+03  0.00000000000E+00 0.  1.
         21    1    1    2  506  501  0.31486976888E+02  0.12712341490E+02  0.93909468627E+00  0.33969327909E+02  0.00000000000E+00 0. -1.
<scales pt_clust_3="148.42348" pt_clust_4="54.72546" pt_clust_5="54.72546" pt_clust_6="33.95634"></scales>
<clustering>
<clus scale="   33.956">  1  6  2 -1</clus>
<clus scale="   54.725">  4  5 -1 -1</clus>
<clus scale="  148.423">  1  3  2 -1</clus>
<clus scale="   33.956">  1  3  2 -1</clus>
</clustering>
</event>
<event>
 6    0  0.7442036E+002  0.1152042E+03  0.7546771E-02  0.1251225E+00
         21   -1    0    0  504  501  0.00000000000E+00  0.00000000000E+00  0.54104802646E+02  0.54104802646E+02  0.00000000000E+00 0. -1.
         21   -1    0    0  505  502 -0.00000000000E+00 -0.00000000000E+00 -0.14914959366E+04  0.14914959366E+04  0.00000000000E+00 0. -1.
         21    1    1    2  503  502 -0.33285044908E+02  0.38636912492E+02 -0.23033853276E+03  0.23591639387E+03  0.00000000000E+00 0. -1.
         21    1    1    2  504  503 -0.41577339097E+02 -0.21940351103E+02  0.19885715259E+02  0.51044057483E+02  0.00000000000E+00 0. -1.
         21    1    1    2  505  506  0.15387606904E+02  0.90002097460E+02 -0.96841431889E+03  0.97270933429E+03  0.00000000000E+00 0. -1.
         21    1    1    2  506  501  0.59474777101E+02 -0.10669865885E+03 -0.25852399755E+03  0.28593095359E+03  0.00000000000E+00 0.  1.
<scales pt_clust_3="53.01541" pt_clust_4="47.01121" pt_clust_5="115.20418" pt_clust_6="14000.00000"></scales>
<clustering>
<clus scale="   47.011">  1  4  2 -1</clus>
<clus scale="   53.015">  2  3  1 -1</clus>
<clus scale="  115.204">  2  5  1 -1</clus>
<clus scale="   47.011">  1  3  2 -1</clus>
</clustering>
</event>
<event>
 6    0  0.7442036E+002  0.1200473E+03  0.7546771E-02  0.1243019E+00
         21   -1    0    0  504  501  0.00000000000E+00  0.00000000000E+00  0.35606074326E+02  0.35606074326E+02  0.00000000000E+00 0.  1.
         21   -1    0    0  505  502 -0.00000000000E+00 -0.00000000000E+00 -0.14541171691E+04  0.14541171691E+04  0.00000000000E+00 0.  1.
         21    1    1    2  503  506 -0.90595257430E+02  0.53449177253E+01 -0.41759959239E+03  0.42734703507E+03  0.00000000000E+00 0.  1.
         21    1    1    2  504  502  0.14180851822E+03  0.28641341022E+02 -0.22745842701E+03  0.26956876354E+03  0.00000000000E+00 0.  1.
         21    1    1    2  505  503 -0.42803810262E+02 -0.21873401804E+01 -0.75269201028E+03  0.75391127659E+03  0.00000000000E+00 0.  1.
         21    1    1    2  506  501 -0.84094505325E+01 -0.31798918567E+02 -0.20761065113E+02  0.38896168255E+02  0.00000000000E+00 0.  1.
<scales pt_clust_3="120.04726" pt_clust_4="14000.00000" pt_clust_5="43.09588" pt_clust_6="32.89210"></scales>
<clustering>
<clus scale="   32.892">  1  6  2 -1</clus>
<clus scale="   43.096">  2  5  1 -1</clus>
<clus scale="  120.047">  2  3  1 -1</clus>
<clus scale="   32.892">  1  3  2 -1</clus>
</clustering>
</event>
<event>
 6    0  0.7442036E+002  0.8746109E+02  0.7546771E-02  0.1309119E+00
         21   -1    0    0  505  501  0.00000000000E+00  0.00000000000E+00  0.18221252162E+04  0.18221252162E+04  0.00000000000E+00 0. -1.
         21   -1    0    0  506  502 -0.00000000000E+00 -0.00000000000E+00 -0.74952538202E+03  0.74952538202E+03  0.00000000000E+00 0.  1.
         21    1    1    2  503  501  0.11574942900E+03  0.21020755928E+02  0.16565183872E+03  0.20317562394E+03  0.00000000000E+00 0. -1.
         21    1    1    2  504  502  0.27728781915E+02 -0.36584588116E+02 -0.22358586613E+03  0.22824976882E+03  0.00000000000E+00 0.  1.
         21    1    1    2  505  504 -0.85710081226E+02 -0.19337939289E+01  0.16324464981E+04  0.16346961573E+04  0.00000000000E+00 0. -1.
         21    1    1    2  506  503 -0.57768129685E+02  0.17497626118E+02 -0.50191263656E+03  0.50552904809E+03  0.00000000000E+00 0.  1.
<scales pt_clust_3="87.46109" pt_clust_4="45.90553" pt_clust_5="14000.00000" pt_clust_6="35.77630"></scales>
<clustering>
<clus scale="   45.906">  2  4  1 -1</clus>
<clus scale="   35.776">  2  6  1 -1</clus>
<clus scale="   87.461">  2  3  1 -1</clus>
<clus scale="   87.461">  1  3  2 -1</clus>
</clustering>
</event>
<event>
 6    0  0.7442036E+002  0.1168697E+03  0.7546771E-02  0.1248352E+00
         21   -1    0    0  504  501  0.00000000000E+00  0.00000000000E+00  0.19768127761E+03  0.19768127761E+03  0.00000000000E+00 0.  1.
         21   -1    0    0  503  502 -0.00000000000E+00 -0.00000000000E+00 -0.20067497411E+03  0.20067497411E+03  0.00000000000E+00 0.  1.
         21    1    1    2  503  505  0.60015120031E+02 -0.49642194937E+02 -0.19556060788E+02  0.80303185890E+02  0.00000000000E+00 0.  1.
         21    1    1    2  504  506 -0.29180629371E+02 -0.10656141302E+02  0.15782218860E+02  0.34844524822E+02  0.00000000000E+00 0. -1.
         21    1    1    2  505  501  0.44389628179E+02  0.13098678900E+03  0.73804631700E+02  0.15676447826E+03  0.00000000000E+00 0.  1.
         21    1    1    2  506  502 -0.75224118840E+02 -0.70688452766E+02 -0.73024486270E+02  0.12644406275E+03  0.00000000000E+00 0.  1.
<scales pt_clust_3="75.26860" pt_clust_4="31.06545" pt_clust_5="14000.00000" pt_clust_6="116.86968"></scales>
<clustering>
<clus scale="   31.065">  1  4  2 -1</clus>
<clus scale="   75.269">  2  3  1 -1</clus>
<clus scale="  116.870">  2  6  1 -1</clus>
<clus scale="   31.065">  1  3  2 -1</clus>
</clustering>
</event>
<event>
 6    0  0.7442036E+002  0.8866096E+02  0.7546771E-02  0.1306127E+00
         21   -1    0    0  506  501  0.00000000000E+00  0.00000000000E+00  0.27696484317E+04  0.27696484317E+04  0.00000000000E+00 0.  1.
         21   -1    0    0  503  502 -0.00000000000E+00 -0.00000000000E+00 -0.12705729706E+02  0.12705729706E+02  0.00000000000E+00 0. -1.
         21    1    1    2  503  501  0.18154377530E+02 -0.34350464375E+02  0.19392149179E+03  0.19777532911E+03  0.00000000000E+00 0.  1.
         21    1    1    2  504  502 -0.10259487200E+03 -0.15563190208E+01  0.28399744353E+03  0.30196469631E+03  0.00000000000E+00 0. -1.
         21    1    1    2  505  504  0.79566939511E+02 -0.11345119506E+02  0.14760116985E+04  0.14781982762E+04  0.00000000000E+00 0.  1.
         21    1    1    2  506  505  0.48735549539E+01  0.47251902902E+02  0.80301206820E+03  0.80441585982E+03  0.00000000000E+00 0.  1.
<scales pt_clust_3="38.85275" pt_clust_4="14000.00000" pt_clust_5="88.66096" pt_clust_6="45.42057"></scales>
<clustering>
<clus scale="   38.853">  2  3  1 -1</clus>
<clus scale="   45.421">  1  6  2 -1</clus>
<clus scale="   88.661">  1  5  2 -1</clus>
<clus scale="   45.421">  1  3  2 -1</clus>
</clustering>
</event>
<event>
 6    0  0.7442036E+002  0.5553729E+02  0.7546771E-02  0.1417575E+00
         21   -1    0    0  503  501  0.00000000000E+00  0.00000000000E+00  0.16710348138E+04  0.16710348138E+04  0.00000000000E+00 0.  1.
         21   -1    0    0  505  502 -0.00000000000E+00 -0.00000000000E+00 -0.57795266531E+02  0.57795266531E+02  0.00000000000E+00 0.  1.
         21    1    1    2  503  504 -0.68533085063E+02  0.66984461417E+02  0.12215969225E+04  0.12253500491E+04  0.00000000000E+00 0.  1.
         21    1    1    2  504  502 -0.32624574793E+02 -0.39952996942E+02 -0.16523767203E+02  0.54163084547E+02  0.00000000000E+00 0.  1.
         21    1    1    2  505  506  0.57137800114E+02 -0.10208471029E+02  0.24889757979E+02  0.63154106239E+02  0.00000000000E+00 0.  1.
         21    1    1    2  506  501  0.44019859742E+02 -0.16822993445E+02  0.38327663397E+03  0.38616284040E+03  0.00000000000E+00 0.  1.
<scales pt_clust_3="55.53729" pt_clust_4="51.36852" pt_clust_5="14000.00000" pt_clust_6="47.12495"></scales>
<clustering>
<clus scale="   47.125">  1  6  2 -1</clus>
<clus scale="   51.369">  2  4  1 -1</clus>
<clus scale="   55.537">  1  3  2 -1</clus>
<clus scale="   47.125">  1  3  2 -1</clus>
</clustering>
</event>
<event>
 6    0  0.7442036E+002  0.9368327E+02  0.7546771E-02  0.1294170E+00
         21   -1    0    0  506  501  0.00000000000E+00  0.00000000000E+00  0.81453186907E+03  0.81453186907E+03  0.00000000000E+00 0.  1.
         21   -1    0    0  503  502 -0.00000000000E+00 -0.00000000000E+00 -0.10786821263E+03  0.10786821263E+03  0.00000000000E+00 0.  1.
         21    1    1    2  503  501 -0.89131268268E+02  0.16350888824E+02 -0.19214338656E+02  0.92633284290E+02  0.00000000000E+00 0.  1.
         21    1    1    2  504  502  0.21608421580E+02 -0.24992182870E+02  0.30834680530E+02  0.45191930820E+02  0.00000000000E+00 0.  1.
         21    1    1    2  505  504  0.11374735921E+03  0.71497781145E+01  0.29904076524E+02  0.11782968576E+03  0.00000000000E+00 0.  1.
         21    1    1    2  506  505 -0.46224512518E+02  0.14915159319E+01  0.66513923805E+03  0.66674518083E+03  0.00000000000E+00 0.  1.
<scales pt_clust_3="14000.00000" pt_clust_4="33.03836" pt_clust_5="93.68327" pt_clust_6="46.07032"></scales>
<clustering>
<clus scale="   33.038">  2  4  1 -1</clus>
<clus scale="   46.070">  1  6  2 -1</clus>
<clus scale="   93.683">  1  5  2 -1</clus>
<clus scale="   46.070">  1  3  2 -1</clus>
</clustering>
</event>
<event>
 6    0  0.7442036E+002  0.1041140E+03  0.7546771E-02  0.1271875E+00
         21   -1    0    0  504  501  0.00000000000E+00  0.00000000000E+00  0.47015936585E+03  0.47015936585E+03  0.00000000000E+00 0. -1.
         21   -1    0    0  503  502 -0.00000000000E+00 -0.00000000000E+00 -0.13756677731E+03  0.13756677731E+03  0.00000000000E+00 0. -1.
         21    1    1    2  503  506  0.16213273727E+03  0.12897557064E+02  0.75060247286E+02  0.17912959609E+03  0.00000000000E+00 0. -1.
         21    1    1    2  504  505 -0.70056377115E+02 -0.51642283170E+01 -0.34058329471E+02  0.78067503066E+02  0.00000000000E+00 0. -1.
         21    1    1    2  505  502 -0.42858718163E+01 -0.50698694843E+02  0.92035756147E+01  0.51705243062E+02  0.00000000000E+00 0. -1.
         21    1    1    2  506  501 -0.87790488341E+02  0.42965366096E+02  0.28238709510E+03  0.29882380094E+03  0.00000000000E+00 0. -1.
<scales pt_clust_3="104.11399" pt_clust_4="77.96014" pt_clust_5="50.87953" pt_clust_6="14000.00000"></scales>
<clustering>
<clus scale="   50.880">  2  5  1 -1</clus>
<clus scale="   77.960">  2  4  1 -1</clus>
<clus scale="  104.114">  2  3  1 -1</clus>
<clus scale="  104.114">  1  3  2 -1</clus>
</clustering>
</event>
<event>
 6    0  0.7442036E+002  0.6987425E+02  0.7546771E-02  0.1360521E+00
         21   -1    0    0  505  501  0.00000000000E+00  0.00000000000E+00  0.15595350936E+03  0.15595350936E+03  0.00000000000E+00 0.  1.
         21   -1    0    0  506  502 -0.00000000000E+00 -0.00000000000E+00 -0.81249453716E+03  0.81249453716E+03  0.00000000000E+00 0.  1.
         21    1    1    2  503  504  0.99763663085E+02  0.72289782893E+01 -0.57411508942E+03  0.58276340182E+03  0.00000000000E+00 0.  1.
         21    1    1    2  504  501 -0.49676546047E+02  0.51393453331E+02  0.12832759904E+03  0.14689118064E+03  0.00000000000E+00 0.  1.
         21    1    1    2  505  502 -0.50691195571E+01 -0.65801230646E+02 -0.13741308978E+03  0.15243967716E+03  0.00000000000E+00 0.  1.
         21    1    1    2  506  503 -0.45017997480E+02  0.71787990259E+01 -0.73340447645E+02  0.86353786908E+02  0.00000000000E+00 0.  1.
<scales pt_clust_3="65.50324" pt_clust_4="14000.00000" pt_clust_5="69.87425" pt_clust_6="45.58679"></scales>
<clustering>
<clus scale="   45.587">  2  6  1 -1</clus>
<clus scale="   65.503">  2  3  1 -1</clus>
<clus scale="   69.874">  2  5  1 -1</clus>
<clus scale="   69.874">  1  3  2 -1</clus>
</clustering>
</event>
<event>
 6    0  0.7442036E+002  0.1134403E+03  0.7546771E-02  0.1254328E+00
         21   -1    0    0  505  501  0.00000000000E+00  0.00000000000E+00  0.39767742332E+03  0.39767742332E+03  0.00000000000E+00 0. -1.
         21   -1    0    0  506  502 -0.00000000000E+00 -0.00000000000E+00 -0.27945253824E+04  0.27945253824E+04  0.00000000000E+00 0. -1.
         21    1    1    2  503  504  0.59336599274E+02 -0.18302550759E+01 -0.19057233736E+04  0.19066477804E+04  0.00000000000E+00 0. -1.
         21    1    1    2  504  502  0.45276442864E+02  0.18769761814E+02 -0.86201442003E+03  0.86340669477E+03  0.00000000000E+00 0.  1.
         21    1    1    2  505  503  0.30021310066E+02  0.82270763547E+01  0.20348383544E+03  0.20585100226E+03  0.00000000000E+00 0. -1.
         21    1    1    2  506  501 -0.13463435220E+03 -0.25166583093E+02  0.16740599909E+03  0.21629732830E+03  0.00000000000E+00 0. -1.
<scales pt_clust_3="36.34750" pt_clust_4="36.34750" pt_clust_5="31.12818" pt_clust_6="106.16139"></scales>
<clustering>
<clus scale="   31.128">  1  5  2 -1</clus>
<clus scale="   36.348">  3  4 -1 -1</clus>
<clus scale="  106.161">  1  6  2 -1</clus>
<clus scale="   31.128">  1  3  2 -1</clus>
</clustering>
</event>
<event>
 6    0  0.7442036E+002  0.1207093E+03  0.7546771E-02  0.1241931E+00
         21   -1    0    0  505  501  0.00000000000E+00  0.00000000000E+00  0.17806645215E+04  0.17806645215E+04  0.00000000000E+00 0. -1.
         21   -1    0    0  506  502 -0.00000000000E+00 -0.00000000000E+00 -0.27785825848E+02  0.27785825848E+02  0.00000000000E+00 0.  1.
         21    1    1    2  503  504  0.10610438108E+03 -0.37973242643E+01  0.14426547782E+03  0.17912310695E+03  0.00000000000E+00 0.  1.
         21    1    1    2  504  501 -0.68317893588E+02  0.55184547870E+02  0.10069129078E+04  0.10107355108E+04  0.00000000000E+00 0. -1.
         21    1    1    2  505  502 -0.76958255678E+02  0.18202417308E+01  0.34982466909E+03  0.35819434041E+03  0.00000000000E+00 0. -1.
         21    1    1    2  506  503  0.39171768190E+02 -0.53207465337E+02  0.25187564095E+03  0.26039738918E+03  0.00000000000E+00 0.  1.
<scales pt_clust_3="14000.00000" pt_clust_4="120.70932" pt_clust_5="70.40629" pt_clust_6="66.07164"></scales>
<clustering>
<clus scale="   66.072">  2  6  1 -1</clus>
<clus scale="   70.406">  1  5  2 -1</clus>
<clus scale="  120.709">  1  4  2 -1</clus>
<clus scale="   70.406">  1  3  2 -1</clus>
</clustering>
</event>
<event>
 6    0  0.7442036E+002  0.1050589E+03  0.7546771E-02  0.1270004E+00
         21   -1    0    0  505  501  0.00000000000E+00  0.00000000000E+00  0.18613929314E+03  0.18613929314E+03  0.00000000000E+00 0. -1.
         21   -1    0    0  506  502 -0.00000000000E+00 -0.00000000000E+00 -0.19889905258E+03  0.19889905258E+03  0.00000000000E+00 0.  1.
         21    1    1    2  503  501 -0.18142222233E+02 -0.74196486739E+02 -0.28202642890E+02  0.81422650030E+02  0.00000000000E+00 0.  1.
         21    1    1    2  504  503  0.92587320965E+01  0.50629787945E+02 -0.47630348203E+02  0.70126668375E+02  0.00000000000E+00 0. -1.
         21    1    1    2  505  502 -0.51156520191E+02 -0.21766802518E+02  0.12451005700E+03  0.13635812240E+03  0.00000000000E+00 0. -1.
         21    1    1    2  506  504  0.60040010327E+02  0.45333501313E+02 -0.61436825350E+02  0.97130904919E+02  0.00000000000E+00 0.  1.
<scales pt_clust_3="94.70588" pt_clust_4="37.61542" pt_clust_5="55.59481" pt_clust_6="37.61542"></scales>
<clustering>
<clus scale="   37.615">  4  6 -1 -1</clus>
<clus scale="   55.595">  1  5  2 -1</clus>
<clus scale="   94.706">  1  3  2 -1</clus>
<clus scale="   55.595">  1  3  2 -1</clus>
</clustering>
</event>
<event>
 6    0  0.7442036E+002  0.1611329E+03  0.7546771E-02  0.1187424E+00
         21   -1    0    0  503  501  0.00000000000E+00  0.00000000000E+00  0.19785673871E+03  0.19785673871E+03  0.00000000000E+00 0. -1.
         21   -1    0    0  504  502 -0.00000000000E+00 -0.00000000000E+00 -0.22355623624E+04  0.22355623624E+04  0.00000000000E+00 0.  1.
         21    1    1    2  503  505 -0.27281244821E+02  0.89699866136E+02 -0.95584750847E+03  0.96043468895E+03  0.00000000000E+00 0.  1.
         21    1    1    2  504  506  0.76591215900E+02 -0.17249195770E+03  0.52135451997E+01  0.18880378936E+03  0.00000000000E+00 0. -1.
         21    1    1    2  505  502 -0.38888945368E+02  0.42263522914E+02 -0.11804541660E+04  0.11818504954E+04  0.00000000000E+00 0.  1.
         21    1    1    2  506  501 -0.10421025711E+02  0.40528568651E+02  0.93382505502E+02  0.10233012747E+03  0.00000000000E+00 0. -1.
<scales pt_clust_3="48.16131" pt_clust_4="148.84781" pt_clust_5="48.16131" pt_clust_6="41.84690"></scales>
<clustering>
<clus scale="   41.847">  1  6  2 -1</clus>
<clus scale="   48.161">  3  5 -1 -1</clus>
<clus scale="  148.848">  1  4  2 -1</clus>
<clus scale="   41.847">  1  3  2 -1</clus>
</clustering>
</event>
<event>
 6    0  0.7442036E+002  0.8839068E+02  0.7546771E-02  0.1306796E+00
         21   -1    0    0  503  501  0.00000000000E+00  0.00000000000E+00  0.38114755227E+03  0.38114755227E+03  0.00000000000E+00 0. -1.
         21   -1    0    0  505  502 -0.00000000000E+00 -0.00000000000E+00 -0.14280995011E+04  0.14280995011E+04  0.00000000000E+00 0. -1.
         21    1    1    2  503  504  0.14280615010E+02 -0.38339620028E+02  0.36647948869E+03  0.36875612274E+03  0.00000000000E+00 0. -1.
         21    1    1    2  504  506 -0.74284734398E+02  0.11132268478E+03 -0.42885077633E+03  0.44924820564E+03  0.00000000000E+00 0. -1.
         21    1    1    2  505  501  0.49411849861E+02 -0.14717259254E+02 -0.58922236366E+03  0.59147368704E+03  0.00000000000E+00 0. -1.
         21    1    1    2  506  502  0.10592269528E+02 -0.58265805502E+02 -0.39535829753E+03  0.39976903793E+03  0.00000000000E+00 0. -1.
<scales pt_clust_3="40.91286" pt_clust_4="88.39068" pt_clust_5="53.67515" pt_clust_6="14000.00000"></scales>
<clustering>
<clus scale="   40.913">  1  3  2 -1</clus>
<clus scale="   53.675">  2  5  1 -1</clus>
<clus scale="   88.391">  1  4  2 -1</clus>
<clus scale="   40.913">  1  3  2 -1</clus>
</clustering>
</event>
<event>
 6    0  0.7442036E+002  0.1280078E+03  0.7546771E-02  0.1230442E+00
         21   -1    0    0  503  501  0.00000000000E+00  0.00000000000E+00  0.18747434166E+03  0.18747434166E+03  0.00000000000E+00 0.  1.
         21   -1    0    0  505  502 -0.00000000000E+00 -0.00000000000E+00 -0.32180452352E+03  0.32180452352E+03  0.00000000000E+00 0.  1.
         21    1    1    2  503  506 -0.45228038196E+02  0.33070141289E+01  0.10757297151E+03  0.11674097816E+03  0.00000000000E+00 0.  1.
         21    1    1    2  504  501  0.14412756679E+02  0.32170686567E+02 -0.30505336988E+02  0.46618196169E+02  0.00000000000E+00 0. -1.
         21    1    1    2  505  504  0.20549520329E+02  0.82511275718E+02 -0.21099455755E+03  0.22748427796E+03  0.00000000000E+00 0.  1.
         21    1    1    2  506  502  0.10265761188E+02 -0.11798897641E+03 -0.40325883377E+00  0.11843541289E+03  0.00000000000E+00 0.  1.
<scales pt_clust_3="45.34878" pt_clust_4="31.77658" pt_clust_5="31.77658" pt_clust_6="118.11152"></scales>
<clustering>
<clus scale="   31.777">  4  5 -1 -1</clus>
<clus scale="   45.349">  1  3  2 -1</clus>
<clus scale="  118.112">  1  6  2 -1</clus>
<clus scale="   45.349">  1  3  2 -1</clus>
</clustering>
</event>
<event>
 6    0  0.7442036E+002  0.8809825E+02  0.7546771E-02  0.1307524E+00
         21   -1    0    0  504  501  0.00000000000E+00  0.00000000000E+00  0.38006209486E+03  0.38006209486E+03  0.00000000000E+00 0. -1.
         21   -1    0    0  503  502 -0.00000000000E+00 -0.00000000000E+00 -0.90046550425E+02  0.90046550425E+02  0.00000000000E+00 0. -1.
         21    1    1    2  503  505 -0.26833489931E+02  0.18581649082E+02  0.12520851187E+02  0.34958340620E+02  0.00000000000E+00 0.  1.
         21    1    1    2  504  502 -0.60458302984E+02  0.65898201221E+02  0.27186959330E+03  0.28620072517E+03  0.00000000000E+00 0. -1.
         21    1    1    2  505  506  0.49056403008E+02 -0.15085908451E+02  0.37483257192E+02  0.63553991846E+02  0.00000000000E+00 0. -1.
         21    1    1    2  506  501  0.38235389907E+02 -0.69393941851E+02 -0.31858157247E+02  0.85395587650E+02  0.00000000000E+00 0. -1.
<scales pt_clust_3="32.63915" pt_clust_4="14000.00000" pt_clust_5="46.20799" pt_clust_6="88.09825"></scales>
<clustering>
<clus scale="   32.639">  2  3  1 -1</clus>
<clus scale="   46.208">  2  5  1 -1</clus>
<clus scale="   88.098">  2  6  1 -1</clus>
<clus scale="   88.098">  1  3  2 -1</clus>
</clustering>
</event>
<event>
 6    0  0.7442036E+002  0.2127165E+03  0.7546771E-02  0.1139433E+00
         21   -1    0    0  505  501  0.00000000000E+00  0.00000000000E+00  0.91650997296E+02  0.91650997296E+02  0.00000000000E+00 0.  1.
         21   -1    0    0  503  502 -0.00000000000E+00 -0.00000000000E+00 -0.98473519794E+03  0.98473519794E+03  0.00000000000E+00 0.  1.
         21    1    1    2  503  501  0.16918546417E+03  0.95717540000E+02 -0.75812181689E+02  0.20864576593E+03  0.00000000000E+00 0.  1.
         21    1    1    2  504  502 -0.32291921887E+02 -0.17413764381E+02 -0.59487730882E+02  0.69891326605E+02  0.00000000000E+00 0. -1.
         21    1    1    2  505  506 -0.24110126487E+02  0.41915111681E+02 -0.44331251390E+02  0.65600568871E+02  0.00000000000E+00 0.  1.
         21    1    1    2  506  504 -0.11278341579E+03 -0.12021888730E+03 -0.71345303668E+03  0.73224853383E+03  0.00000000000E+00 0.  1.
<scales pt_clust_3="198.10856" pt_clust_4="36.54705" pt_clust_5="48.35468" pt_clust_6="36.54705"></scales>
<clustering>
<clus scale="   36.547">  4  6 -1 -1</clus>
<clus scale="   48.355">  1  5  2 -1</clus>
<clus scale="  198.109">  1  3  2 -1</clus>
<clus scale="   48.355">  1  3  2 -1</clus>
</clustering>
</event>
<event>
 6    0  0.7442036E+002  0.7342446E+02  0.7546771E-02  0.1348821E+00
         21   -1    0    0  504  501  0.00000000000E+00  0.00000000000E+00  0.90059393639E+03  0.90059393639E+03  0.00000000000E+00 0.  1.
         21   -1    0    0  505  502 -0.00000000000E+00 -0.00000000000E+00 -0.26831144030E+04  0.26831144030E+04  0.00000000000E+00 0.  1.
         21    1    1    2  503  502 -0.55304818576E+02 -0.56457619128E+02 -0.21041166165E+04  0.21056003470E+04  0.00000000000E+00 0.  1.
         21    1    1    2  504  503 -0.45056150751E+02  0.69468092784E+02  0.53949026677E+03  0.54580731085E+03  0.00000000000E+00 0.  1.
         21    1    1    2  505  506  0.50011419661E+02 -0.16836630424E+02 -0.57209253503E+03  0.57452109000E+03  0.00000000000E+00 0.  1.
         21    1    1    2  506  501  0.50349549667E+02  0.38261567673E+01  0.35419841817E+03  0.35777959146E+03  0.00000000000E+00 0.  1.
<scales pt_clust_3="14000.00000" pt_clust_4="73.42446" pt_clust_5="52.87313" pt_clust_6="50.49472"></scales>
<clustering>
<clus scale="   50.495">  1  6  2 -1</clus>
<clus scale="   52.873">  2  5  1 -1</clus>
<clus scale="   73.424">  1  4  2 -1</clus>
<clus scale="   50.495">  1  3  2 -1</clus>
</clustering>
</event>
<event>
 6    0  0.7442036E+002  0.1242466E+03  0.7546771E-02  0.1236251E+00
         21   -1    0    0  506  501  0.00000000000E+00  0.00000000000E+00  0.42171485141E+03  0.42171485141E+03  0.00000000000E+00 0.  1.
         21   -1    0    0  503  502 -0.00000000000E+00 -0.00000000000E+00 -0.31142123555E+03  0.31142123555E+03  0.00000000000E+00 0.  1.
         21    1    1    2  503  501  0.43981930653E+02 -0.26565160062E+02 -0.19545315526E+02  0.54973969404E+02  0.00000000000E+00 0.  1.
         21    1    1    2  504  505 -0.41831375772E+02  0.12313748366E+03 -0.18077311207E+03  0.22269176439E+03  0.00000000000E+00 0.  1.
         21    1    1    2  505  502  0.26804770740E+02  0.24949239992E+02 -0.56699461737E+02  0.67496587113E+02  0.00000000000E+00 0.  1.
         21    1    1    2  506  504 -0.28955325622E+02 -0.12152156359E+03  0.36731150519E+03  0.38797376606E+03  0.00000000000E+00 0.  1.
<scales pt_clust_3="53.14447" pt_clust_4="124.24664" pt_clust_5="36.61912" pt_clust_6="14000.00000"></scales>
<clustering>
<clus scale="   36.619">  2  5  1 -1</clus>
<clus scale="   53.144">  2  3  1 -1</clus>
<clus scale="  124.247">  2  4  1 -1</clus>
<clus scale="  124.247">  1  3  2 -1</clus>
</clustering>
</event>
<event>
 6    0  0.7442036E+002  0.1224798E+03  0.7546771E-02  0.1239061E+00
         21   -1    0    0  506  501  0.00000000000E+00  0.00000000000E+00  0.52267774118E+03  0.52267774118E+03  0.00000000000E+00 0.  1.
         21   -1    0    0  505  502 -0.00000000000E+00 -0.00000000000E+00 -0.57485197060E+03  0.57485197060E+03  0.00000000000E+00 0. -1.
         21    1    1    2  503  502  0.11483727737E+03  0.10908447524E+03  0.32068026347E+03  0.35766304589E+03  0.00000000000E+00 0.  1.
         21    1    1    2  504  501  0.42045000947E+01 -0.29887681459E+02  0.15524332671E+03  0.15815006106E+03  0.00000000000E+00 0.  1.
         21    1    1    2  505  504 -0.82228488544E+02 -0.89794164712E+02 -0.52956364114E+03  0.54338031466E+03  0.00000000000E+00 0. -1.
         21    1    1    2  506  503 -0.36813288922E+02  0.10597370926E+02  0.14658215303E+01  0.38336290177E+02  0.00000000000E+00 0.  1.
<scales pt_clust_3="14000.00000" pt_clust_4="30.18197" pt_clust_5="122.47976" pt_clust_6="37.66878"></scales>
<clustering>
<clus scale="   30.182">  1  4  2 -1</clus>
<clus scale="   37.669">  1  6  2 -1</clus>
<clus scale="  122.480">  2  5  1 -1</clus>
<clus scale="   30.182">  1  3  2 -1</clus>
</clustering>
</event>
<event>
 6    0  0.7442036E+002  0.9263591E+02  0.7546771E-02  0.1296591E+00
         21   -1    0    0  503  501  0.00000000000E+00  0.00000000000E+00  0.15937017812E+04  0.15937017812E+04  0.00000000000E+00 0. -1.
         21   -1    0    0  504  502 -0.00000000000E+00 -0.00000000000E+00 -0.16850705626E+03  0.16850705626E+03  0.00000000000E+00 0.  1.
         21    1    1    2  503  506 -0.82680050666E+02  0.38379241597E+02  0.14595779962E+04  0.14624215821E+04  0.00000000000E+00 0. -1.
         21    1    1    2  504  501  0.15156461747E+03 -0.20105990275E+02  0.62251309826E+02  0.16507970708E+03  0.00000000000E+00 0.  1.
         21    1    1    2  505  502 -0.39535661580E+02  0.19051865910E+02 -0.61891001454E+02  0.75871853755E+02  0.00000000000E+00 0.  1.
         21    1    1    2  506  505 -0.29348905223E+02 -0.37325117232E+02 -0.34743579652E+02  0.58835694448E+02  0.00000000000E+00 0.  1.
<scales pt_clust_3="92.63591" pt_clust_4="14000.00000" pt_clust_5="43.88670" pt_clust_6="55.68943"></scales>
<clustering>
<clus scale="   43.887">  2  5  1 -1</clus>
<clus scale="   55.689">  2  6  1 -1</clus>
<clus scale="   92.636">  1  3  2 -1</clus>
<clus scale="   92.636">  1  3  2 -1</clus>
</clustering>
</event>
<event>
 6    0  0.7442036E+002  0.1103737E+03  0.7546771E-02  0.1259879E+00
         21   -1    0    0  503  501  0.00000000000E+00  0.00000000000E+00  0.70157110599E+03  0.70157110599E+03  0.00000000000E+00 0. -1.
         21   -1    0    0  506  502 -0.00000000000E+00 -0.00000000000E+00 -0.25514880964E+03  0.25514880964E+03  0.00000000000E+00 0. -1.
         21    1    1    2  503  505  0.35638055899E+02 -0.88332071817E+01  0.26097595804E+02  0.45046432535E+02  0.00000000000E+00 0. -1.
         21    1    1    2  504  502  0.33416645334E+02 -0.18649935124E+02 -0.42824507677E+02  0.57431966041E+02  0.00000000000E+00 0. -1.
         21    1    1    2  505  504  0.41737074667E+02 -0.47671840382E+02 -0.18336920635E+03  0.19400735451E+03  0.00000000000E+00 0. -1.
         21    1    1    2  506  501 -0.11079177590E+03  0.75154982688E+02  0.64651841456E+03  0.66023416255E+03  0.00000000000E+00 0. -1.
<scales pt_clust_3="36.71643" pt_clust_4="34.85531" pt_clust_5="34.85531" pt_clust_6="100.85076"></scales>
<clustering>
<clus scale="   34.855">  4  5 -1 -1</clus>
<clus scale="   36.716">  1  3  2 -1</clus>
<clus scale="  100.851">  1  6  2 -1</clus>
<clus scale="   36.716">  1  3  2 -1</clus>
</clustering>
</event>
<event>
 6    0  0.7442036E+002  0.3853898E+03  0.7546771E-02  0.1048959E+00
         21   -1    0    0  503  501  0.00000000000E+00  0.00000000000E+00  0.96068500339E+03  0.96068500339E+03  0.00000000000E+00 0. -1.
         21   -1    0    0  504  502 -0.00000000000E+00 -0.00000000000E+00 -0.61749204336E+03  0.61749204336E+03  0.00000000000E+00 0. -1.
         21    1    1    2  503  502 -0.27716075883E+03  0.27519565149E+03  0.78417309183E+03  0.87605831472E+03  0.00000000000E+00 0. -1.
         21    1    1    2  504  506  0.95785567978E+02 -0.62715038530E+02 -0.37697505536E+03  0.39397746567E+03  0.00000000000E+00 0. -1.
         21    1    1    2  505  501  0.13061986097E+03 -0.97216988536E+02  0.80795585476E+01  0.16302751365E+03  0.00000000000E+00 0.  1.
         21    1    1    2  506  505  0.50755329881E+02 -0.11526362442E+03 -0.72084634991E+02  0.14511375272E+03  0.00000000000E+00 0.  1.
<scales pt_clust_3="368.39632" pt_clust_4="114.49040" pt_clust_5="99.53812" pt_clust_6="99.53812"></scales>
<clustering>
<clus scale="   99.538">  5  6 -1 -1</clus>
<clus scale="  114.490">  2  4  1 -1</clus>
<clus scale="  368.396">  1  3  2 -1</clus>
<clus scale="  368.396">  1  3  2 -1</clus>
</clustering>
</event>
<event>
 6    0  0.7442036E+002  0.2169525E+03  0.7546771E-02  0.1136176E+00
         21   -1    0    0  503  501  0.00000000000E+00  0.00000000000E+00  0.95933030746E+03  0.95933030746E+03  0.00000000000E+00 0. -1.
         21   -1    0    0  504  502 -0.00000000000E+00 -0.00000000000E+00 -0.13673367338E+03  0.13673367338E+03  0.00000000000E+00 0.  1.
         21    1    1    2  503  506  0.24265699288E+02  0.26554584250E+02  0.40446045529E+03  0.40605692950E+03  0.00000000000E+00 0. -1.
         21    1    1    2  504  501  0.30755091694E+02 -0.14129598868E+02 -0.22419931547E+02  0.40597716190E+02  0.00000000000E+00 0.  1.
         21    1    1    2  505  502  0.11639399490E+03 -0.15924456710E+03  0.58622703440E+02  0.20577418584E+03  0.00000000000E+00 0.  1.
         21    1    1    2  506  505 -0.17141478588E+03  0.14681958172E+03  0.38193340690E+03  0.44363514931E+03  0.00000000000E+00 0. -1.
<scales pt_clust_3="36.05088" pt_clust_4="33.84555" pt_clust_5="216.95247" pt_clust_6="14000.00000"></scales>
<clustering>
<clus scale="   33.846">  2  4  1 -1</clus>
<clus scale="   36.051">  1  3  2 -1</clus>
<clus scale="  216.952">  2  5  1 -1</clus>
<clus scale="   36.051">  1  3  2 -1</clus>
</clustering>
</event>
<event>
 6    0  0.7442036E+002  0.1569442E+03  0.7546771E-02  0.1192191E+00
         21   -1    0    0  505  501  0.00000000000E+00  0.00000000000E+00  0.62101475839E+03  0.62101475839E+03  0.00000000000E+00 0. -1.
         21   -1    0    0  506  502 -0.00000000000E+00 -0.00000000000E+00 -0.38714767313E+03  0.38714767313E+03  0.00000000000E+00 0.  1.
         21    1    1    2  503  504 -0.87273834438E+02 -0.56097463287E+02  0.36495005310E+03  0.37941031723E+03  0.00000000000E+00 0. -1.
         21    1    1    2  504  501 -0.49206767256E+02  0.21324565299E+02  0.19576973017E+03  0.20298233983E+03  0.00000000000E+00 0. -1.
         21    1    1    2  505  502  0.30884172644E+02 -0.50832929023E+02  0.11990140123E+02  0.60676043486E+02  0.00000000000E+00 0.  1.
         21    1    1    2  506  503  0.10559642905E+03  0.85605827011E+02 -0.33884283813E+03  0.36509373098E+03  0.00000000000E+00 0.  1.
<scales pt_clust_3="50.52463" pt_clust_4="50.52463" pt_clust_5="59.47957" pt_clust_6="140.33196"></scales>
<clustering>
<clus scale="   50.525">  3  4 -1 -1</clus>
<clus scale="   59.480">  2  5  1 -1</clus>
<clus scale="  140.332">  2  6  1 -1</clus>
<clus scale="  156.944">  1  3  2 -1</clus>
</clustering>
</event>
<event>
 6    0  0.7442036E+002  0.1375272E+03  0.7546771E-02  0.1216696E+00
         21   -1    0    0  504  501  0.00000000000E+00  0.00000000000E+00  0.10243138261E+04  0.10243138261E+04  0.00000000000E+00 0.  1.
         21   -1    0    0  506  502 -0.00000000000E+00 -0.00000000000E+00 -0.52289506947E+03  0.52289506947E+03  0.00000000000E+00 0. -1.
         21    1    1    2  503  501 -0.16221071273E+01  0.38238337618E+02  0.84771050606E+03  0.84857404143E+03  0.00000000000E+00 0.  1.
         21    1    1    2  504  505 -0.99216843627E+01 -0.78287964172E+02  0.10412673036E+03  0.13065152556E+03  0.00000000000E+00 0.  1.
         21    1    1    2  505  502 -0.25762453689E+02 -0.10098138211E+03 -0.10778304403E+02  0.10477172996E+03  0.00000000000E+00 0.  1.
         21    1    1    2  506  503  0.37306245179E+02  0.14103100867E+03 -0.43964017536E+03  0.46321159865E+03  0.00000000000E+00 0. -1.
<scales pt_clust_3="38.27273" pt_clust_4="53.94246" pt_clust_5="14000.00000" pt_clust_6="137.52721"></scales>
<clustering>
<clus scale="   38.273">  1  3  2 -1</clus>
<clus scale="   53.942">  1  4  2 -1</clus>
<clus scale="  137.527">  2  6  1 -1</clus>
<clus scale="   38.273">  1  3  2 -1</clus>
</clustering>
</event>
<event>
 6    0  0.1882569E+003  0.1145403E+03  0.7546771E-02  0.1252386E+00
         21   -1    0    0  503  501  0.00000000000E+00  0.00000000000E+00  0.46806194514E+03  0.46806194514E+03  0.00000000000E+00 0.  1.
         21   -1    0    0  505  502 -0.00000000000E+00 -0.00000000000E+00 -0.39756150961E+03  0.39756150961E+03  0.00000000000E+00 0. -1.
         21    1    1    2  503  502  0.11104525580E+03  0.27831817347E+01 -0.34067051702E+03  0.35832275410E+03  0.00000000000E+00 0. -1.
         21    1    1    2  504  501 -0.81174916581E+01 -0.38261831788E+02  0.39006213501E+03  0.39201827841E+03  0.00000000000E+00 0.  1.
         21    1    1    2  505  506 -0.48402651603E+02  0.25946165397E+02  0.23825239470E+02  0.59863696986E+02  0.00000000000E+00 0.  1.
         21    1    1    2  506  504 -0.54525112537E+02  0.95324846556E+01 -0.27164219238E+01  0.55418725256E+02  0.00000000000E+00 0.  1.
<scales pt_clust_3="110.12669" pt_clust_4="39.11344" pt_clust_5="31.36597" pt_clust_6="31.36597"></scales>
<clustering>
<clus scale="   31.366">  5  6 -1 -1</clus>
<clus scale="   39.113">  1  4  2 -1</clus>
<clus scale="  110.127">  2  3  1 -1</clus>
<clus scale="   39.113">  1  3  2 -1</clus>
</clustering>
</event>
<event>
 6    0  0.7442036E+002  0.1268596E+03  0.7546771E-02  0.1232191E+00
         21   -1    0    0  502  501  0.00000000000E+00  0.00000000000E+00  0.16475248780E+03  0.16475248780E+03  0.00000000000E+00 0.  1.
         21   -1    0    0  503  502 -0.00000000000E+00 -0.00000000000E+00 -0.19718955464E+03  0.19718955464E+03  0.00000000000E+00 0. -1.
         21    1    1    2  503  506  0.71206817153E+01  0.44502702135E+02 -0.19016423490E+02  0.48916448846E+02  0.00000000000E+00 0. -1.
         21    1    1    2  504  501 -0.64677764755E+02 -0.31908331874E+02  0.34623470477E+02  0.80000872523E+02  0.00000000000E+00 0.  1.
         21    1    1    2  505  504 -0.53250039926E+02  0.95533315800E+01  0.57110917876E+02  0.78666955178E+02  0.00000000000E+00 0.  1.
         21    1    1    2  506  505  0.11080712297E+03 -0.22147701841E+02 -0.10515503171E+03  0.15435776589E+03  0.00000000000E+00 0.  1.
<scales pt_clust_3="45.06878" pt_clust_4="42.01784" pt_clust_5="42.01784" pt_clust_6="117.21685"></scales>
<clustering>
<clus scale="   42.018">  4  5 -1 -1</clus>
<clus scale="   45.069">  2  3  1 -1</clus>
<clus scale="  117.217">  2  6  1 -1</clus>
<clus scale="  126.860">  1  3  2 -1</clus>
</clustering>
</event>
<event>
 6    0  0.7442036E+002  0.1388418E+03  0.7546771E-02  0.1214896E+00
         21   -1    0    0  506  501  0.00000000000E+00  0.00000000000E+00  0.33981553326E+02  0.33981553326E+02  0.00000000000E+00 0.  1.
         21   -1    0    0  504  502 -0.00000000000E+00 -0.00000000000E+00 -0.15283342443E+04  0.15283342443E+04  0.00000000000E+00 0.  1.
         21    1    1    2  503  501  0.10539977007E+01  0.55160897628E+02 -0.26499516897E+03  0.27067743740E+03  0.00000000000E+00 0.  1.
         21    1    1    2  504  503  0.63415983661E+02  0.57651788802E+02 -0.36479861745E+03  0.37473103291E+03  0.00000000000E+00 0.  1.
         21    1    1    2  505  502 -0.16332927534E+03 -0.15324877399E+02 -0.52591184049E+03  0.55090341078E+03  0.00000000000E+00 0.  1.
         21    1    1    2  506  505  0.98859293976E+02 -0.97487809031E+02 -0.33864706408E+03  0.36600391654E+03  0.00000000000E+00 0.  1.
<scales pt_clust_3="44.15582" pt_clust_4="44.15582" pt_clust_5="127.18904" pt_clust_6="138.84175"></scales>
<clustering>
<clus scale="   44.156">  3  4 -1 -1</clus>
<clus scale="  138.842">  1  6  2 -1</clus>
<clus scale="  127.189">  1  5  2 -1</clus>
<clus scale="  138.842">  1  3  2 -1</clus>
</clustering>
</event>
<event>
 6    0  0.7442036E+002  0.9826020E+02  0.7546771E-02  0.1283998E+00
         21   -1    0    0  503  501  0.00000000000E+00  0.00000000000E+00  0.10480779047E+03  0.10480779047E+03  0.00000000000E+00 0. -1.
         21   -1    0    0  506  502 -0.00000000000E+00 -0.00000000000E+00 -0.64931063334E+03  0.64931063334E+03  0.00000000000E+00 0. -1.
         21    1    1    2  503  504 -0.50047494837E+02  0.51199165873E+02  0.61310011383E+02  0.94260404314E+02  0.00000000000E+00 0. -1.
         21    1    1    2  504  502  0.91744639902E+02  0.35731951842E+02 -0.87700202724E+02  0.13185286076E+03  0.00000000000E+00 0. -1.
         21    1    1    2  505  501 -0.73879080592E+01 -0.47360199488E+02 -0.29185575464E+03  0.29576570322E+03  0.00000000000E+00 0.  1.
         21    1    1    2  506  505 -0.34309237006E+02 -0.39570918227E+02 -0.22625689688E+03  0.23223945552E+03  0.00000000000E+00 0. -1.
<scales pt_clust_3="71.59683" pt_clust_4="92.74702" pt_clust_5="31.04469" pt_clust_6="31.04469"></scales>
<clustering>
<clus scale="   31.045">  5  6 -1 -1</clus>
<clus scale="   71.597">  1  3  2 -1</clus>
<clus scale="   92.747">  1  4  2 -1</clus>
<clus scale="   71.597">  1  3  2 -1</clus>
</clustering>
</event>
<event>
 6    0  0.7442036E+002  0.1154428E+03  0.7546771E-02  0.1250810E+00
         21   -1    0    0  506  501  0.00000000000E+00  0.00000000000E+00  0.21362537969E+03  0.21362537969E+03  0.00000000000E+00 0.  1.
         21   -1    0    0  504  502 -0.00000000000E+00 -0.00000000000E+00 -0.11172465929E+04  0.11172465929E+04  0.00000000000E+00 0.  1.
         21    1    1    2  503  505 -0.29930686033E+01 -0.45157418946E+02 -0.45345004011E+03  0.45570285255E+03  0.00000000000E+00 0.  1.
         21    1    1    2  504  501 -0.91472023180E+02  0.83541383441E+02  0.17109611385E+03  0.21123487862E+03  0.00000000000E+00 0.  1.
         21    1    1    2  505  502  0.36906925694E+02  0.19366791240E+02 -0.56099146475E+03  0.56253765856E+03  0.00000000000E+00 0.  1.
         21    1    1    2  506  503  0.57558166089E+02 -0.57750755736E+02 -0.60275822161E+02  0.10139658283E+03  0.00000000000E+00 0.  1.
<scales pt_clust_3="39.99199" pt_clust_4="14000.00000" pt_clust_5="41.67966" pt_clust_6="115.44282"></scales>
<clustering>
<clus scale="   41.680">  2  5  1 -1</clus>
<clus scale="   39.992">  2  3  1 -1</clus>
<clus scale="  115.443">  2  6  1 -1</clus>
<clus scale="  115.443">  1  3  2 -1</clus>
</clustering>
</event>
<event>
 6    0  0.7442036E+002  0.8568068E+02  0.7546771E-02  0.1313662E+00
         21   -1    0    0  504  501  0.00000000000E+00  0.00000000000E+00  0.17632536901E+02  0.17632536901E+02  0.00000000000E+00 0. -1.
         21   -1    0    0  505  502 -0.00000000000E+00 -0.00000000000E+00 -0.33537544216E+04  0.33537544216E+04  0.00000000000E+00 0. -1.
         21    1    1    2  503  506  0.41771419997E+02 -0.96224035725E+02 -0.29302508273E+03  0.31123562728E+03  0.00000000000E+00 0. -1.
         21    1    1    2  504  503 -0.40364218773E+02  0.26423304933E+01 -0.56653563725E+02  0.69612343376E+02  0.00000000000E+00 0. -1.
         21    1    1    2  505  501 -0.60694597110E+02  0.39589298051E+02 -0.17488056702E+04  0.17503063786E+04  0.00000000000E+00 0. -1.
         21    1    1    2  506  502  0.59287395885E+02  0.53992407181E+02 -0.12376375680E+04  0.12402326092E+04  0.00000000000E+00 0. -1.
<scales pt_clust_3="85.68068" pt_clust_4="40.45061" pt_clust_5="74.84833" pt_clust_6="14000.00000"></scales>
<clustering>
<clus scale="   40.451">  1  4  2 -1</clus>
<clus scale="   74.848">  2  5  1 -1</clus>
<clus scale="   85.681">  1  3  2 -1</clus>
<clus scale="   40.451">  1  3  2 -1</clus>
</clustering>
</event>
<event>
 6    0  0.7442036E+002  0.1082428E+03  0.7546771E-02  0.1263859E+00
         21   -1    0    0  503  501  0.00000000000E+00  0.00000000000E+00  0.16670136687E+03  0.16670136687E+03  0.00000000000E+00 0. -1.
         21   -1    0    0  504  502 -0.00000000000E+00 -0.00000000000E+00 -0.22977747186E+03  0.22977747186E+03  0.00000000000E+00 0.  1.
         21    1    1    2  503  505 -0.33115095228E+02 -0.23258133274E+02  0.71966535312E+02  0.82563505862E+02  0.00000000000E+00 0. -1.
         21    1    1    2  504  506  0.10314675572E+03 -0.66375149993E+02 -0.33019205046E+02  0.12702433489E+03  0.00000000000E+00 0. -1.
         21    1    1    2  505  502 -0.41741566420E+02  0.99886431216E+02 -0.11143547408E+03  0.15536255145E+03  0.00000000000E+00 0.  1.
         21    1    1    2  506  501 -0.28290094072E+02 -0.10253147949E+02  0.94120388309E+01  0.31528446528E+02  0.00000000000E+00 0.  1.
<scales pt_clust_3="55.96727" pt_clust_4="108.24282" pt_clust_5="14000.00000" pt_clust_6="30.09080"></scales>
<clustering>
<clus scale="   30.091">  1  6  2 -1</clus>
<clus scale="   55.967">  1  3  2 -1</clus>
<clus scale="  108.243">  1  4  2 -1</clus>
<clus scale="   30.091">  1  3  2 -1</clus>
</clustering>
</event>
<event>
 6    0  0.7442036E+002  0.1086144E+03  0.7546771E-02  0.1263157E+00
         21   -1    0    0  503  501  0.00000000000E+00  0.00000000000E+00  0.32690681959E+04  0.32690681959E+04  0.00000000000E+00 0.  1.
         21   -1    0    0  505  502 -0.00000000000E+00 -0.00000000000E+00 -0.61141243392E+02  0.61141243392E+02  0.00000000000E+00 0. -1.
         21    1    1    2  503  502 -0.38716672551E+02 -0.18645933734E+02  0.89223517562E+01  0.43889177927E+02  0.00000000000E+00 0. -1.
         21    1    1    2  504  506 -0.32499508673E+02 -0.76826503243E+02  0.75036683236E+03  0.75498934613E+03  0.00000000000E+00 0.  1.
         21    1    1    2  505  504 -0.41455348649E+02  0.18552830640E+02 -0.26402119767E+02  0.52534040246E+02  0.00000000000E+00 0. -1.
         21    1    1    2  506  501  0.11267152987E+03  0.76919606337E+02  0.24750398881E+04  0.24787968750E+04  0.00000000000E+00 0.  1.
<scales pt_clust_3="42.97268" pt_clust_4="14000.00000" pt_clust_5="76.47528" pt_clust_6="108.61442"></scales>
<clustering>
<clus scale="   42.973">  2  3  1 -1</clus>
<clus scale="   76.475">  2  5  1 -1</clus>
<clus scale="  108.614">  1  6  2 -1</clus>
<clus scale="  108.614">  1  3  2 -1</clus>
</clustering>
</event>
<event>
 6    0  0.7442036E+002  0.1350271E+03  0.7546771E-02  0.1220181E+00
         21   -1    0    0  505  501  0.00000000000E+00  0.00000000000E+00  0.17067635159E+03  0.17067635159E+03  0.00000000000E+00 0.  1.
         21   -1    0    0  506  502 -0.00000000000E+00 -0.00000000000E+00 -0.11167002241E+04  0.11167002241E+04  0.00000000000E+00 0.  1.
         21    1    1    2  503  504 -0.92431033540E+02  0.12110597420E+03 -0.64253508336E+03  0.66034951829E+03  0.00000000000E+00 0.  1.
         21    1    1    2  504  501  0.90981874514E+02 -0.32789353790E+02  0.11934647061E+03  0.15361127322E+03  0.00000000000E+00 0.  1.
         21    1    1    2  505  502  0.20479001371E+02 -0.47305953570E+02 -0.35181040353E+01  0.51668363593E+02  0.00000000000E+00 0.  1.
         21    1    1    2  506  503 -0.19029842344E+02 -0.41010666845E+02 -0.41931715570E+03  0.42174742057E+03  0.00000000000E+00 0. -1.
<scales pt_clust_3="135.02715" pt_clust_4="14000.00000" pt_clust_5="52.75748" pt_clust_6="45.21073"></scales>
<clustering>
<clus scale="   45.211">  2  6  1 -1</clus>
<clus scale="   52.757">  1  5  2 -1</clus>
<clus scale="  135.027">  2  3  1 -1</clus>
<clus scale="   52.757">  1  3  2 -1</clus>
</clustering>
</event>
<event>
 6    0  0.7442036E+002  0.9838452E+02  0.7546771E-02  0.1283730E+00
         21   -1    0    0  506  501  0.00000000000E+00  0.00000000000E+00  0.23852985585E+04  0.23852985585E+04  0.00000000000E+00 0. -1.
         21   -1    0    0  503  502 -0.00000000000E+00 -0.00000000000E+00 -0.47682802816E+03  0.47682802816E+03  0.00000000000E+00 0. -1.
         21    1    1    2  503  505  0.32892462378E+02 -0.29324498717E+02 -0.31487798795E+03  0.31794651688E+03  0.00000000000E+00 0. -1.
         21    1    1    2  504  501 -0.42462314363E+02  0.67997739610E+02  0.85903066609E+03  0.86276325027E+03  0.00000000000E+00 0. -1.
         21    1    1    2  505  504 -0.12823844452E+03  0.42830734577E+02 -0.12463277960E+03  0.18388284376E+03  0.00000000000E+00 0. -1.
         21    1    1    2  506  502  0.13780829651E+03 -0.81503975470E+02  0.14889506318E+04  0.14975339757E+04  0.00000000000E+00 0. -1.
<scales pt_clust_3="44.06632" pt_clust_4="79.67502" pt_clust_5="14000.00000" pt_clust_6="98.38452"></scales>
<clustering>
<clus scale="   44.066">  2  3  1 -1</clus>
<clus scale="   79.675">  1  4  2 -1</clus>
<clus scale="   98.385">  1  6  2 -1</clus>
<clus scale="   79.675">  1  3  2 -1</clus>
</clustering>
</event>
<event>
 6    0  0.7442036E+002  0.1113293E+03  0.7546771E-02  0.1258128E+00
         21   -1    0    0  503  501  0.00000000000E+00  0.00000000000E+00  0.10583679157E+04  0.10583679157E+04  0.00000000000E+00 0. -1.
         21   -1    0    0  506  502 -0.00000000000E+00 -0.00000000000E+00 -0.47515878548E+02  0.47515878548E+02  0.00000000000E+00 0. -1.
         21    1    1    2  503  504 -0.12968543402E+03  0.64282874035E+02  0.43098100615E+03  0.45463746805E+03  0.00000000000E+00 0. -1.
         21    1    1    2  504  505  0.65513290114E+02 -0.50389348952E+02  0.10358290939E+03  0.13251602464E+03  0.00000000000E+00 0. -1.
         21    1    1    2  505  502  0.18400949177E+02 -0.40804004583E+02  0.56612263994E+01  0.45117748226E+02  0.00000000000E+00 0. -1.
         21    1    1    2  506  501  0.45771194732E+02  0.26910479500E+02  0.47062689521E+03  0.47361255333E+03  0.00000000000E+00 0. -1.
<scales pt_clust_3="111.32934" pt_clust_4="14000.00000" pt_clust_5="44.76116" pt_clust_6="52.89113"></scales>
<clustering>
<clus scale="   44.761">  2  5  1 -1</clus>
<clus scale="   52.891">  1  6  2 -1</clus>
<clus scale="  111.329">  1  3  2 -1</clus>
<clus scale="   52.891">  1  3  2 -1</clus>
</clustering>
</event>
<event>
 6    0  0.7442036E+002  0.1022257E+03  0.7546771E-02  0.1275684E+00
         21   -1    0    0  503  501  0.00000000000E+00  0.00000000000E+00  0.20061664615E+03  0.20061664615E+03  0.00000000000E+00 0. -1.
         21   -1    0    0  504  502 -0.00000000000E+00 -0.00000000000E+00 -0.20468455587E+03  0.20468455587E+03  0.00000000000E+00 0. -1.
         21    1    1    2  503  506  0.43081304028E+02  0.10901384795E+03  0.59797427363E+02  0.13158932373E+03  0.00000000000E+00 0. -1.
         21    1    1    2  504  505  0.14421161733E+02 -0.62955721773E+02 -0.63794609017E+02  0.90780752086E+02  0.00000000000E+00 0. -1.
         21    1    1    2  505  501 -0.94578662323E+02 -0.43287714104E+02  0.54089541891E+02  0.11723748590E+03  0.00000000000E+00 0. -1.
         21    1    1    2  506  502  0.37076196563E+02 -0.27704120730E+01 -0.54160269958E+02  0.65693640305E+02  0.00000000000E+00 0. -1.
<scales pt_clust_3="14000.00000" pt_clust_4="72.95633" pt_clust_5="102.22574" pt_clust_6="37.17956"></scales>
<clustering>
<clus scale="   37.180">  2  6  1 -1</clus>
<clus scale="   72.956">  2  4  1 -1</clus>
<clus scale="  102.226">  1  5  2 -1</clus>
<clus scale="  102.226">  1  3  2 -1</clus>
</clustering>
</event>
<event>
 6    0  0.7442036E+002  0.1484899E+03  0.7546771E-02  0.1202341E+00
         21   -1    0    0  505  501  0.00000000000E+00  0.00000000000E+00  0.76250950865E+03  0.76250950865E+03  0.00000000000E+00 0.  1.
         21   -1    0    0  504  502 -0.00000000000E+00 -0.00000000000E+00 -0.67179132060E+03  0.67179132060E+03  0.00000000000E+00 0.  1.
         21    1    1    2  503  506 -0.10000324206E+03  0.31502616356E+02 -0.31173327480E+03  0.32889314052E+03  0.00000000000E+00 0.  1.
         21    1    1    2  504  503 -0.76256212576E+02 -0.13116435858E+02 -0.24253818119E+03  0.25458165720E+03  0.00000000000E+00 0.  1.
         21    1    1    2  505  502  0.91008755515E+02  0.95798187057E+02 -0.50073960933E+02  0.14130565377E+03  0.00000000000E+00 0.  1.
         21    1    1    2  506  501  0.85250699120E+02 -0.11418436756E+03  0.69506360498E+03  0.70952037777E+03  0.00000000000E+00 0.  1.
<scales pt_clust_3="36.65425" pt_clust_4="36.65425" pt_clust_5="132.13586" pt_clust_6="142.22763"></scales>
<clustering>
<clus scale="   36.654">  3  4 -1 -1</clus>
<clus scale="  132.136">  2  5  1 -1</clus>
<clus scale="  142.228">  1  6  2 -1</clus>
<clus scale="  142.228">  1  3  2 -1</clus>
</clustering>
</event>
<event>
 6    0  0.7442036E+002  0.8678959E+02  0.7546771E-02  0.1310818E+00
         21   -1    0    0  503  501  0.00000000000E+00  0.00000000000E+00  0.26389592385E+03  0.26389592385E+03  0.00000000000E+00 0.  1.
         21   -1    0    0  506  502 -0.00000000000E+00 -0.00000000000E+00 -0.22027029281E+03  0.22027029281E+03  0.00000000000E+00 0.  1.
         21    1    1    2  503  502 -0.88678987815E+02 -0.41390528549E+02  0.17065478257E+03  0.19672364766E+03  0.00000000000E+00 0.  1.
         21    1    1    2  504  501 -0.97007161817E+01  0.79302133615E+02  0.27409452185E+02  0.84464254921E+02  0.00000000000E+00 0.  1.
         21    1    1    2  505  504  0.41955206702E+02 -0.58138138635E+02 -0.80601202293E+02  0.10787416903E+03  0.00000000000E+00 0.  1.
         21    1    1    2  506  505  0.56424497296E+02  0.20226533569E+02 -0.73837401427E+02  0.95104145045E+02  0.00000000000E+00 0.  1.
<scales pt_clust_3="86.78959" pt_clust_4="83.57884" pt_clust_5="14000.00000" pt_clust_6="59.94027"></scales>
<clustering>
<clus scale="   59.940">  2  6  1 -1</clus>
<clus scale="   83.579">  1  4  2 -1</clus>
<clus scale="   86.790">  1  3  2 -1</clus>
<clus scale="   83.579">  1  3  2 -1</clus>
</clustering>
</event>
<event>
 6    0  0.7442036E+002  0.1981980E+03  0.7546771E-02  0.1151268E+00
         21   -1    0    0  503  501  0.00000000000E+00  0.00000000000E+00  0.10503979205E+03  0.10503979205E+03  0.00000000000E+00 0. -1.
         21   -1    0    0  506  502 -0.00000000000E+00 -0.00000000000E+00 -0.17595015034E+04  0.17595015034E+04  0.00000000000E+00 0. -1.
         21    1    1    2  503  504 -0.47223985946E+02 -0.49732100284E+02 -0.77320798961E+02  0.10335324184E+03  0.00000000000E+00 0. -1.
         21    1    1    2  504  505  0.63606593439E-01  0.12984417885E+03 -0.12102584664E+04  0.12172037917E+04  0.00000000000E+00 0. -1.
         21    1    1    2  505  502 -0.10727671412E+02  0.65503790488E+02 -0.38091673176E+03  0.38665667721E+03  0.00000000000E+00 0. -1.
         21    1    1    2  506  501  0.57888050765E+02 -0.14561586906E+03  0.14034285810E+02  0.15732758474E+03  0.00000000000E+00 0. -1.
<scales pt_clust_3="68.58124" pt_clust_4="33.95484" pt_clust_5="33.95484" pt_clust_6="192.42430"></scales>
<clustering>
<clus scale="   33.955">  4  5 -1 -1</clus>
<clus scale="   68.581">  1  3  2 -1</clus>
<clus scale="  192.424">  1  6  2 -1</clus>
<clus scale="   68.581">  1  3  2 -1</clus>
</clustering>
</event>
<event>
 6    0  0.7442036E+002  0.8855034E+02  0.7546771E-02  0.1306401E+00
         21   -1    0    0  506  501  0.00000000000E+00  0.00000000000E+00  0.87321392447E+02  0.87321392447E+02  0.00000000000E+00 0. -1.
         21   -1    0    0  505  502 -0.00000000000E+00 -0.00000000000E+00 -0.14973955643E+04  0.14973955643E+04  0.00000000000E+00 0. -1.
         21    1    1    2  503  504  0.10536378155E+03  0.12825111698E+03 -0.27790099900E+03  0.32369559884E+03  0.00000000000E+00 0. -1.
         21    1    1    2  504  501  0.67878387128E+01 -0.35630882404E+02 -0.34230643015E+02  0.49873554681E+02  0.00000000000E+00 0. -1.
         21    1    1    2  505  503 -0.57427784141E+02 -0.60478642129E+02 -0.11347307239E+04  0.11377914714E+04  0.00000000000E+00 0. -1.
         21    1    1    2  506  502 -0.54723836119E+02 -0.32141592445E+02  0.36788194045E+02  0.73356331871E+02  0.00000000000E+00 0. -1.
<scales pt_clust_3="88.55034" pt_clust_4="36.27168" pt_clust_5="14000.00000" pt_clust_6="75.70448"></scales>
<clustering>
<clus scale="   36.272">  1  4  2 -1</clus>
<clus scale="   75.704">  1  6  2 -1</clus>
<clus scale="   88.550">  1  3  2 -1</clus>
<clus scale="   36.272">  1  3  2 -1</clus>
</clustering>
</event>
<event>
 6    0  0.7442036E+002  0.1803792E+03  0.7546771E-02  0.1167437E+00
         21   -1    0    0  503  501  0.00000000000E+00  0.00000000000E+00  0.54929153519E+03  0.54929153519E+03  0.00000000000E+00 0. -1.
         21   -1    0    0  506  502 -0.00000000000E+00 -0.00000000000E+00 -0.16783803350E+04  0.16783803350E+04  0.00000000000E+00 0. -1.
         21    1    1    2  503  502  0.29612792628E+02  0.45090541292E+02  0.21073877028E+03  0.21753368406E+03  0.00000000000E+00 0.  1.
         21    1    1    2  504  501 -0.51638712737E+02  0.23375521878E+02  0.27367380329E+03  0.27948223965E+03  0.00000000000E+00 0. -1.
         21    1    1    2  505  504 -0.72700133242E+02  0.92631803710E+02 -0.12085514077E+02  0.11837237888E+03  0.00000000000E+00 0. -1.
         21    1    1    2  506  505  0.94726053351E+02 -0.16109786688E+03 -0.16014158593E+04  0.16122835676E+04  0.00000000000E+00 0. -1.
<scales pt_clust_3="53.94511" pt_clust_4="66.41161" pt_clust_5="14000.00000" pt_clust_6="180.37918"></scales>
<clustering>
<clus scale="   53.945">  1  3  2 -1</clus>
<clus scale="   66.412">  1  4  2 -1</clus>
<clus scale="  180.379">  2  6  1 -1</clus>
<clus scale="   53.945">  1  3  2 -1</clus>
</clustering>
</event>
<event>
 6    0  0.7442036E+002  0.9802202E+02  0.7546771E-02  0.1284511E+00
         21   -1    0    0  504  501  0.00000000000E+00  0.00000000000E+00  0.31770029603E+03  0.31770029603E+03  0.00000000000E+00 0.  1.
         21   -1    0    0  506  502 -0.00000000000E+00 -0.00000000000E+00 -0.13284843479E+03  0.13284843479E+03  0.00000000000E+00 0.  1.
         21    1    1    2  503  501  0.42033513631E+02 -0.26843777069E+02  0.15400072084E+03  0.16187534295E+03  0.00000000000E+00 0.  1.
         21    1    1    2  504  505  0.50762845861E+02 -0.68570640489E+01  0.22020210567E+02  0.55756394437E+02  0.00000000000E+00 0.  1.
         21    1    1    2  505  502 -0.11657341268E+03 -0.34079214343E+02 -0.58192666730E+02  0.13467419893E+03  0.00000000000E+00 0.  1.
         21    1    1    2  506  503  0.23777053193E+02  0.67780055461E+02  0.67023596556E+02  0.98242794505E+02  0.00000000000E+00 0. -1.
<scales pt_clust_3="49.87389" pt_clust_4="62.44708" pt_clust_5="98.02202" pt_clust_6="14000.00000"></scales>
<clustering>
<clus scale="   49.874">  1  3  2 -1</clus>
<clus scale="   62.447">  1  4  2 -1</clus>
<clus scale="   98.022">  2  5  1 -1</clus>
<clus scale="   49.874">  1  3  2 -1</clus>
</clustering>
</event>
<event>
 6    0  0.7442036E+002  0.1526080E+03  0.7546771E-02  0.1197304E+00
         21   -1    0    0  506  501  0.00000000000E+00  0.00000000000E+00  0.12595513248E+03  0.12595513248E+03  0.00000000000E+00 0. -1.
         21   -1    0    0  501  502 -0.00000000000E+00 -0.00000000000E+00 -0.24139123324E+04  0.24139123324E+04  0.00000000000E+00 0.  1.
         21    1    1    2  503  504 -0.10210887044E+02  0.96924654419E+02 -0.16211597602E+04  0.16240867030E+04  0.00000000000E+00 0.  1.
         21    1    1    2  504  502  0.17981663736E+01  0.54527821903E+02 -0.48295498421E+03  0.48602678274E+03  0.00000000000E+00 0. -1.
         21    1    1    2  505  503 -0.24768503837E+02 -0.11864356268E+03 -0.28971981088E+03  0.31404990458E+03  0.00000000000E+00 0. -1.
         21    1    1    2  506  505  0.33181224508E+02 -0.32808913640E+02  0.10587735540E+03  0.11570407452E+03  0.00000000000E+00 0. -1.
<scales pt_clust_3="35.65842" pt_clust_4="35.65842" pt_clust_5="144.97500" pt_clust_6="46.66282"></scales>
<clustering>
<clus scale="   35.658">  3  4 -1 -1</clus>
<clus scale="   46.663">  1  6  2 -1</clus>
<clus scale="  144.975">  1  5  2 -1</clus>
<clus scale="   46.663">  1  3  2 -1</clus>
</clustering>
</event>
<event>
 6    0  0.7442036E+002  0.4015756E+03  0.7546771E-02  0.1043235E+00
         21   -1    0    0  503  501  0.00000000000E+00  0.00000000000E+00  0.13076980969E+04  0.13076980969E+04  0.00000000000E+00 0.  1.
         21   -1    0    0  505  502 -0.00000000000E+00 -0.00000000000E+00 -0.48631131436E+03  0.48631131436E+03  0.00000000000E+00 0.  1.
         21    1    1    2  503  506  0.29523246695E+03  0.44882392233E+02  0.26754297495E+03  0.40094373935E+03  0.00000000000E+00 0.  1.
         21    1    1    2  504  501 -0.47226833300E+03 -0.27996344622E+03  0.80354547112E+03  0.97319177644E+03  0.00000000000E+00 0.  1.
         21    1    1    2  505  504  0.86066272324E+02  0.20932570631E+03 -0.23119119879E+03  0.32353365351E+03  0.00000000000E+00 0.  1.
         21    1    1    2  506  502  0.90969593725E+02  0.25755347679E+02 -0.18510464748E+02  0.96340241965E+02  0.00000000000E+00 0. -1.
<scales pt_clust_3="401.57557" pt_clust_4="14000.00000" pt_clust_5="268.44521" pt_clust_6="94.54525"></scales>
<clustering>
<clus scale="   94.545">  2  6  1 -1</clus>
<clus scale="  268.445">  2  5  1 -1</clus>
<clus scale="  401.576">  1  3  2 -1</clus>
<clus scale="  401.576">  1  3  2 -1</clus>
</clustering>
</event>
<event>
 6    0  0.7442036E+002  0.1072639E+03  0.7546771E-02  0.1265722E+00
         21   -1    0    0  502  501  0.00000000000E+00  0.00000000000E+00  0.35661058179E+03  0.35661058179E+03  0.00000000000E+00 0.  1.
         21   -1    0    0  503  502 -0.00000000000E+00 -0.00000000000E+00 -0.44794816774E+03  0.44794816774E+03  0.00000000000E+00 0.  1.
         21    1    1    2  503  505 -0.19001329726E+01 -0.33312156410E+02 -0.22223746673E+03  0.22472828458E+03  0.00000000000E+00 0.  1.
         21    1    1    2  504  506 -0.17868888550E+02  0.10614469020E+03  0.30752756590E+03  0.32582080385E+03  0.00000000000E+00 0.  1.
         21    1    1    2  505  504 -0.20659580041E+02 -0.75350554496E+02 -0.19459674606E+03  0.20969601305E+03  0.00000000000E+00 0.  1.
         21    1    1    2  506  501  0.40428601563E+02  0.25180207064E+01  0.17969060939E+02  0.44313648052E+02  0.00000000000E+00 0.  1.
<scales pt_clust_3="33.36630" pt_clust_4="14000.00000" pt_clust_5="107.26393" pt_clust_6="40.32103"></scales>
<clustering>
<clus scale="   33.366">  2  3  1 -1</clus>
<clus scale="   40.321">  1  6  2 -1</clus>
<clus scale="  107.264">  2  5  1 -1</clus>
<clus scale="   40.321">  1  3  2 -1</clus>
</clustering>
</event>
<event>
 6    0  0.7442036E+002  0.2970841E+03  0.7546771E-02  0.1086707E+00
         21   -1    0    0  503  501  0.00000000000E+00  0.00000000000E+00  0.16096242255E+04  0.16096242255E+04  0.00000000000E+00 0. -1.
         21   -1    0    0  505  502 -0.00000000000E+00 -0.00000000000E+00 -0.12432914805E+03  0.12432914805E+03  0.00000000000E+00 0. -1.
         21    1    1    2  503  502 -0.10339638351E+02 -0.28756522146E+02  0.52093017735E+03  0.52182573276E+03  0.00000000000E+00 0. -1.
         21    1    1    2  504  501 -0.17790283870E+03 -0.18423769945E+03  0.85176773419E+03  0.88943871229E+03  0.00000000000E+00 0. -1.
         21    1    1    2  505  506  0.62305974724E+02  0.14689314971E+03  0.49239309833E+02  0.16698545312E+03  0.00000000000E+00 0. -1.
         21    1    1    2  506  504  0.12593650233E+03  0.66101071886E+02  0.63357856097E+02  0.15570347540E+03  0.00000000000E+00 0.  1.
<scales pt_clust_3="30.55889" pt_clust_4="278.58693" pt_clust_5="97.58250" pt_clust_6="97.58250"></scales>
<clustering>
<clus scale="   30.559">  1  3  2 -1</clus>
<clus scale="   97.583">  5  6 -1 -1</clus>
<clus scale="  278.587">  1  4  2 -1</clus>
<clus scale="   30.559">  1  3  2 -1</clus>
</clustering>
</event>
<event>
 6    0  0.7442036E+002  0.9073181E+02  0.7546771E-02  0.1301089E+00
         21   -1    0    0  504  501  0.00000000000E+00  0.00000000000E+00  0.84776840175E+02  0.84776840175E+02  0.00000000000E+00 0. -1.
         21   -1    0    0  505  502 -0.00000000000E+00 -0.00000000000E+00 -0.26973791739E+03  0.26973791739E+03  0.00000000000E+00 0. -1.
         21    1    1    2  503  501 -0.10848592834E+02 -0.48185431290E+02  0.17109592474E+01  0.49421201287E+02  0.00000000000E+00 0. -1.
         21    1    1    2  504  502 -0.10079510315E+03  0.53913831482E+02 -0.88146918194E+02  0.14434761249E+03  0.00000000000E+00 0. -1.
         21    1    1    2  505  506  0.28676424136E+02 -0.28479200893E+02 -0.38727083150E+02  0.55974897535E+02  0.00000000000E+00 0. -1.
         21    1    1    2  506  503  0.82967271845E+02  0.22750800702E+02 -0.59798035121E+02  0.10477104626E+03  0.00000000000E+00 0. -1.
<scales pt_clust_3="51.82650" pt_clust_4="14000.00000" pt_clust_5="40.41537" pt_clust_6="90.73181"></scales>
<clustering>
<clus scale="   40.415">  2  5  1 -1</clus>
<clus scale="   51.826">  1  3  2 -1</clus>
<clus scale="   90.732">  1  6  2 -1</clus>
<clus scale="   51.826">  1  3  2 -1</clus>
</clustering>
</event>
<event>
 6    0  0.7442036E+002  0.1037853E+03  0.7546771E-02  0.1272532E+00
         21   -1    0    0  503  501  0.00000000000E+00  0.00000000000E+00  0.18952379728E+03  0.18952379728E+03  0.00000000000E+00 0. -1.
         21   -1    0    0  504  502 -0.00000000000E+00 -0.00000000000E+00 -0.60192478738E+03  0.60192478738E+03  0.00000000000E+00 0. -1.
         21    1    1    2  503  505 -0.19444373918E+02 -0.24204098723E+02  0.14857674723E+03  0.15178594101E+03  0.00000000000E+00 0. -1.
         21    1    1    2  504  501 -0.51647518886E+02  0.23471688625E+02 -0.75283519500E+02  0.94265554060E+02  0.00000000000E+00 0.  1.
         21    1    1    2  505  506 -0.44699765854E+02 -0.34836858609E+02 -0.13969148740E+02  0.58367909862E+02  0.00000000000E+00 0. -1.
         21    1    1    2  506  502  0.11579165866E+03  0.35569268707E+02 -0.47172506909E+03  0.48702917972E+03  0.00000000000E+00 0. -1.
<scales pt_clust_3="31.04709" pt_clust_4="59.03317" pt_clust_5="103.78530" pt_clust_6="14000.00000"></scales>
<clustering>
<clus scale="   31.047">  1  3  2 -1</clus>
<clus scale="   59.033">  1  4  2 -1</clus>
<clus scale="  103.785">  1  5  2 -1</clus>
<clus scale="   31.047">  1  3  2 -1</clus>
</clustering>
</event>
<event>
 6    0  0.7442036E+002  0.1739925E+03  0.7546771E-02  0.1173747E+00
         21   -1    0    0  506  501  0.00000000000E+00  0.00000000000E+00  0.24135330257E+03  0.24135330257E+03  0.00000000000E+00 0. -1.
         21   -1    0    0  503  502 -0.00000000000E+00 -0.00000000000E+00 -0.60043477465E+03  0.60043477465E+03  0.00000000000E+00 0. -1.
         21    1    1    2  503  501 -0.13629706872E+03  0.35305413616E+02 -0.96012387315E+02  0.17041637741E+03  0.00000000000E+00 0. -1.
         21    1    1    2  504  502  0.90143521107E+02  0.15728764780E+03 -0.35999200055E+03  0.40306264898E+03  0.00000000000E+00 0. -1.
         21    1    1    2  505  504 -0.16265713059E+02 -0.15550265018E+03  0.12341122187E+02  0.15683733908E+03  0.00000000000E+00 0. -1.
         21    1    1    2  506  505  0.62419260676E+02 -0.37090411242E+02  0.84581793601E+02  0.11147171174E+03  0.00000000000E+00 0. -1.
<scales pt_clust_3="122.80997" pt_clust_4="14000.00000" pt_clust_5="173.99251" pt_clust_6="72.60759"></scales>
<clustering>
<clus scale="   72.608">  1  6  2 -1</clus>
<clus scale="  122.810">  1  3  2 -1</clus>
<clus scale="  173.993">  1  5  2 -1</clus>
<clus scale="   72.608">  1  3  2 -1</clus>
</clustering>
</event>
<event>
 6    0  0.7442036E+002  0.6846868E+02  0.7546771E-02  0.1365379E+00
         21   -1    0    0  504  501  0.00000000000E+00  0.00000000000E+00  0.85828272122E+03  0.85828272122E+03  0.00000000000E+00 0. -1.
         21   -1    0    0  503  502 -0.00000000000E+00 -0.00000000000E+00 -0.24669098591E+03  0.24669098591E+03  0.00000000000E+00 0. -1.
         21    1    1    2  503  505  0.62982411869E+00  0.47936026455E+02 -0.15154905801E+03  0.15895086126E+03  0.00000000000E+00 0. -1.
         21    1    1    2  504  506 -0.42417453677E+02 -0.44933442788E+02  0.12171401942E+03  0.13650112520E+03  0.00000000000E+00 0. -1.
         21    1    1    2  505  501  0.10624636526E+03  0.16844759374E+02  0.70718808327E+03  0.71532301876E+03  0.00000000000E+00 0. -1.
         21    1    1    2  506  502 -0.64458735701E+02 -0.19847343040E+02 -0.65761309360E+02  0.94198701916E+02  0.00000000000E+00 0. -1.
<scales pt_clust_3="47.94016" pt_clust_4="58.99698" pt_clust_5="68.46868" pt_clust_6="14000.00000"></scales>
<clustering>
<clus scale="   47.940">  2  3  1 -1</clus>
<clus scale="   58.997">  1  4  2 -1</clus>
<clus scale="   68.469">  1  5  2 -1</clus>
<clus scale="   58.997">  1  3  2 -1</clus>
</clustering>
</event>
<event>
 6    0  0.7442036E+002  0.1120665E+03  0.7546771E-02  0.1256790E+00
         21   -1    0    0  505  501  0.00000000000E+00  0.00000000000E+00  0.10011168361E+03  0.10011168361E+03  0.00000000000E+00 0.  1.
         21   -1    0    0  504  502 -0.00000000000E+00 -0.00000000000E+00 -0.18059391095E+04  0.18059391095E+04  0.00000000000E+00 0. -1.
         21    1    1    2  503  502 -0.71214904893E+02  0.28266578620E+02 -0.15282819870E+04  0.15302014227E+04  0.00000000000E+00 0. -1.
         21    1    1    2  504  506  0.27893117100E+02  0.20770513990E+02 -0.11751447893E+03  0.12255240916E+03  0.00000000000E+00 0. -1.
         21    1    1    2  505  503 -0.72751128671E+02 -0.80038124864E+02 -0.75867387836E+02  0.13211619390E+03  0.00000000000E+00 0. -1.
         21    1    1    2  506  501  0.11607291646E+03  0.31001032253E+02  0.15836427861E+02  0.12118076739E+03  0.00000000000E+00 0.  1.
<scales pt_clust_3="65.78102" pt_clust_4="34.77701" pt_clust_5="14000.00000" pt_clust_6="112.06649"></scales>
<clustering>
<clus scale="   34.777">  2  4  1 -1</clus>
<clus scale="   65.781">  2  3  1 -1</clus>
<clus scale="  112.066">  1  6  2 -1</clus>
<clus scale="  112.066">  1  3  2 -1</clus>
</clustering>
</event>
<event>
 6    0  0.7442036E+002  0.8232035E+02  0.7546771E-02  0.1322593E+00
         21   -1    0    0  506  501  0.00000000000E+00  0.00000000000E+00  0.13916888711E+03  0.13916888711E+03  0.00000000000E+00 0.  1.
         21   -1    0    0  503  502 -0.00000000000E+00 -0.00000000000E+00 -0.42367656695E+03  0.42367656695E+03  0.00000000000E+00 0. -1.
         21    1    1    2  503  505 -0.45467273235E+01 -0.35303186597E+02 -0.19162627564E+03  0.19490412317E+03  0.00000000000E+00 0. -1.
         21    1    1    2  504  502  0.73647795276E+02 -0.15675824172E+02 -0.14532236674E+03  0.16367137651E+03  0.00000000000E+00 0.  1.
         21    1    1    2  505  501 -0.45900639867E+02  0.10816845558E+03  0.74037388684E+02  0.13888419077E+03  0.00000000000E+00 0.  1.
         21    1    1    2  506  504 -0.23200428085E+02 -0.57189444814E+02 -0.21596426137E+02  0.65385763613E+02  0.00000000000E+00 0.  1.
<scales pt_clust_3="35.59477" pt_clust_4="82.32035" pt_clust_5="14000.00000" pt_clust_6="68.23513"></scales>
<clustering>
<clus scale="   35.595">  2  3  1 -1</clus>
<clus scale="   68.235">  1  6  2 -1</clus>
<clus scale="   82.320">  2  4  1 -1</clus>
<clus scale="   68.235">  1  3  2 -1</clus>
</clustering>
</event>
<event>
 6    0  0.7442036E+002  0.1636871E+03  0.7546771E-02  0.1184596E+00
         21   -1    0    0  504  501  0.00000000000E+00  0.00000000000E+00  0.15516466562E+03  0.15516466562E+03  0.00000000000E+00 0.  1.
         21   -1    0    0  506  502 -0.00000000000E+00 -0.00000000000E+00 -0.39712010505E+03  0.39712010505E+03  0.00000000000E+00 0.  1.
         21    1    1    2  503  505  0.12546783632E+01 -0.71982086822E+02  0.84086422017E+01  0.72482413762E+02  0.00000000000E+00 0.  1.
         21    1    1    2  504  502  0.81597486268E+01  0.18079442234E+03 -0.24671891783E+03  0.30597945856E+03  0.00000000000E+00 0.  1.
         21    1    1    2  505  501 -0.31579531379E+02 -0.75203018950E+02  0.58078789417E+02  0.10012944942E+03  0.00000000000E+00 0.  1.
         21    1    1    2  506  503  0.22165104389E+02 -0.33609316568E+02 -0.61723953224E+02  0.73693448924E+02  0.00000000000E+00 0.  1.
<scales pt_clust_3="50.32443" pt_clust_4="154.92657" pt_clust_5="50.32443" pt_clust_6="40.26013"></scales>
<clustering>
<clus scale="   40.260">  2  6  1 -1</clus>
<clus scale="   50.324">  3  5 -1 -1</clus>
<clus scale="  154.927">  2  4  1 -1</clus>
<clus scale="  163.687">  1  3  2 -1</clus>
</clustering>
</event>
<event>
 6    0  0.7442036E+002  0.1235090E+03  0.7546771E-02  0.1237418E+00
         21   -1    0    0  505  501  0.00000000000E+00  0.00000000000E+00  0.33981224110E+02  0.33981224110E+02  0.00000000000E+00 0. -1.
         21   -1    0    0  504  502 -0.00000000000E+00 -0.00000000000E+00 -0.59848374918E+03  0.59848374918E+03  0.00000000000E+00 0. -1.
         21    1    1    2  503  506 -0.91166368265E+01 -0.41994139186E+02 -0.10470805095E+03  0.11318302314E+03  0.00000000000E+00 0.  1.
         21    1    1    2  504  501 -0.23309882389E+01  0.11034149983E+03 -0.19401219014E+03  0.22320710118E+03  0.00000000000E+00 0. -1.
         21    1    1    2  505  503  0.43087002427E+02 -0.64273996755E+02 -0.95908864686E+02  0.12323208496E+03  0.00000000000E+00 0. -1.
         21    1    1    2  506  502 -0.31639377361E+02 -0.40733638860E+01 -0.16987341928E+03  0.17284276402E+03  0.00000000000E+00 0. -1.
<scales pt_clust_3="44.72286" pt_clust_4="109.80178" pt_clust_5="44.72286" pt_clust_6="31.90051"></scales>
<clustering>
<clus scale="   31.901">  2  6  1 -1</clus>
<clus scale="   44.723">  3  5 -1 -1</clus>
<clus scale="  109.802">  2  4  1 -1</clus>
<clus scale="  123.509">  1  3  2 -1</clus>
</clustering>
</event>
<event>
 6    0  0.7442036E+002  0.1296917E+03  0.7546771E-02  0.1227914E+00
         21   -1    0    0  506  501  0.00000000000E+00  0.00000000000E+00  0.71411725859E+03  0.71411725859E+03  0.00000000000E+00 0.  1.
         21   -1    0    0  505  502 -0.00000000000E+00 -0.00000000000E+00 -0.23727852541E+03  0.23727852541E+03  0.00000000000E+00 0.  1.
         21    1    1    2  503  502 -0.36981840731E+02 -0.22562343305E+02 -0.43856848619E+01  0.43542509240E+02  0.00000000000E+00 0. -1.
         21    1    1    2  504  501  0.46075517922E+02  0.93142770934E+02  0.17386255991E+03  0.20255053411E+03  0.00000000000E+00 0.  1.
         21    1    1    2  505  504  0.21631449439E+01 -0.11196963010E+03 -0.18219964608E+03  0.21386581843E+03  0.00000000000E+00 0.  1.
         21    1    1    2  506  503 -0.11256822135E+02  0.41389202470E+02  0.48956150421E+03  0.49143692223E+03  0.00000000000E+00 0.  1.
<scales pt_clust_3="42.42870" pt_clust_4="129.69170" pt_clust_5="14000.00000" pt_clust_6="42.89268"></scales>
<clustering>
<clus scale="   42.893">  1  6  2 -1</clus>
<clus scale="   42.429">  2  3  1 -1</clus>
<clus scale="  129.692">  1  4  2 -1</clus>
<clus scale="   42.893">  1  3  2 -1</clus>
</clustering>
</event>
<event>
 6    0  0.7442036E+002  0.7999153E+02  0.7546771E-02  0.1329075E+00
         21   -1    0    0  505  501  0.00000000000E+00  0.00000000000E+00  0.56376920195E+03  0.56376920195E+03  0.00000000000E+00 0.  1.
         21   -1    0    0  503  502 -0.00000000000E+00 -0.00000000000E+00 -0.99520853942E+02  0.99520853942E+02  0.00000000000E+00 0.  1.
         21    1    1    2  503  501  0.11122755997E+03 -0.59178474133E+01 -0.36745706257E+02  0.11728954746E+03  0.00000000000E+00 0.  1.
         21    1    1    2  504  506 -0.58918419621E+02  0.36689008793E+02  0.30437809729E+03  0.31219143109E+03  0.00000000000E+00 0.  1.
         21    1    1    2  505  504 -0.21009890264E+02 -0.43765576612E+02  0.19381656461E+03  0.19980415887E+03  0.00000000000E+00 0. -1.
         21    1    1    2  506  502 -0.31299250082E+02  0.12994415232E+02  0.27993923690E+01  0.34004918476E+02  0.00000000000E+00 0.  1.
<scales pt_clust_3="79.99153" pt_clust_4="14000.00000" pt_clust_5="48.62762" pt_clust_6="33.88950"></scales>
<clustering>
<clus scale="   33.889">  2  6  1 -1</clus>
<clus scale="   48.628">  1  5  2 -1</clus>
<clus scale="   79.992">  2  3  1 -1</clus>
<clus scale="   48.628">  1  3  2 -1</clus>
</clustering>
</event>
<event>
 6    0  0.7442036E+002  0.1122717E+03  0.7546771E-02  0.1256420E+00
         21   -1    0    0  505  501  0.00000000000E+00  0.00000000000E+00  0.47978061546E+02  0.47978061546E+02  0.00000000000E+00 0.  1.
         21   -1    0    0  504  502 -0.00000000000E+00 -0.00000000000E+00 -0.58319103486E+03  0.58319103486E+03  0.00000000000E+00 0. -1.
         21    1    1    2  503  501  0.12353171855E+02  0.96227033701E+02 -0.54870195686E+02  0.11145842832E+03  0.00000000000E+00 0.  1.
         21    1    1    2  504  503 -0.14472285967E+02  0.46698692036E+02 -0.97536226538E+02  0.10910330145E+03  0.00000000000E+00 0.  1.
         21    1    1    2  505  506  0.18186673668E+01 -0.64007553532E+02 -0.22833525599E+03  0.23714397228E+03  0.00000000000E+00 0. -1.
         21    1    1    2  506  502  0.30044674455E+00 -0.78918172205E+02 -0.15447129510E+03  0.17346339436E+03  0.00000000000E+00 0.  1.
<scales pt_clust_3="104.78370" pt_clust_4="48.88982" pt_clust_5="36.31449" pt_clust_6="36.31449"></scales>
<clustering>
<clus scale="   36.314">  5  6 -1 -1</clus>
<clus scale="   48.890">  2  4  1 -1</clus>
<clus scale="  104.784">  1  3  2 -1</clus>
<clus scale="  104.784">  1  3  2 -1</clus>
</clustering>
</event>
<event>
 6    0  0.7442036E+002  0.1751089E+03  0.7546771E-02  0.1172622E+00
         21   -1    0    0  504  501  0.00000000000E+00  0.00000000000E+00  0.12433184756E+04  0.12433184756E+04  0.00000000000E+00 0.  1.
         21   -1    0    0  501  502 -0.00000000000E+00 -0.00000000000E+00 -0.32312988679E+03  0.32312988679E+03  0.00000000000E+00 0. -1.
         21    1    1    2  503  506  0.54984966464E+02 -0.83145464779E+01  0.23430492226E+03  0.24081377622E+03  0.00000000000E+00 0.  1.
         21    1    1    2  504  503  0.10366374993E+03  0.36835217657E+02  0.97774826168E+03  0.98391801972E+03  0.00000000000E+00 0.  1.
         21    1    1    2  505  502 -0.32228701996E+02 -0.11258139485E+02 -0.15852052549E+02  0.37639374424E+02  0.00000000000E+00 0. -1.
         21    1    1    2  506  505 -0.12642001440E+03 -0.17262531694E+02 -0.27601254259E+03  0.30407719202E+03  0.00000000000E+00 0. -1.
<scales pt_clust_3="49.76193" pt_clust_4="49.76193" pt_clust_5="34.13847" pt_clust_6="160.47093"></scales>
<clustering>
<clus scale="   34.138">  2  5  1 -1</clus>
<clus scale="   49.762">  3  4 -1 -1</clus>
<clus scale="  160.471">  2  6  1 -1</clus>
<clus scale="  175.109">  1  3  2 -1</clus>
</clustering>
</event>
<event>
 6    0  0.7442036E+002  0.7994297E+02  0.7546771E-02  0.1329213E+00
         21   -1    0    0  503  501  0.00000000000E+00  0.00000000000E+00  0.20559723801E+03  0.20559723801E+03  0.00000000000E+00 0. -1.
         21   -1    0    0  505  502 -0.00000000000E+00 -0.00000000000E+00 -0.37015048752E+03  0.37015048752E+03  0.00000000000E+00 0. -1.
         21    1    1    2  503  504  0.29078341178E+02 -0.53325328192E+02  0.13863139199E+03  0.15135324046E+03  0.00000000000E+00 0. -1.
         21    1    1    2  504  506 -0.35792389528E+02  0.58985126933E+02 -0.21576248010E+01  0.69028948219E+02  0.00000000000E+00 0. -1.
         21    1    1    2  505  501  0.57313171883E+02  0.56238014413E+02 -0.56717393021E+02  0.98307561293E+02  0.00000000000E+00 0. -1.
         21    1    1    2  506  502 -0.50599123533E+02 -0.61897813153E+02 -0.24430962368E+03  0.25705797555E+03  0.00000000000E+00 0. -1.
<scales pt_clust_3="60.73830" pt_clust_4="35.55536" pt_clust_5="14000.00000" pt_clust_6="79.94297"></scales>
<clustering>
<clus scale="   60.738">  1  3  2 -1</clus>
<clus scale="   35.555">  1  4  2 -1</clus>
<clus scale="   79.943">  2  6  1 -1</clus>
<clus scale="   60.738">  1  3  2 -1</clus>
</clustering>
</event>
<event>
 6    0  0.7442036E+002  0.1424364E+03  0.7546771E-02  0.1210088E+00
         21   -1    0    0  503  501  0.00000000000E+00  0.00000000000E+00  0.93106919899E+03  0.93106919899E+03  0.00000000000E+00 0. -1.
         21   -1    0    0  504  502 -0.00000000000E+00 -0.00000000000E+00 -0.55439183225E+03  0.55439183225E+03  0.00000000000E+00 0.  1.
         21    1    1    2  503  502  0.61792098303E+02  0.11231563801E+03  0.60511082696E+03  0.61854036154E+03  0.00000000000E+00 0. -1.
         21    1    1    2  504  505 -0.11776823497E+02 -0.95805746357E+02 -0.46611631647E+03  0.47600615026E+03  0.00000000000E+00 0.  1.
         21    1    1    2  505  506 -0.20265789379E+02 -0.30077320738E+02 -0.71412652846E+02  0.80094409471E+02  0.00000000000E+00 0.  1.
         21    1    1    2  506  501 -0.29749485427E+02  0.13567429087E+02  0.30909550910E+03  0.31082010997E+03  0.00000000000E+00 0. -1.
<scales pt_clust_3="129.81121" pt_clust_4="35.97001" pt_clust_5="35.97001" pt_clust_6="32.69720"></scales>
<clustering>
<clus scale="   32.697">  1  6  2 -1</clus>
<clus scale="   35.970">  4  5 -1 -1</clus>
<clus scale="  129.811">  1  3  2 -1</clus>
<clus scale="   32.697">  1  3  2 -1</clus>
</clustering>
</event>
<event>
 6    0  0.7442036E+002  0.1910944E+03  0.7546771E-02  0.1157478E+00
         21   -1    0    0  506  501  0.00000000000E+00  0.00000000000E+00  0.26622505221E+03  0.26622505221E+03  0.00000000000E+00 0. -1.
         21   -1    0    0  503  502 -0.00000000000E+00 -0.00000000000E+00 -0.79771319830E+03  0.79771319830E+03  0.00000000000E+00 0. -1.
         21    1    1    2  503  501 -0.45622424173E+02  0.21918852025E+02 -0.10056707770E+03  0.11258587291E+03  0.00000000000E+00 0. -1.
         21    1    1    2  504  505  0.14086729137E+03  0.16844924373E+03 -0.22051725755E+03  0.31120186755E+03  0.00000000000E+00 0. -1.
         21    1    1    2  505  502 -0.54506192575E+02 -0.17232225610E+03 -0.40342115093E+03  0.44205713431E+03  0.00000000000E+00 0. -1.
         21    1    1    2  506  504 -0.40738674618E+02 -0.18045839656E+02  0.19301734009E+03  0.19809337574E+03  0.00000000000E+00 0. -1.
<scales pt_clust_3="53.15090" pt_clust_4="191.09441" pt_clust_5="14000.00000" pt_clust_6="44.55661"></scales>
<clustering>
<clus scale="   44.557">  1  6  2 -1</clus>
<clus scale="   53.151">  2  3  1 -1</clus>
<clus scale="  191.094">  1  4  2 -1</clus>
<clus scale="   44.557">  1  3  2 -1</clus>
</clustering>
</event>
<event>
 6    0  0.7442036E+002  0.7180073E+02  0.7546771E-02  0.1354074E+00
         21   -1    0    0  504  501  0.00000000000E+00  0.00000000000E+00  0.46942333502E+02  0.46942333502E+02  0.00000000000E+00 0. -1.
         21   -1    0    0  506  502 -0.00000000000E+00 -0.00000000000E+00 -0.13957891701E+04  0.13957891701E+04  0.00000000000E+00 0. -1.
         21    1    1    2  503  505  0.27910062210E+02 -0.51170893658E+02 -0.89118013530E+02  0.10648686429E+03  0.00000000000E+00 0. -1.
         21    1    1    2  504  502 -0.52614976506E+02  0.80199114484E+02 -0.33285381603E+03  0.34639846501E+03  0.00000000000E+00 0. -1.
         21    1    1    2  505  501  0.12597122385E+02  0.38400199561E+02  0.16743014189E+02  0.43744615016E+02  0.00000000000E+00 0. -1.
         21    1    1    2  506  503  0.12107791911E+02 -0.67428420387E+02 -0.94361802126E+03  0.94610155932E+03  0.00000000000E+00 0. -1.
<scales pt_clust_3="46.48694" pt_clust_4="71.80073" pt_clust_5="40.41365" pt_clust_6="14000.00000"></scales>
<clustering>
<clus scale="   40.414">  1  5  2 -1</clus>
<clus scale="   46.487">  1  3  2 -1</clus>
<clus scale="   71.801">  1  4  2 -1</clus>
<clus scale="   40.414">  1  3  2 -1</clus>
</clustering>
</event>
<event>
 6    0  0.7442036E+002  0.9767783E+02  0.7546771E-02  0.1285256E+00
         21   -1    0    0  506  501  0.00000000000E+00  0.00000000000E+00  0.21392881020E+04  0.21392881020E+04  0.00000000000E+00 0.  1.
         21   -1    0    0  503  502 -0.00000000000E+00 -0.00000000000E+00 -0.92847124836E+02  0.92847124836E+02  0.00000000000E+00 0.  1.
         21    1    1    2  503  501  0.41173220189E+02  0.89536279833E+02 -0.45225508986E+02  0.10843120460E+03  0.00000000000E+00 0.  1.
         21    1    1    2  504  505 -0.50872892182E+02 -0.19114992366E+02  0.12216088849E+04  0.12228171170E+04  0.00000000000E+00 0.  1.
         21    1    1    2  505  502  0.43645966141E+01 -0.10233623101E+03  0.15927469313E+03  0.18936784773E+03  0.00000000000E+00 0.  1.
         21    1    1    2  506  504  0.53350753791E+01  0.31914943544E+02  0.71078290814E+03  0.71151905748E+03  0.00000000000E+00 0.  1.
<scales pt_clust_3="97.67783" pt_clust_4="47.02717" pt_clust_5="14000.00000" pt_clust_6="32.35779"></scales>
<clustering>
<clus scale="   32.358">  1  6  2 -1</clus>
<clus scale="   47.027">  1  4  2 -1</clus>
<clus scale="   97.678">  2  3  1 -1</clus>
<clus scale="   32.358">  1  3  2 -1</clus>
</clustering>
</event>
<event>
 6    0  0.7442036E+002  0.1439214E+03  0.7546771E-02  0.1208148E+00
         21   -1    0    0  505  501  0.00000000000E+00  0.00000000000E+00  0.18529206441E+03  0.18529206441E+03  0.00000000000E+00 0.  1.
         21   -1    0    0  506  502 -0.00000000000E+00 -0.00000000000E+00 -0.40689662684E+03  0.40689662684E+03  0.00000000000E+00 0.  1.
         21    1    1    2  503  502  0.83126032394E+02  0.62806502153E+02 -0.27886162829E+03  0.29768843059E+03  0.00000000000E+00 0.  1.
         21    1    1    2  504  501  0.21410864086E+02 -0.39796698291E+02 -0.54308624491E+01  0.45515893518E+02  0.00000000000E+00 0.  1.
         21    1    1    2  505  503 -0.15292467547E+03 -0.38514430480E+02  0.99297701103E+02  0.18635812611E+03  0.00000000000E+00 0.  1.
         21    1    1    2  506  504  0.48387778989E+02  0.15504626619E+02 -0.36609772796E+02  0.62626241036E+02  0.00000000000E+00 0.  1.
<scales pt_clust_3="14000.00000" pt_clust_4="45.19073" pt_clust_5="143.92141" pt_clust_6="51.57897"></scales>
<clustering>
<clus scale="   45.191">  1  4  2 -1</clus>
<clus scale="   51.579">  2  6  1 -1</clus>
<clus scale="  143.921">  1  5  2 -1</clus>
<clus scale="   45.191">  1  3  2 -1</clus>
</clustering>
</event>
<event>
 6    0  0.7442036E+002  0.7436350E+02  0.7546771E-02  0.1345853E+00
         21   -1    0    0  504  501  0.00000000000E+00  0.00000000000E+00  0.13526183689E+03  0.13526183689E+03  0.00000000000E+00 0.  1.
         21   -1    0    0  506  502 -0.00000000000E+00 -0.00000000000E+00 -0.32160008058E+03  0.32160008058E+03  0.00000000000E+00 0. -1.
         21    1    1    2  503  501  0.73694980700E+02  0.45552114810E+01  0.71981805719E+02  0.10311682931E+03  0.00000000000E+00 0.  1.
         21    1    1    2  504  502 -0.81989851422E+02  0.92423722592E+02 -0.17297566347E+03  0.21256777834E+03  0.00000000000E+00 0. -1.
         21    1    1    2  505  503  0.27738533082E+02 -0.55817088690E+02 -0.29013727041E+02  0.68751508813E+02  0.00000000000E+00 0.  1.
         21    1    1    2  506  505 -0.19443662360E+02 -0.41161845383E+02 -0.56330658900E+02  0.72425801020E+02  0.00000000000E+00 0.  1.
<scales pt_clust_3="14000.00000" pt_clust_4="74.36350" pt_clust_5="68.02996" pt_clust_6="45.52311"></scales>
<clustering>
<clus scale="   45.523">  2  6  1 -1</clus>
<clus scale="   68.030">  2  5  1 -1</clus>
<clus scale="   74.364">  2  4  1 -1</clus>
<clus scale="   74.364">  1  3  2 -1</clus>
</clustering>
</event>
<event>
 6    0  0.7442036E+002  0.1178609E+03  0.7546771E-02  0.1246668E+00
         21   -1    0    0  506  501  0.00000000000E+00  0.00000000000E+00  0.49240167279E+03  0.49240167279E+03  0.00000000000E+00 0.  1.
         21   -1    0    0  504  502 -0.00000000000E+00 -0.00000000000E+00 -0.14010255894E+03  0.14010255894E+03  0.00000000000E+00 0.  1.
         21    1    1    2  503  501  0.93092544355E+02 -0.23282357529E+02  0.30512990038E+03  0.31986332408E+03  0.00000000000E+00 0.  1.
         21    1    1    2  504  505 -0.32815137342E+02  0.69708693720E+02 -0.76476888039E+02  0.10855804725E+03  0.00000000000E+00 0.  1.
         21    1    1    2  505  503 -0.69637521733E+01  0.40312219411E+02 -0.36584306802E+01  0.41072533318E+02  0.00000000000E+00 0.  1.
         21    1    1    2  506  502 -0.53313654840E+02 -0.86738555602E+02  0.12730453218E+03  0.16301032708E+03  0.00000000000E+00 0.  1.
<scales pt_clust_3="95.95984" pt_clust_4="34.79903" pt_clust_5="34.79903" pt_clust_6="107.75206"></scales>
<clustering>
<clus scale="   34.799">  4  5 -1 -1</clus>
<clus scale="   95.960">  1  3  2 -1</clus>
<clus scale="  107.752">  1  6  2 -1</clus>
<clus scale="   95.960">  1  3  2 -1</clus>
</clustering>
</event>
<event>
 6    0  0.7442036E+002  0.1412519E+03  0.7546771E-02  0.1211654E+00
         21   -1    0    0  503  501  0.00000000000E+00  0.00000000000E+00  0.29348730010E+03  0.29348730010E+03  0.00000000000E+00 0.  1.
         21   -1    0    0  506  502 -0.00000000000E+00 -0.00000000000E+00 -0.27128133891E+03  0.27128133891E+03  0.00000000000E+00 0.  1.
         21    1    1    2  503  504  0.13244439690E+03 -0.92852638196E+02 -0.31875484508E+02  0.16486108456E+03  0.00000000000E+00 0.  1.
         21    1    1    2  504  505 -0.65372003620E+02  0.22693420251E+00 -0.41952728546E+02  0.77676133972E+02  0.00000000000E+00 0.  1.
         21    1    1    2  505  502 -0.59598290480E+02 -0.48428293363E+02 -0.70231198568E+02  0.10406573441E+03  0.00000000000E+00 0.  1.
         21    1    1    2  506  501 -0.74741028012E+01  0.14105399736E+03  0.16626537281E+03  0.21816568607E+03  0.00000000000E+00 0.  1.
<scales pt_clust_3="127.53729" pt_clust_4="46.16848" pt_clust_5="46.16848" pt_clust_6="141.25188"></scales>
<clustering>
<clus scale="   46.168">  4  5 -1 -1</clus>
<clus scale="  141.252">  1  6  2 -1</clus>
<clus scale="  127.537">  1  3  2 -1</clus>
<clus scale="  141.252">  1  3  2 -1</clus>
</clustering>
</event>
<event>
 6    0  0.7442036E+002  0.1548947E+03  0.7546771E-02  0.1194584E+00
         21   -1    0    0  502  501  0.00000000000E+00  0.00000000000E+00  0.30684392365E+03  0.30684392365E+03  0.00000000000E+00 0. -1.
         21   -1    0    0  503  502 -0.00000000000E+00 -0.00000000000E+00 -0.35109141804E+03  0.35109141804E+03  0.00000000000E+00 0. -1.
         21    1    1    2  503  504  0.54217686853E+01  0.67892475759E+02 -0.12665490321E+03  0.14380628758E+03  0.00000000000E+00 0.  1.
         21    1    1    2  504  505 -0.13156497352E+03  0.99407326793E+01 -0.17076610296E+03  0.21579903231E+03  0.00000000000E+00 0. -1.
         21    1    1    2  505  506  0.63181354704E+02 -0.91103343820E+01  0.88674536309E+02  0.10926140748E+03  0.00000000000E+00 0. -1.
         21    1    1    2  506  501  0.62961850131E+02 -0.68722874056E+02  0.16449897547E+03  0.18906861433E+03  0.00000000000E+00 0. -1.
<scales pt_clust_3="68.10862" pt_clust_4="145.11548" pt_clust_5="44.82606" pt_clust_6="44.82606"></scales>
<clustering>
<clus scale="   44.826">  5  6 -1 -1</clus>
<clus scale="   68.109">  2  3  1 -1</clus>
<clus scale="  145.115">  2  4  1 -1</clus>
<clus scale="  154.895">  1  3  2 -1</clus>
</clustering>
</event>
<event>
 6    0  0.7442036E+002  0.2055853E+03  0.7546771E-02  0.1145110E+00
         21   -1    0    0  502  501  0.00000000000E+00  0.00000000000E+00  0.78780819122E+03  0.78780819122E+03  0.00000000000E+00 0. -1.
         21   -1    0    0  503  502 -0.00000000000E+00 -0.00000000000E+00 -0.63223268298E+03  0.63223268298E+03  0.00000000000E+00 0. -1.
         21    1    1    2  503  504 -0.13059896995E+03 -0.88899744817E+02 -0.51414819520E+03  0.53787323991E+03  0.00000000000E+00 0. -1.
         21    1    1    2  504  506 -0.44665030051E+02  0.42947282595E+01 -0.85660425190E+02  0.96701179124E+02  0.00000000000E+00 0.  1.
         21    1    1    2  505  501  0.30340798508E+02  0.37842203672E+02  0.33209785734E+03  0.33562119016E+03  0.00000000000E+00 0. -1.
         21    1    1    2  506  505  0.14492320149E+03  0.46762812886E+02  0.42328627129E+03  0.44984526502E+03  0.00000000000E+00 0. -1.
<scales pt_clust_3="37.83033" pt_clust_4="37.83033" pt_clust_5="48.50357" pt_clust_6="192.94164"></scales>
<clustering>
<clus scale="   37.830">  3  4 -1 -1</clus>
<clus scale="   48.504">  1  5  2 -1</clus>
<clus scale="  192.942">  1  6  2 -1</clus>
<clus scale="   48.504">  1  3  2 -1</clus>
</clustering>
</event>
<event>
 6    0  0.7442036E+002  0.1705519E+03  0.7546771E-02  0.1177274E+00
         21   -1    0    0  506  501  0.00000000000E+00  0.00000000000E+00  0.13028103769E+04  0.13028103769E+04  0.00000000000E+00 0. -1.
         21   -1    0    0  504  502 -0.00000000000E+00 -0.00000000000E+00 -0.52157635030E+02  0.52157635030E+02  0.00000000000E+00 0. -1.
         21    1    1    2  503  505  0.44527597373E+02 -0.42430746782E+02  0.27167749410E+02  0.67239585129E+02  0.00000000000E+00 0. -1.
         21    1    1    2  504  501  0.31634431204E+02  0.10205414483E+02  0.13835422982E+03  0.14229118255E+03  0.00000000000E+00 0.  1.
         21    1    1    2  505  502  0.10180722112E+03 -0.71144661750E+01  0.97550890645E+02  0.14117897212E+03  0.00000000000E+00 0. -1.
         21    1    1    2  506  503 -0.17796924970E+03  0.39339798473E+02  0.98757987195E+03  0.10042582721E+04  0.00000000000E+00 0. -1.
<scales pt_clust_3="48.70034" pt_clust_4="33.23985" pt_clust_5="48.70034" pt_clust_6="158.34456"></scales>
<clustering>
<clus scale="   33.240">  1  4  2 -1</clus>
<clus scale="   48.700">  3  5 -1 -1</clus>
<clus scale="  158.345">  1  6  2 -1</clus>
<clus scale="   33.240">  1  3  2 -1</clus>
</clustering>
</event>
<event>
 6    0  0.7442036E+002  0.1098733E+03  0.7546771E-02  0.1260805E+00
         21   -1    0    0  506  501  0.00000000000E+00  0.00000000000E+00  0.68484908335E+02  0.68484908335E+02  0.00000000000E+00 0.  1.
         21   -1    0    0  505  502 -0.00000000000E+00 -0.00000000000E+00 -0.71139851017E+03  0.71139851017E+03  0.00000000000E+00 0.  1.
         21    1    1    2  503  504  0.24621311984E+02  0.59500628399E+02 -0.24880911887E+03  0.25700683146E+03  0.00000000000E+00 0.  1.
         21    1    1    2  504  502 -0.19533599341E+02  0.40143873966E+02 -0.22329070732E+03  0.22770997364E+03  0.00000000000E+00 0.  1.
         21    1    1    2  505  501 -0.10990348994E+03 -0.59511150670E+02 -0.11490949051E+03  0.16977792897E+03  0.00000000000E+00 0.  1.
         21    1    1    2  506  503  0.10481577730E+03 -0.40133351694E+02 -0.55904285136E+02  0.12538868444E+03  0.00000000000E+00 0.  1.
<scales pt_clust_3="109.87327" pt_clust_4="38.31280" pt_clust_5="106.80392" pt_clust_6="14000.00000"></scales>
<clustering>
<clus scale="   38.313">  3  4 -1 -1</clus>
<clus scale="  109.873">  2  3  1 -1</clus>
<clus scale="  106.804">  2  5  1 -1</clus>
<clus scale="  109.873">  1  3  2 -1</clus>
</clustering>
</event>
<event>
 6    0  0.7442036E+002  0.9897328E+02  0.7546771E-02  0.1282470E+00
         21   -1    0    0  503  501  0.00000000000E+00  0.00000000000E+00  0.10665285658E+03  0.10665285658E+03  0.00000000000E+00 0. -1.
         21   -1    0    0  505  502 -0.00000000000E+00 -0.00000000000E+00 -0.25036760966E+03  0.25036760966E+03  0.00000000000E+00 0. -1.
         21    1    1    2  503  506  0.78203855569E+02  0.55216892066E+02  0.22135288351E+01  0.95758278521E+02  0.00000000000E+00 0. -1.
         21    1    1    2  504  502 -0.32872393339E+02  0.24803016758E+02 -0.81443379927E+02  0.91262303379E+02  0.00000000000E+00 0. -1.
         21    1    1    2  505  501 -0.35541287134E+02 -0.11333727385E+03 -0.33381115986E+02  0.12338079121E+03  0.00000000000E+00 0. -1.
         21    1    1    2  506  504 -0.97901750972E+01  0.33317365024E+02 -0.31103786006E+02  0.46619093132E+02  0.00000000000E+00 0. -1.
<scales pt_clust_3="98.97328" pt_clust_4="79.65184" pt_clust_5="14000.00000" pt_clust_6="31.09150"></scales>
<clustering>
<clus scale="   31.092">  4  6 -1 -1</clus>
<clus scale="   79.652">  2  4  1 -1</clus>
<clus scale="   98.973">  1  3  2 -1</clus>
<clus scale="   98.973">  1  3  2 -1</clus>
</clustering>
</event>
<event>
 6    0  0.7442036E+002  0.1420377E+03  0.7546771E-02  0.1210613E+00
         21   -1    0    0  503  501  0.00000000000E+00  0.00000000000E+00  0.14320930965E+04  0.14320930965E+04  0.00000000000E+00 0. -1.
         21   -1    0    0  506  502 -0.00000000000E+00 -0.00000000000E+00 -0.10068389176E+03  0.10068389176E+03  0.00000000000E+00 0. -1.
         21    1    1    2  503  504 -0.11970019924E+02 -0.68828308943E+02  0.11074512703E+04  0.11096526184E+04  0.00000000000E+00 0. -1.
         21    1    1    2  504  505  0.46340026883E+02  0.67700682738E+02  0.17674655527E+03  0.19485924493E+03  0.00000000000E+00 0. -1.
         21    1    1    2  505  502  0.58240058669E+02  0.68250905674E+02  0.67273203728E+02  0.11214176073E+03  0.00000000000E+00 0. -1.
         21    1    1    2  506  501 -0.92610065628E+02 -0.67123279469E+02 -0.20061824555E+02  0.11612336417E+03  0.00000000000E+00 0. -1.
<scales pt_clust_3="69.86142" pt_clust_4="69.51101" pt_clust_5="69.51101" pt_clust_6="122.02687"></scales>
<clustering>
<clus scale="   69.511">  4  5 -1 -1</clus>
<clus scale="   69.861">  1  3  2 -1</clus>
<clus scale="  122.027">  2  6  1 -1</clus>
<clus scale="   69.861">  1  3  2 -1</clus>
</clustering>
</event>
<event>
 6    0  0.7442036E+002  0.1031461E+03  0.7546771E-02  0.1273816E+00
         21   -1    0    0  506  501  0.00000000000E+00  0.00000000000E+00  0.27849808139E+03  0.27849808139E+03  0.00000000000E+00 0.  1.
         21   -1    0    0  505  502 -0.00000000000E+00 -0.00000000000E+00 -0.20474728678E+03  0.20474728678E+03  0.00000000000E+00 0.  1.
         21    1    1    2  503  502 -0.69345184832E+02 -0.72241215570E+02 -0.12851402790E+03  0.16292146345E+03  0.00000000000E+00 0.  1.
         21    1    1    2  504  501  0.29500310642E+02 -0.82349122956E+01  0.13956739711E+03  0.14288855953E+03  0.00000000000E+00 0.  1.
         21    1    1    2  505  504  0.82925026302E+02  0.86744294591E+02  0.59058047767E+02  0.13374971266E+03  0.00000000000E+00 0.  1.
         21    1    1    2  506  503 -0.43080152111E+02 -0.62681667256E+01  0.36393776180E+01  0.43685632529E+02  0.00000000000E+00 0.  1.
<scales pt_clust_3="14000.00000" pt_clust_4="30.62813" pt_clust_5="103.14611" pt_clust_6="38.76486"></scales>
<clustering>
<clus scale="   30.628">  1  4  2 -1</clus>
<clus scale="   38.765">  1  6  2 -1</clus>
<clus scale="  103.146">  1  5  2 -1</clus>
<clus scale="   30.628">  1  3  2 -1</clus>
</clustering>
</event>
<event>
 6    0  0.7442036E+002  0.1205001E+03  0.7546771E-02  0.1242274E+00
         21   -1    0    0  506  501  0.00000000000E+00  0.00000000000E+00  0.23628105602E+03  0.23628105602E+03  0.00000000000E+00 0. -1.
         21   -1    0    0  505  502 -0.00000000000E+00 -0.00000000000E+00 -0.47853814415E+03  0.47853814415E+03  0.00000000000E+00 0. -1.
         21    1    1    2  503  504 -0.18109481580E+02  0.63104244041E+02  0.71204643349E+02  0.96851433513E+02  0.00000000000E+00 0.  1.
         21    1    1    2  504  501 -0.27201192445E+02  0.35810193122E+02  0.12997857360E+03  0.13753801073E+03  0.00000000000E+00 0. -1.
         21    1    1    2  505  503  0.16129832386E+02 -0.11972620831E+03 -0.42135077114E+03  0.43832751315E+03  0.00000000000E+00 0. -1.
         21    1    1    2  506  502  0.29180841640E+02  0.20811771143E+02 -0.22089533932E+02  0.42102242769E+02  0.00000000000E+00 0. -1.
<scales pt_clust_3="42.29995" pt_clust_4="42.29995" pt_clust_5="109.05811" pt_clust_6="35.84203"></scales>
<clustering>
<clus scale="   35.842">  2  6  1 -1</clus>
<clus scale="   42.300">  3  4 -1 -1</clus>
<clus scale="  109.058">  2  5  1 -1</clus>
<clus scale="  120.500">  1  3  2 -1</clus>
</clustering>
</event>
<event>
 6    0  0.7442036E+002  0.1309760E+03  0.7546771E-02  0.1226015E+00
         21   -1    0    0  505  501  0.00000000000E+00  0.00000000000E+00  0.14020561238E+03  0.14020561238E+03  0.00000000000E+00 0.  1.
         21   -1    0    0  503  502 -0.00000000000E+00 -0.00000000000E+00 -0.93185052504E+03  0.93185052504E+03  0.00000000000E+00 0.  1.
         21    1    1    2  503  504 -0.16265251103E+02  0.28681797008E+02 -0.21279336413E+03  0.21533281146E+03  0.00000000000E+00 0. -1.
         21    1    1    2  504  506 -0.26671312591E+02  0.10333458645E+03 -0.50070788535E+02  0.11788333019E+03  0.00000000000E+00 0.  1.
         21    1    1    2  505  502  0.29451473114E+02  0.13702131597E+02 -0.58216146001E+03  0.58306698003E+03  0.00000000000E+00 0.  1.
         21    1    1    2  506  501  0.13485090580E+02 -0.14571851505E+03  0.53380700026E+02  0.15577301574E+03  0.00000000000E+00 0.  1.
<scales pt_clust_3="37.12350" pt_clust_4="14000.00000" pt_clust_5="32.48288" pt_clust_6="130.97599"></scales>
<clustering>
<clus scale="   32.483">  2  5  1 -1</clus>
<clus scale="   37.123">  2  3  1 -1</clus>
<clus scale="  130.976">  1  6  2 -1</clus>
<clus scale="  130.976">  1  3  2 -1</clus>
</clustering>
</event>
<event>
 6    0  0.7442036E+002  0.8716459E+02  0.7546771E-02  0.1309867E+00
         21   -1    0    0  506  501  0.00000000000E+00  0.00000000000E+00  0.19405283713E+04  0.19405283713E+04  0.00000000000E+00 0.  1.
         21   -1    0    0  504  502 -0.00000000000E+00 -0.00000000000E+00 -0.58987266729E+03  0.58987266729E+03  0.00000000000E+00 0.  1.
         21    1    1    2  503  501  0.41763889912E+02 -0.55726877235E+02  0.33219312364E+03  0.33941416992E+03  0.00000000000E+00 0. -1.
         21    1    1    2  504  503 -0.77452250769E+01  0.30214179529E+02 -0.12138458365E+02  0.33469797244E+02  0.00000000000E+00 0. -1.
         21    1    1    2  505  502  0.94105895472E+02 -0.37029391099E+02 -0.55569732565E+03  0.56482440909E+03  0.00000000000E+00 0.  1.
         21    1    1    2  506  505 -0.12812456031E+03  0.62542088806E+02  0.15862983644E+04  0.15926926623E+04  0.00000000000E+00 0.  1.
<scales pt_clust_3="69.45637" pt_clust_4="31.19111" pt_clust_5="14000.00000" pt_clust_6="87.16459"></scales>
<clustering>
<clus scale="   31.191">  2  4  1 -1</clus>
<clus scale="   69.456">  1  3  2 -1</clus>
<clus scale="   87.165">  1  6  2 -1</clus>
<clus scale="   69.456">  1  3  2 -1</clus>
</clustering>
</event>
<event>
 6    0  0.7442036E+002  0.1299870E+03  0.7546771E-02  0.1227475E+00
         21   -1    0    0  506  501  0.00000000000E+00  0.00000000000E+00  0.30230465076E+03  0.30230465076E+03  0.00000000000E+00 0. -1.
         21   -1    0    0  504  502 -0.00000000000E+00 -0.00000000000E+00 -0.12586301991E+04  0.12586301991E+04  0.00000000000E+00 0. -1.
         21    1    1    2  503  501  0.42245925868E+02 -0.11976158696E+03 -0.13479897872E+03  0.18519805784E+03  0.00000000000E+00 0. -1.
         21    1    1    2  504  505  0.24725000977E+02 -0.32302859658E+02 -0.66609751596E+03  0.66733852068E+03  0.00000000000E+00 0. -1.
         21    1    1    2  505  503  0.42130225907E+02  0.76813347278E+02 -0.41114570070E+03  0.42037606195E+03  0.00000000000E+00 0. -1.
         21    1    1    2  506  502 -0.10910115275E+03  0.75251099338E+02  0.25571664709E+03  0.28802220936E+03  0.00000000000E+00 0. -1.
<scales pt_clust_3="129.98700" pt_clust_4="40.67924" pt_clust_5="80.43188" pt_clust_6="14000.00000"></scales>
<clustering>
<clus scale="   40.679">  2  4  1 -1</clus>
<clus scale="   80.432">  2  5  1 -1</clus>
<clus scale="  129.987">  2  3  1 -1</clus>
<clus scale="  129.987">  1  3  2 -1</clus>
</clustering>
</event>
<event>
 6    0  0.7442036E+002  0.1236512E+03  0.7546771E-02  0.1237192E+00
         21   -1    0    0  503  501  0.00000000000E+00  0.00000000000E+00  0.14129208491E+03  0.14129208491E+03  0.00000000000E+00 0. -1.
         21   -1    0    0  505  502 -0.00000000000E+00 -0.00000000000E+00 -0.55458935133E+03  0.55458935133E+03  0.00000000000E+00 0. -1.
         21    1    1    2  503  506  0.79907151140E+02 -0.40202042835E+02 -0.33082728132E+03  0.34270694057E+03  0.00000000000E+00 0. -1.
         21    1    1    2  504  501 -0.40026343963E+01  0.41938166641E+02  0.61556581312E+02  0.74592517092E+02  0.00000000000E+00 0. -1.
         21    1    1    2  505  504 -0.80593078375E+02  0.33911064991E+02  0.36324508563E+02  0.94681965195E+02  0.00000000000E+00 0. -1.
         21    1    1    2  506  502  0.46885616312E+01 -0.35647188797E+02 -0.18035107497E+03  0.18390001339E+03  0.00000000000E+00 0. -1.
<scales pt_clust_3="35.31076" pt_clust_4="42.12874" pt_clust_5="110.39740" pt_clust_6="35.31076"></scales>
<clustering>
<clus scale="   35.311">  3  6 -1 -1</clus>
<clus scale="   42.129">  1  4  2 -1</clus>
<clus scale="  110.397">  1  5  2 -1</clus>
<clus scale="   42.129">  1  3  2 -1</clus>
</clustering>
</event>
<event>
 6    0  0.7442036E+002  0.7577373E+02  0.7546771E-02  0.1341492E+00
         21   -1    0    0  505  501  0.00000000000E+00  0.00000000000E+00  0.33950242937E+03  0.33950242937E+03  0.00000000000E+00 0. -1.
         21   -1    0    0  503  502 -0.00000000000E+00 -0.00000000000E+00 -0.16698262725E+03  0.16698262725E+03  0.00000000000E+00 0. -1.
         21    1    1    2  503  506  0.11302583691E+03  0.21158183738E+02 -0.62429398346E+02  0.13084318219E+03  0.00000000000E+00 0. -1.
         21    1    1    2  504  502 -0.55991676510E+02 -0.11864423944E+02 -0.34443920032E+02  0.66799820518E+02  0.00000000000E+00 0. -1.
         21    1    1    2  505  504 -0.25906867522E+02  0.44100814342E+02  0.22984400216E+03  0.23546616092E+03  0.00000000000E+00 0. -1.
         21    1    1    2  506  501 -0.31127292879E+02 -0.53394574136E+02  0.39549118337E+02  0.73375892978E+02  0.00000000000E+00 0. -1.
<scales pt_clust_3="14000.00000" pt_clust_4="75.77373" pt_clust_5="51.14731" pt_clust_6="53.98161"></scales>
<clustering>
<clus scale="   51.147">  1  5  2 -1</clus>
<clus scale="   53.982">  1  6  2 -1</clus>
<clus scale="   75.774">  2  4  1 -1</clus>
<clus scale="   51.147">  1  3  2 -1</clus>
</clustering>
</event>
<event>
 6    0  0.7442036E+002  0.7614037E+02  0.7546771E-02  0.1340376E+00
         21   -1    0    0  504  501  0.00000000000E+00  0.00000000000E+00  0.66964983948E+03  0.66964983948E+03  0.00000000000E+00 0. -1.
         21   -1    0    0  501  502 -0.00000000000E+00 -0.00000000000E+00 -0.49475946028E+02  0.49475946028E+02  0.00000000000E+00 0. -1.
         21    1    1    2  503  502  0.15296901845E+02  0.59970145740E+02  0.32377674904E+02  0.69847887716E+02  0.00000000000E+00 0. -1.
         21    1    1    2  504  506 -0.50840517309E+02  0.54527312999E+02  0.37192967355E+03  0.37932791636E+03  0.00000000000E+00 0. -1.
         21    1    1    2  505  503 -0.30370599611E+02 -0.66469165516E+02  0.62128982533E+02  0.95919412820E+02  0.00000000000E+00 0. -1.
         21    1    1    2  506  505  0.65914215075E+02 -0.48028293222E+02  0.15373756246E+03  0.17403056861E+03  0.00000000000E+00 0. -1.
<scales pt_clust_3="61.89034" pt_clust_4="14000.00000" pt_clust_5="40.06589" pt_clust_6="76.14037"></scales>
<clustering>
<clus scale="   61.890">  2  3  1 -1</clus>
<clus scale="   40.066">  2  5  1 -1</clus>
<clus scale="   76.140">  2  6  1 -1</clus>
<clus scale="   76.140">  1  3  2 -1</clus>
</clustering>
</event>
<event>
 6    0  0.7442036E+002  0.1419674E+03  0.7546771E-02  0.1210706E+00
         21   -1    0    0  503  501  0.00000000000E+00  0.00000000000E+00  0.11724142336E+03  0.11724142336E+03  0.00000000000E+00 0.  1.
         21   -1    0    0  501  502 -0.00000000000E+00 -0.00000000000E+00 -0.25084678474E+04  0.25084678474E+04  0.00000000000E+00 0. -1.
         21    1    1    2  503  505  0.26072616379E+02 -0.20079208565E+02  0.46466179970E+02  0.56939106267E+02  0.00000000000E+00 0.  1.
         21    1    1    2  504  506 -0.56247721315E+02 -0.49690979552E+02 -0.12625676482E+04  0.12647964523E+04  0.00000000000E+00 0. -1.
         21    1    1    2  505  504  0.95229434767E+02  0.86985997112E+02 -0.20740878013E+01  0.12899422770E+03  0.00000000000E+00 0.  1.
         21    1    1    2  506  502 -0.65054329831E+02 -0.17215808995E+02 -0.11730508681E+04  0.11749794845E+04  0.00000000000E+00 0. -1.
<scales pt_clust_3="32.90830" pt_clust_4="31.09454" pt_clust_5="138.11732" pt_clust_6="31.09454"></scales>
<clustering>
<clus scale="   31.095">  4  6 -1 -1</clus>
<clus scale="   32.908">  1  3  2 -1</clus>
<clus scale="  138.117">  1  5  2 -1</clus>
<clus scale="   32.908">  1  3  2 -1</clus>
</clustering>
</event>
<event>
 6    0  0.7442036E+002  0.7927984E+02  0.7546771E-02  0.1331108E+00
         21   -1    0    0  505  501  0.00000000000E+00  0.00000000000E+00  0.32755829640E+02  0.32755829640E+02  0.00000000000E+00 0. -1.
         21   -1    0    0  504  502 -0.00000000000E+00 -0.00000000000E+00 -0.14347598298E+04  0.14347598298E+04  0.00000000000E+00 0. -1.
         21    1    1    2  503  502 -0.55978307326E+02 -0.90939100536E+01 -0.58277823928E+03  0.58553116593E+03  0.00000000000E+00 0. -1.
         21    1    1    2  504  506  0.35619257453E+02 -0.10230642263E+02 -0.61991999041E+03  0.62102672410E+03  0.00000000000E+00 0. -1.
         21    1    1    2  505  503 -0.40836676527E+02 -0.56324675364E+02 -0.65820172981E+02  0.95772638973E+02  0.00000000000E+00 0. -1.
         21    1    1    2  506  501  0.61195726400E+02  0.75649227680E+02 -0.13348559745E+03  0.16518513040E+03  0.00000000000E+00 0. -1.
<scales pt_clust_3="34.57994" pt_clust_4="37.05938" pt_clust_5="14000.00000" pt_clust_6="79.27984"></scales>
<clustering>
<clus scale="   37.059">  2  4  1 -1</clus>
<clus scale="   34.580">  2  3  1 -1</clus>
<clus scale="   79.280">  2  6  1 -1</clus>
<clus scale="   79.280">  1  3  2 -1</clus>
</clustering>
</event>
<event>
 6    0  0.7442036E+002  0.2459127E+03  0.7546771E-02  0.1115915E+00
         21   -1    0    0  504  501  0.00000000000E+00  0.00000000000E+00  0.15573306029E+03  0.15573306029E+03  0.00000000000E+00 0.  1.
         21   -1    0    0  505  502 -0.00000000000E+00 -0.00000000000E+00 -0.50204022476E+03  0.50204022476E+03  0.00000000000E+00 0.  1.
         21    1    1    2  503  506 -0.16384466859E+03 -0.44507353389E+02 -0.44309320234E+02  0.17546878865E+03  0.00000000000E+00 0.  1.
         21    1    1    2  504  503 -0.29019458772E+02 -0.58060500425E+02  0.40576917625E+00  0.64910055813E+02  0.00000000000E+00 0. -1.
         21    1    1    2  505  501  0.22203151473E+03  0.11437230612E+03 -0.23466743327E+03  0.34270661239E+03  0.00000000000E+00 0.  1.
         21    1    1    2  506  502 -0.29167387366E+02 -0.11804452303E+02 -0.67736180149E+02  0.74687828199E+02  0.00000000000E+00 0.  1.
<scales pt_clust_3="55.25670" pt_clust_4="55.25670" pt_clust_5="228.76913" pt_clust_6="31.46556"></scales>
<clustering>
<clus scale="   31.466">  2  6  1 -1</clus>
<clus scale="   55.257">  3  4 -1 -1</clus>
<clus scale="  228.769">  2  5  1 -1</clus>
<clus scale="  245.913">  1  3  2 -1</clus>
</clustering>
</event>
<event>
 6    0  0.7442036E+002  0.9969883E+02  0.7546771E-02  0.1280931E+00
         21   -1    0    0  503  501  0.00000000000E+00  0.00000000000E+00  0.43679132779E+03  0.43679132779E+03  0.00000000000E+00 0.  1.
         21   -1    0    0  504  502 -0.00000000000E+00 -0.00000000000E+00 -0.12819474547E+03  0.12819474547E+03  0.00000000000E+00 0.  1.
         21    1    1    2  503  506 -0.31066348210E+02 -0.10510891998E+03  0.36627733760E+03  0.38232458865E+03  0.00000000000E+00 0.  1.
         21    1    1    2  504  505 -0.24128410927E+02  0.19124327471E+02  0.61381138581E+01  0.31394212155E+02  0.00000000000E+00 0.  1.
         21    1    1    2  505  501 -0.10302049374E+01  0.43293134286E+02 -0.67921157416E+02  0.80552097572E+02  0.00000000000E+00 0.  1.
         21    1    1    2  506  502  0.56224964075E+02  0.42691458222E+02  0.41022882798E+01  0.70715174888E+02  0.00000000000E+00 0.  1.
<scales pt_clust_3="99.69883" pt_clust_4="30.78831" pt_clust_5="57.98401" pt_clust_6="14000.00000"></scales>
<clustering>
<clus scale="   30.788">  2  4  1 -1</clus>
<clus scale="   57.984">  2  5  1 -1</clus>
<clus scale="   99.699">  1  3  2 -1</clus>
<clus scale="   99.699">  1  3  2 -1</clus>
</clustering>
</event>
<event>
 6    0  0.7442036E+002  0.1333879E+03  0.7546771E-02  0.1222514E+00
         21   -1    0    0  504  501  0.00000000000E+00  0.00000000000E+00  0.69188539012E+03  0.69188539012E+03  0.00000000000E+00 0.  1.
         21   -1    0    0  505  502 -0.00000000000E+00 -0.00000000000E+00 -0.10613527404E+03  0.10613527404E+03  0.00000000000E+00 0.  1.
         21    1    1    2  503  506  0.56207043455E+02 -0.40475965060E+02 -0.31871146280E+02  0.76245035554E+02  0.00000000000E+00 0.  1.
         21    1    1    2  504  502 -0.12250939110E+03  0.35893556215E+02  0.62656928702E+03  0.63944192053E+03  0.00000000000E+00 0.  1.
         21    1    1    2  505  503  0.28577170523E+02  0.17496678243E+02 -0.22337870057E+02  0.40271191482E+02  0.00000000000E+00 0.  1.
         21    1    1    2  506  501  0.37725177125E+02 -0.12914269399E+02  0.13389845389E+02  0.42062516601E+02  0.00000000000E+00 0.  1.
<scales pt_clust_3="32.74952" pt_clust_4="125.74176" pt_clust_5="33.50804" pt_clust_6="32.74952"></scales>
<clustering>
<clus scale="   33.508">  2  5  1 -1</clus>
<clus scale="   32.750">  3  6 -1 -1</clus>
<clus scale="  125.742">  1  4  2 -1</clus>
<clus scale="  125.742">  1  3  2 -1</clus>
</clustering>
</event>
<event>
 6    0  0.7442036E+002  0.1564183E+03  0.7546771E-02  0.1192801E+00
         21   -1    0    0  505  501  0.00000000000E+00  0.00000000000E+00  0.21792236234E+04  0.21792236234E+04  0.00000000000E+00 0. -1.
         21   -1    0    0  503  502 -0.00000000000E+00 -0.00000000000E+00 -0.19326586339E+02  0.19326586339E+02  0.00000000000E+00 0. -1.
         21    1    1    2  503  501  0.32761952415E+02 -0.81991922595E+01  0.37182016354E+03  0.37335078183E+03  0.00000000000E+00 0. -1.
         21    1    1    2  504  506  0.45529554539E+02  0.42463592107E+02  0.97470738950E+02  0.11565743358E+03  0.00000000000E+00 0. -1.
         21    1    1    2  505  504 -0.14615712439E+03 -0.69794553858E+02  0.13868355233E+04  0.13962614201E+04  0.00000000000E+00 0. -1.
         21    1    1    2  506  502  0.67865617436E+02  0.35530154011E+02  0.30377061131E+03  0.31328057420E+03  0.00000000000E+00 0. -1.
<scales pt_clust_3="33.77236" pt_clust_4="56.29784" pt_clust_5="142.88096" pt_clust_6="56.29784"></scales>
<clustering>
<clus scale="   33.772">  1  3  2 -1</clus>
<clus scale="   56.298">  4  6 -1 -1</clus>
<clus scale="  142.881">  1  5  2 -1</clus>
<clus scale="   33.772">  1  3  2 -1</clus>
</clustering>
</event>
<event>
 6    0  0.7442036E+002  0.1422526E+03  0.7546771E-02  0.1210330E+00
         21   -1    0    0  506  501  0.00000000000E+00  0.00000000000E+00  0.57415385057E+03  0.57415385057E+03  0.00000000000E+00 0. -1.
         21   -1    0    0  504  502 -0.00000000000E+00 -0.00000000000E+00 -0.17660254188E+03  0.17660254188E+03  0.00000000000E+00 0. -1.
         21    1    1    2  503  502 -0.72036522956E+02  0.37092208781E+02 -0.10186606833E+03  0.13016062565E+03  0.00000000000E+00 0. -1.
         21    1    1    2  504  501 -0.64232323110E+02  0.19749239361E+02 -0.51788620412E+01  0.67399142424E+02  0.00000000000E+00 0. -1.
         21    1    1    2  505  503  0.16425307247E+03 -0.86619346732E+02  0.42178133171E+03  0.46084864633E+03  0.00000000000E+00 0. -1.
         21    1    1    2  506  505 -0.27984226406E+02  0.29777898591E+02  0.82814907341E+02  0.92347978050E+02  0.00000000000E+00 0. -1.
<scales pt_clust_3="14000.00000" pt_clust_4="69.48169" pt_clust_5="142.25258" pt_clust_6="40.86368"></scales>
<clustering>
<clus scale="   40.864">  1  6  2 -1</clus>
<clus scale="   69.482">  2  4  1 -1</clus>
<clus scale="  142.253">  1  5  2 -1</clus>
<clus scale="   40.864">  1  3  2 -1</clus>
</clustering>
</event>
<event>
 6    0  0.7442036E+002  0.1268700E+03  0.7546771E-02  0.1232175E+00
         21   -1    0    0  505  501  0.00000000000E+00  0.00000000000E+00  0.90729220843E+02  0.90729220843E+02  0.00000000000E+00 0.  1.
         21   -1    0    0  504  502 -0.00000000000E+00 -0.00000000000E+00 -0.28722289964E+04  0.28722289964E+04  0.00000000000E+00 0.  1.
         21    1    1    2  503  502 -0.37664893169E+02  0.46948531463E+01 -0.16198565331E+03  0.16637318805E+03  0.00000000000E+00 0.  1.
         21    1    1    2  504  506  0.30846814988E+01 -0.13023464595E+03 -0.26422964763E+04  0.26455058584E+04  0.00000000000E+00 0.  1.
         21    1    1    2  505  503  0.13291943443E+02  0.69332642621E+02  0.48556772471E+02  0.85682269146E+02  0.00000000000E+00 0.  1.
         21    1    1    2  506  501  0.21288268227E+02  0.56207150184E+02 -0.25774418395E+02  0.65396901605E+02  0.00000000000E+00 0.  1.
<scales pt_clust_3="37.95637" pt_clust_4="14000.00000" pt_clust_5="126.87002" pt_clust_6="59.95608"></scales>
<clustering>
<clus scale="   37.956">  2  3  1 -1</clus>
<clus scale="   59.956">  1  6  2 -1</clus>
<clus scale="  126.870">  1  5  2 -1</clus>
<clus scale="   59.956">  1  3  2 -1</clus>
</clustering>
</event>
<event>
 6    0  0.7442036E+002  0.1025584E+03  0.7546771E-02  0.1275006E+00
         21   -1    0    0  504  501  0.00000000000E+00  0.00000000000E+00  0.60059061994E+02  0.60059061994E+02  0.00000000000E+00 0. -1.
         21   -1    0    0  503  502 -0.00000000000E+00 -0.00000000000E+00 -0.12791321249E+04  0.12791321249E+04  0.00000000000E+00 0.  1.
         21    1    1    2  503  506  0.36624921758E+01  0.34593922151E+02 -0.43797404565E+03  0.43935340896E+03  0.00000000000E+00 0.  1.
         21    1    1    2  504  505 -0.72689036728E+02 -0.75871977572E+02 -0.38988169119E+00  0.10507333177E+03  0.00000000000E+00 0. -1.
         21    1    1    2  505  502  0.86781529422E+02  0.10279624239E+02 -0.71181697921E+03  0.71716115093E+03  0.00000000000E+00 0.  1.
         21    1    1    2  506  501 -0.17754984870E+02  0.30998431182E+02 -0.68892156357E+02  0.77603295233E+02  0.00000000000E+00 0.  1.
<scales pt_clust_3="34.78726" pt_clust_4="14000.00000" pt_clust_5="102.55844" pt_clust_6="38.22190"></scales>
<clustering>
<clus scale="   34.787">  2  3  1 -1</clus>
<clus scale="   38.222">  2  6  1 -1</clus>
<clus scale="  102.558">  2  5  1 -1</clus>
<clus scale="  102.558">  1  3  2 -1</clus>
</clustering>
</event>
<event>
 6    0  0.7442036E+002  0.9249227E+02  0.7546771E-02  0.1296926E+00
         21   -1    0    0  506  501  0.00000000000E+00  0.00000000000E+00  0.41439010686E+03  0.41439010686E+03  0.00000000000E+00 0.  1.
         21   -1    0    0  503  502 -0.00000000000E+00 -0.00000000000E+00 -0.12742270358E+03  0.12742270358E+03  0.00000000000E+00 0.  1.
         21    1    1    2  503  501  0.10901433070E+03  0.70490993735E+02 -0.57277004131E+02  0.14189348011E+03  0.00000000000E+00 0.  1.
         21    1    1    2  504  502 -0.39277988780E+02 -0.42103158936E+02  0.20670154988E+02  0.61177542466E+02  0.00000000000E+00 0.  1.
         21    1    1    2  505  504 -0.46563418460E+02 -0.18148153664E+00  0.80950368033E+02  0.93387081328E+02  0.00000000000E+00 0.  1.
         21    1    1    2  506  505 -0.23172923456E+02 -0.28206353262E+02  0.24262388439E+03  0.24535470654E+03  0.00000000000E+00 0.  1.
<scales pt_clust_3="14000.00000" pt_clust_4="92.49227" pt_clust_5="60.21691" pt_clust_6="36.50456"></scales>
<clustering>
<clus scale="   36.505">  1  6  2 -1</clus>
<clus scale="   60.217">  1  5  2 -1</clus>
<clus scale="   92.492">  2  4  1 -1</clus>
<clus scale="   36.505">  1  3  2 -1</clus>
</clustering>
</event>
<event>
 6    0  0.7442036E+002  0.1077733E+03  0.7546771E-02  0.1264750E+00
         21   -1    0    0  504  501  0.00000000000E+00  0.00000000000E+00  0.52688233511E+03  0.52688233511E+03  0.00000000000E+00 0. -1.
         21   -1    0    0  506  502 -0.00000000000E+00 -0.00000000000E+00 -0.16841776285E+03  0.16841776285E+03  0.00000000000E+00 0. -1.
         21    1    1    2  503  505  0.36613868028E+02  0.50320319620E+02 -0.11524375403E+03  0.13097264119E+03  0.00000000000E+00 0. -1.
         21    1    1    2  504  502 -0.98928495174E+01  0.32754895572E+02  0.85350046245E+02  0.91953151384E+02  0.00000000000E+00 0.  1.
         21    1    1    2  505  501 -0.48365237122E+02 -0.11326300574E+03  0.41087594453E+03  0.42893676274E+03  0.00000000000E+00 0. -1.
         21    1    1    2  506  503  0.21644218611E+02  0.30187790548E+02 -0.22517664484E+02  0.43437542648E+02  0.00000000000E+00 0. -1.
<scales pt_clust_3="30.56507" pt_clust_4="34.21625" pt_clust_5="100.24940" pt_clust_6="30.56507"></scales>
<clustering>
<clus scale="   30.565">  3  6 -1 -1</clus>
<clus scale="   34.216">  1  4  2 -1</clus>
<clus scale="  100.249">  1  5  2 -1</clus>
<clus scale="   34.216">  1  3  2 -1</clus>
</clustering>
</event>
<event>
 6    0  0.7442036E+002  0.9920375E+02  0.7546771E-02  0.1281979E+00
         21   -1    0    0  505  501  0.00000000000E+00  0.00000000000E+00  0.34343500181E+03  0.34343500181E+03  0.00000000000E+00 0. -1.
         21   -1    0    0  504  502 -0.00000000000E+00 -0.00000000000E+00 -0.45319494354E+03  0.45319494354E+03  0.00000000000E+00 0.  1.
         21    1    1    2  503  506 -0.54679996579E+02  0.72946480820E+02 -0.33054673603E+03  0.34288808056E+03  0.00000000000E+00 0.  1.
         21    1    1    2  504  503  0.35223982508E+02  0.29685521179E+02 -0.97269618773E+02  0.10762591624E+03  0.00000000000E+00 0.  1.
         21    1    1    2  505  502 -0.22747507402E+02 -0.68145775470E+02  0.11270635099E+03  0.13365634052E+03  0.00000000000E+00 0. -1.
         21    1    1    2  506  501  0.42203521473E+02 -0.34486226528E+02  0.20535006208E+03  0.21245960802E+03  0.00000000000E+00 0. -1.
<scales pt_clust_3="99.20375" pt_clust_4="46.06473" pt_clust_5="14000.00000" pt_clust_6="54.58971"></scales>
<clustering>
<clus scale="   46.065">  2  4  1 -1</clus>
<clus scale="   54.590">  1  6  2 -1</clus>
<clus scale="   99.204">  2  3  1 -1</clus>
<clus scale="   54.590">  1  3  2 -1</clus>
</clustering>
</event>
<event>
 6    0  0.7442036E+002  0.1098952E+03  0.7546771E-02  0.1260764E+00
         21   -1    0    0  503  501  0.00000000000E+00  0.00000000000E+00  0.97114131747E+02  0.97114131747E+02  0.00000000000E+00 0. -1.
         21   -1    0    0  505  502 -0.00000000000E+00 -0.00000000000E+00 -0.59292091770E+03  0.59292091770E+03  0.00000000000E+00 0. -1.
         21    1    1    2  503  504 -0.42227423288E+02  0.36295456109E+02  0.47672806394E+02  0.73302195610E+02  0.00000000000E+00 0. -1.
         21    1    1    2  504  506  0.13426339970E+03 -0.20223880446E+02 -0.17277811498E+03  0.21974517709E+03  0.00000000000E+00 0. -1.
         21    1    1    2  505  501 -0.10108380382E+03 -0.44945464087E+02 -0.26837483928E+03  0.29028104398E+03  0.00000000000E+00 0. -1.
         21    1    1    2  506  502  0.90478274129E+01  0.28873888424E+02 -0.10232663809E+03  0.10670663277E+03  0.00000000000E+00 0. -1.
<scales pt_clust_3="56.00081" pt_clust_4="109.89522" pt_clust_5="14000.00000" pt_clust_6="30.25830"></scales>
<clustering>
<clus scale="   30.258">  2  6  1 -1</clus>
<clus scale="   56.001">  1  3  2 -1</clus>
<clus scale="  109.895">  1  4  2 -1</clus>
<clus scale="   56.001">  1  3  2 -1</clus>
</clustering>
</event>
<event>
 6    0  0.7442036E+002  0.1924599E+03  0.7546771E-02  0.1156261E+00
         21   -1    0    0  503  501  0.00000000000E+00  0.00000000000E+00  0.12366704779E+03  0.12366704779E+03  0.00000000000E+00 0. -1.
         21   -1    0    0  506  502 -0.00000000000E+00 -0.00000000000E+00 -0.73306071812E+03  0.73306071812E+03  0.00000000000E+00 0. -1.
         21    1    1    2  503  505 -0.43800408877E+02  0.40683766299E+02 -0.16037361855E+02  0.61893793173E+02  0.00000000000E+00 0.  1.
         21    1    1    2  504  502 -0.11856146476E+03 -0.68856960250E+02 -0.47724844523E+03  0.49655229370E+03  0.00000000000E+00 0. -1.
         21    1    1    2  505  504 -0.35051767890E+02 -0.28658564258E+02 -0.76756982173E+02  0.89115509592E+02  0.00000000000E+00 0.  1.
         21    1    1    2  506  501  0.19741364153E+03  0.56831758209E+02 -0.39350881071E+02  0.20916616945E+03  0.00000000000E+00 0. -1.
<scales pt_clust_3="59.77997" pt_clust_4="31.36192" pt_clust_5="31.36192" pt_clust_6="184.55989"></scales>
<clustering>
<clus scale="   31.362">  4  5 -1 -1</clus>
<clus scale="   59.780">  1  3  2 -1</clus>
<clus scale="  184.560">  1  6  2 -1</clus>
<clus scale="   59.780">  1  3  2 -1</clus>
</clustering>
</event>
<event>
 6    0  0.7442036E+002  0.1441982E+03  0.7546771E-02  0.1207789E+00
         21   -1    0    0  505  501  0.00000000000E+00  0.00000000000E+00  0.40886143259E+02  0.40886143259E+02  0.00000000000E+00 0. -1.
         21   -1    0    0  504  502 -0.00000000000E+00 -0.00000000000E+00 -0.19737107130E+04  0.19737107130E+04  0.00000000000E+00 0.  1.
         21    1    1    2  503  502  0.12139509755E+03  0.94570895078E+02 -0.77309695776E+03  0.78826349021E+03  0.00000000000E+00 0.  1.
         21    1    1    2  504  506 -0.12395164459E+02 -0.43217676803E+02 -0.62176506794E+03  0.62338848834E+03  0.00000000000E+00 0.  1.
         21    1    1    2  505  503 -0.39256499621E+02 -0.89176265555E+01  0.15763516979E+02  0.43232919094E+02  0.00000000000E+00 0. -1.
         21    1    1    2  506  501 -0.69743433469E+02 -0.42435591719E+02 -0.55372606102E+03  0.55971195860E+03  0.00000000000E+00 0.  1.
<scales pt_clust_3="130.11176" pt_clust_4="44.21477" pt_clust_5="40.25664" pt_clust_6="44.21477"></scales>
<clustering>
<clus scale="   40.257">  1  5  2 -1</clus>
<clus scale="   44.215">  4  6 -1 -1</clus>
<clus scale="  130.112">  1  3  2 -1</clus>
<clus scale="   40.257">  1  3  2 -1</clus>
</clustering>
</event>
<event>
 6    0  0.7442036E+002  0.8321491E+02  0.7546771E-02  0.1320168E+00
         21   -1    0    0  506  501  0.00000000000E+00  0.00000000000E+00  0.34157083635E+02  0.34157083635E+02  0.00000000000E+00 0.  1.
         21   -1    0    0  505  502 -0.00000000000E+00 -0.00000000000E+00 -0.13715439378E+04  0.13715439378E+04  0.00000000000E+00 0.  1.
         21    1    1    2  503  501 -0.53685551096E+02 -0.39714087304E+02 -0.69861758460E+02  0.96643739694E+02  0.00000000000E+00 0.  1.
         21    1    1    2  504  502 -0.28009005858E+02 -0.44995687627E+02 -0.88535868469E+03  0.88694369431E+03  0.00000000000E+00 0.  1.
         21    1    1    2  505  503 -0.24921351849E+02  0.20163969910E+02 -0.19258124345E+03  0.19523113171E+03  0.00000000000E+00 0.  1.
         21    1    1    2  506  504  0.10661590880E+03  0.64545805021E+02 -0.18958516759E+03  0.22688245575E+03  0.00000000000E+00 0.  1.
<scales pt_clust_3="14000.00000" pt_clust_4="55.46228" pt_clust_5="32.05713" pt_clust_6="83.21491"></scales>
<clustering>
<clus scale="   32.057">  2  5  1 -1</clus>
<clus scale="   55.462">  2  4  1 -1</clus>
<clus scale="   83.215">  2  6  1 -1</clus>
<clus scale="   83.215">  1  3  2 -1</clus>
</clustering>
</event>
<event>
 6    0  0.7442036E+002  0.1443072E+03  0.7546771E-02  0.1207648E+00
         21   -1    0    0  502  501  0.00000000000E+00  0.00000000000E+00  0.35656855407E+03  0.35656855407E+03  0.00000000000E+00 0.  1.
         21   -1    0    0  506  502 -0.00000000000E+00 -0.00000000000E+00 -0.32926907785E+03  0.32926907785E+03  0.00000000000E+00 0. -1.
         21    1    1    2  503  501 -0.51688857192E+02  0.15309441978E+02  0.19140446351E+03  0.19885116450E+03  0.00000000000E+00 0.  1.
         21    1    1    2  504  503 -0.84283198568E+02 -0.50544842347E+02  0.12659934512E+03  0.16026800315E+03  0.00000000000E+00 0.  1.
         21    1    1    2  505  504  0.64572437159E+02  0.10664006841E+01 -0.88377333125E+02  0.10945907848E+03  0.00000000000E+00 0. -1.
         21    1    1    2  506  505  0.71399618602E+02  0.34168999685E+02 -0.20232699928E+03  0.21725938579E+03  0.00000000000E+00 0. -1.
<scales pt_clust_3="53.90841" pt_clust_4="135.34611" pt_clust_5="45.21757" pt_clust_6="45.21757"></scales>
<clustering>
<clus scale="   45.218">  5  6 -1 -1</clus>
<clus scale="   53.908">  1  3  2 -1</clus>
<clus scale="  135.346">  1  4  2 -1</clus>
<clus scale="   53.908">  1  3  2 -1</clus>
</clustering>
</event>
<event>
 6    0  0.7442036E+002  0.8243969E+02  0.7546771E-02  0.1322267E+00
         21   -1    0    0  503  501  0.00000000000E+00  0.00000000000E+00  0.40816816390E+03  0.40816816390E+03  0.00000000000E+00 0.  1.
         21   -1    0    0  505  502 -0.00000000000E+00 -0.00000000000E+00 -0.84244261233E+02  0.84244261233E+02  0.00000000000E+00 0. -1.
         21    1    1    2  503  504 -0.58823824484E+02 -0.55102653911E+02  0.29800553849E+03  0.30871320958E+03  0.00000000000E+00 0.  1.
         21    1    1    2  504  502 -0.12922998496E+02 -0.29287289716E+02  0.27979218092E+02  0.42515713261E+02  0.00000000000E+00 0.  1.
         21    1    1    2  505  506  0.27949714925E+02 -0.15588895562E+02 -0.13078291545E+01  0.32029839936E+02  0.00000000000E+00 0.  1.
         21    1    1    2  506  501  0.43797108055E+02  0.99978839189E+02 -0.75302476607E+00  0.10915366236E+03  0.00000000000E+00 0. -1.
<scales pt_clust_3="14000.00000" pt_clust_4="32.51325" pt_clust_5="32.00313" pt_clust_6="82.43969"></scales>
<clustering>
<clus scale="   32.003">  2  5  1 -1</clus>
<clus scale="   32.513">  2  4  1 -1</clus>
<clus scale="   82.440">  2  6  1 -1</clus>
<clus scale="   82.440">  1  3  2 -1</clus>
</clustering>
</event>
<event>
 6    0  0.7442036E+002  0.9843659E+02  0.7546771E-02  0.1283618E+00
         21   -1    0    0  504  501  0.00000000000E+00  0.00000000000E+00  0.27104623161E+03  0.27104623161E+03  0.00000000000E+00 0. -1.
         21   -1    0    0  506  502 -0.00000000000E+00 -0.00000000000E+00 -0.19309000403E+03  0.19309000403E+03  0.00000000000E+00 0. -1.
         21    1    1    2  503  502  0.29652658335E+02 -0.84455486317E+01 -0.89620743880E+02  0.94775973599E+02  0.00000000000E+00 0. -1.
         21    1    1    2  504  505 -0.61385990140E+01  0.73492870900E+02  0.89262233090E+02  0.11578700586E+03  0.00000000000E+00 0. -1.
         21    1    1    2  505  503  0.80447310420E+02 -0.10814777983E+02 -0.36918034478E+02  0.89172139407E+02  0.00000000000E+00 0. -1.
         21    1    1    2  506  501 -0.10396136974E+03 -0.54232544285E+02  0.11523277285E+03  0.16440111677E+03  0.00000000000E+00 0. -1.
<scales pt_clust_3="30.83192" pt_clust_4="72.41736" pt_clust_5="98.43659" pt_clust_6="14000.00000"></scales>
<clustering>
<clus scale="   30.832">  2  3  1 -1</clus>
<clus scale="   72.417">  1  4  2 -1</clus>
<clus scale="   98.437">  2  5  1 -1</clus>
<clus scale="   72.417">  1  3  2 -1</clus>
</clustering>
</event>
<event>
 6    0  0.7442036E+002  0.9799721E+02  0.7546771E-02  0.1284565E+00
         21   -1    0    0  503  501  0.00000000000E+00  0.00000000000E+00  0.18709409063E+03  0.18709409063E+03  0.00000000000E+00 0.  1.
         21   -1    0    0  506  502 -0.00000000000E+00 -0.00000000000E+00 -0.49506608129E+03  0.49506608129E+03  0.00000000000E+00 0.  1.
         21    1    1    2  503  504  0.87109350347E+02  0.70908056712E+02  0.12282556890E+03  0.16643951394E+03  0.00000000000E+00 0.  1.
         21    1    1    2  504  502  0.22173302649E+02 -0.44263412943E+02 -0.21048522455E+03  0.21622889453E+03  0.00000000000E+00 0.  1.
         21    1    1    2  505  501 -0.40010796876E+02  0.18421482083E+02  0.17752691134E+02  0.47490766589E+02  0.00000000000E+00 0.  1.
         21    1    1    2  506  505 -0.69271856121E+02 -0.45066125851E+02 -0.23806502614E+03  0.25200099687E+03  0.00000000000E+00 0.  1.
<scales pt_clust_3="14000.00000" pt_clust_4="48.86993" pt_clust_5="44.04787" pt_clust_6="97.99721"></scales>
<clustering>
<clus scale="   44.048">  1  5  2 -1</clus>
<clus scale="   48.870">  2  4  1 -1</clus>
<clus scale="   97.997">  2  6  1 -1</clus>
<clus scale="   44.048">  1  3  2 -1</clus>
</clustering>
</event>
<event>
 6    0  0.7442036E+002  0.1329377E+03  0.7546771E-02  0.1223161E+00
         21   -1    0    0  503  501  0.00000000000E+00  0.00000000000E+00  0.33686288043E+03  0.33686288043E+03  0.00000000000E+00 0.  1.
         21   -1    0    0  505  502 -0.00000000000E+00 -0.00000000000E+00 -0.14885133470E+03  0.14885133470E+03  0.00000000000E+00 0. -1.
         21    1    1    2  503  504  0.51241917808E+02 -0.44092857406E+02  0.73567018677E+02  0.99910061815E+02  0.00000000000E+00 0.  1.
         21    1    1    2  504  506 -0.30242263570E+02  0.58924819208E+02 -0.16995350449E+02  0.68378145349E+02  0.00000000000E+00 0.  1.
         21    1    1    2  505  501 -0.33707066799E+02 -0.79082832912E+02  0.20297941204E+03  0.22043344240E+03  0.00000000000E+00 0.  1.
         21    1    1    2  506  502  0.12707412560E+02  0.64250871109E+02 -0.71539534549E+02  0.96992565570E+02  0.00000000000E+00 0. -1.
<scales pt_clust_3="67.60114" pt_clust_4="63.12283" pt_clust_5="116.80374" pt_clust_6="63.12283"></scales>
<clustering>
<clus scale="   63.123">  4  6 -1 -1</clus>
<clus scale="   67.601">  1  3  2 -1</clus>
<clus scale="  116.804">  1  5  2 -1</clus>
<clus scale="   67.601">  1  3  2 -1</clus>
</clustering>
</event>
<event>
 6    0  0.7442036E+002  0.9498347E+02  0.7546771E-02  0.1291213E+00
         21   -1    0    0  506  501  0.00000000000E+00  0.00000000000E+00  0.10792182076E+04  0.10792182076E+04  0.00000000000E+00 0.  1.
         21   -1    0    0  504  502 -0.00000000000E+00 -0.00000000000E+00 -0.26925087668E+02  0.26925087668E+02  0.00000000000E+00 0.  1.
         21    1    1    2  503  502  0.68315164049E+02  0.17507940848E+02  0.25777849542E+03  0.26725127190E+03  0.00000000000E+00 0.  1.
         21    1    1    2  504  505 -0.14398439739E+01  0.10055998508E+03  0.18667049062E+03  0.21203833573E+03  0.00000000000E+00 0.  1.
         21    1    1    2  505  501 -0.75029342466E+02 -0.74779935706E+02  0.36560689534E+03  0.38064398450E+03  0.00000000000E+00 0.  1.
         21    1    1    2  506  503  0.81540223911E+01 -0.43287990223E+02  0.24223723855E+03  0.24620970314E+03  0.00000000000E+00 0.  1.
<scales pt_clust_3="70.98585" pt_clust_4="94.98347" pt_clust_5="14000.00000" pt_clust_6="44.04927"></scales>
<clustering>
<clus scale="   44.049">  1  6  2 -1</clus>
<clus scale="   70.986">  1  3  2 -1</clus>
<clus scale="   94.983">  2  4  1 -1</clus>
<clus scale="   44.049">  1  3  2 -1</clus>
</clustering>
</event>
<event>
 6    0  0.7442036E+002  0.7256745E+02  0.7546771E-02  0.1351574E+00
         21   -1    0    0  504  501  0.00000000000E+00  0.00000000000E+00  0.37562370555E+03  0.37562370555E+03  0.00000000000E+00 0. -1.
         21   -1    0    0  505  502 -0.00000000000E+00 -0.00000000000E+00 -0.74393517963E+02  0.74393517963E+02  0.00000000000E+00 0. -1.
         21    1    1    2  503  501  0.28430180542E+02 -0.51243237049E+02  0.11146890571E+03  0.12593435373E+03  0.00000000000E+00 0. -1.
         21    1    1    2  504  506 -0.95255527875E+02  0.48777036785E+02  0.20611748496E+03  0.23224390738E+03  0.00000000000E+00 0. -1.
         21    1    1    2  505  503  0.24215785819E+02 -0.28279429032E+02 -0.16125627571E+01  0.37265677880E+02  0.00000000000E+00 0. -1.
         21    1    1    2  506  502  0.42609561514E+02  0.30745629296E+02 -0.14743640331E+02  0.54573284521E+02  0.00000000000E+00 0. -1.
<scales pt_clust_3="72.56745" pt_clust_4="14000.00000" pt_clust_5="37.23077" pt_clust_6="59.30425"></scales>
<clustering>
<clus scale="   37.231">  2  5  1 -1</clus>
<clus scale="   59.304">  2  6  1 -1</clus>
<clus scale="   72.567">  1  3  2 -1</clus>
<clus scale="   72.567">  1  3  2 -1</clus>
</clustering>
</event>
<event>
 6    0  0.7442036E+002  0.2218902E+03  0.7546771E-02  0.1132482E+00
         21   -1    0    0  505  501  0.00000000000E+00  0.00000000000E+00  0.15697650234E+04  0.15697650234E+04  0.00000000000E+00 0.  1.
         21   -1    0    0  503  502 -0.00000000000E+00 -0.00000000000E+00 -0.37576339514E+03  0.37576339514E+03  0.00000000000E+00 0. -1.
         21    1    1    2  503  501 -0.21854500394E+02 -0.26454403950E+02  0.17369002762E+02  0.38459549306E+02  0.00000000000E+00 0. -1.
         21    1    1    2  504  502  0.17327599608E+03 -0.13902550015E+03 -0.30629549595E+03  0.37837757775E+03  0.00000000000E+00 0. -1.
         21    1    1    2  505  506 -0.42338431981E+02 -0.13529283432E+02  0.10147764561E+04  0.10157493983E+04  0.00000000000E+00 0.  1.
         21    1    1    2  506  504 -0.10908306371E+03  0.17900918753E+03  0.46815166537E+03  0.51294189319E+03  0.00000000000E+00 0.  1.
<scales pt_clust_3="34.31406" pt_clust_4="221.89024" pt_clust_5="44.48601" pt_clust_6="14000.00000"></scales>
<clustering>
<clus scale="   34.314">  2  3  1 -1</clus>
<clus scale="   44.486">  1  5  2 -1</clus>
<clus scale="  221.890">  2  4  1 -1</clus>
<clus scale="   44.486">  1  3  2 -1</clus>
</clustering>
</event>
<event>
 6    0  0.7442036E+002  0.1151830E+03  0.7546771E-02  0.1251262E+00
         21   -1    0    0  503  501  0.00000000000E+00  0.00000000000E+00  0.25965109420E+04  0.25965109420E+04  0.00000000000E+00 0. -1.
         21   -1    0    0  504  502 -0.00000000000E+00 -0.00000000000E+00 -0.44432475776E+03  0.44432475776E+03  0.00000000000E+00 0.  1.
         21    1    1    2  503  505 -0.44646987399E+02 -0.10534714543E+02  0.19913052889E+04  0.19918335993E+04  0.00000000000E+00 0. -1.
         21    1    1    2  504  506 -0.13119513314E+03  0.25598384120E+02 -0.34962413596E+03  0.37430532546E+03  0.00000000000E+00 0.  1.
         21    1    1    2  505  502  0.92747359123E+02 -0.38037232708E+02  0.56426238648E+03  0.57309767448E+03  0.00000000000E+00 0. -1.
         21    1    1    2  506  501  0.83094761412E+02  0.22973563130E+02 -0.53757355230E+02  0.10159910048E+03  0.00000000000E+00 0.  1.
<scales pt_clust_3="45.87302" pt_clust_4="115.18302" pt_clust_5="69.83232" pt_clust_6="14000.00000"></scales>
<clustering>
<clus scale="   45.873">  1  3  2 -1</clus>
<clus scale="   69.832">  1  5  2 -1</clus>
<clus scale="  115.183">  2  4  1 -1</clus>
<clus scale="   45.873">  1  3  2 -1</clus>
</clustering>
</event>
<event>
 6    0  0.7442036E+002  0.1015748E+03  0.7546771E-02  0.1277019E+00
         21   -1    0    0  504  501  0.00000000000E+00  0.00000000000E+00  0.27846062227E+04  0.27846062227E+04  0.00000000000E+00 0. -1.
         21   -1    0    0  505  502 -0.00000000000E+00 -0.00000000000E+00 -0.32307816377E+02  0.32307816377E+02  0.00000000000E+00 0. -1.
         21    1    1    2  503  502 -0.66147528082E+01 -0.30339910978E+02  0.19918120795E+02  0.36891688615E+02  0.00000000000E+00 0. -1.
         21    1    1    2  504  503 -0.90005365458E+02 -0.24230075087E+02  0.12024387643E+03  0.15214023850E+03  0.00000000000E+00 0. -1.
         21    1    1    2  505  506  0.61839095512E+02  0.96798912999E+02  0.43052569982E+03  0.44558554902E+03  0.00000000000E+00 0. -1.
         21    1    1    2  506  501  0.34781022754E+02 -0.42228926933E+02  0.21816107092E+04  0.21822965629E+04  0.00000000000E+00 0. -1.
<scales pt_clust_3="31.05262" pt_clust_4="14000.00000" pt_clust_5="101.57483" pt_clust_6="54.98606"></scales>
<clustering>
<clus scale="   31.053">  2  3  1 -1</clus>
<clus scale="   54.986">  1  6  2 -1</clus>
<clus scale="  101.575">  1  5  2 -1</clus>
<clus scale="   54.986">  1  3  2 -1</clus>
</clustering>
</event>
<event>
 6    0  0.7442036E+002  0.1629483E+03  0.7546771E-02  0.1185408E+00
         21   -1    0    0  505  501  0.00000000000E+00  0.00000000000E+00  0.11200678675E+03  0.11200678675E+03  0.00000000000E+00 0. -1.
         21   -1    0    0  503  502 -0.00000000000E+00 -0.00000000000E+00 -0.12514988511E+04  0.12514988511E+04  0.00000000000E+00 0. -1.
         21    1    1    2  503  504  0.76457270631E+02 -0.91855217658E+02 -0.23510618253E+03  0.26373853019E+03  0.00000000000E+00 0.  1.
         21    1    1    2  504  506 -0.12428504627E+03  0.22300711489E+03 -0.83053883760E+03  0.86889222967E+03  0.00000000000E+00 0. -1.
         21    1    1    2  505  502  0.23554135224E+02 -0.16804613925E+03 -0.77523533927E+02  0.18655883929E+03  0.00000000000E+00 0. -1.
         21    1    1    2  506  501  0.24273640410E+02  0.36894242026E+02  0.36764896639E+01  0.44316038741E+02  0.00000000000E+00 0. -1.
<scales pt_clust_3="117.62637" pt_clust_4="162.94829" pt_clust_5="14000.00000" pt_clust_6="44.16327"></scales>
<clustering>
<clus scale="   44.163">  1  6  2 -1</clus>
<clus scale="  117.626">  2  3  1 -1</clus>
<clus scale="  162.948">  2  4  1 -1</clus>
<clus scale="   44.163">  1  3  2 -1</clus>
</clustering>
</event>
<event>
 6    0  0.7442036E+002  0.1903674E+03  0.7546771E-02  0.1158130E+00
         21   -1    0    0  504  501  0.00000000000E+00  0.00000000000E+00  0.23379742908E+03  0.23379742908E+03  0.00000000000E+00 0.  1.
         21   -1    0    0  505  502 -0.00000000000E+00 -0.00000000000E+00 -0.33643986105E+03  0.33643986105E+03  0.00000000000E+00 0.  1.
         21    1    1    2  503  506  0.34649807773E+02  0.13851369269E+02 -0.37924923515E+02  0.53204975641E+02  0.00000000000E+00 0.  1.
         21    1    1    2  504  503  0.60123355342E+02 -0.35448961319E+01  0.78211585095E+02  0.98713910819E+02  0.00000000000E+00 0.  1.
         21    1    1    2  505  501 -0.13458531222E+03 -0.15193313081E+03  0.13701118108E+02  0.20343206026E+03  0.00000000000E+00 0.  1.
         21    1    1    2  506  502  0.39812149105E+02  0.14162665767E+03 -0.15663021166E+03  0.21488634341E+03  0.00000000000E+00 0.  1.
<scales pt_clust_3="33.03810" pt_clust_4="60.22777" pt_clust_5="178.70789" pt_clust_6="33.03810"></scales>
<clustering>
<clus scale="   33.038">  3  6 -1 -1</clus>
<clus scale="   60.228">  1  4  2 -1</clus>
<clus scale="  178.708">  1  5  2 -1</clus>
<clus scale="   60.228">  1  3  2 -1</clus>
</clustering>
</event>
<event>
 6    0  0.7442036E+002  0.1861030E+03  0.7546771E-02  0.1162024E+00
         21   -1    0    0  503  501  0.00000000000E+00  0.00000000000E+00  0.16825503165E+03  0.16825503165E+03  0.00000000000E+00 0.  1.
         21   -1    0    0  506  502 -0.00000000000E+00 -0.00000000000E+00 -0.29926319273E+03  0.29926319273E+03  0.00000000000E+00 0.  1.
         21    1    1    2  503  505  0.32314945769E+02 -0.56071771667E+02 -0.90304261817E+01  0.65344073143E+02  0.00000000000E+00 0.  1.
         21    1    1    2  504  501 -0.51991930291E+02 -0.17676274842E+02  0.32933414016E+02  0.64032970152E+02  0.00000000000E+00 0.  1.
         21    1    1    2  505  502  0.11671008952E+03 -0.63204260472E+02 -0.68799834095E+02  0.14949729332E+03  0.00000000000E+00 0.  1.
         21    1    1    2  506  504 -0.97033105001E+02  0.13695230698E+03 -0.86111314819E+02  0.18864388777E+03  0.00000000000E+00 0.  1.
<scales pt_clust_3="42.26803" pt_clust_4="54.91458" pt_clust_5="42.26803" pt_clust_6="175.98376"></scales>
<clustering>
<clus scale="   42.268">  3  5 -1 -1</clus>
<clus scale="   54.915">  1  4  2 -1</clus>
<clus scale="  175.984">  2  6  1 -1</clus>
<clus scale="   54.915">  1  3  2 -1</clus>
</clustering>
</event>
<event>
 6    0  0.7442036E+002  0.2123830E+03  0.7546771E-02  0.1139693E+00
         21   -1    0    0  505  501  0.00000000000E+00  0.00000000000E+00  0.59906246939E+03  0.59906246939E+03  0.00000000000E+00 0. -1.
         21   -1    0    0  503  502 -0.00000000000E+00 -0.00000000000E+00 -0.16231680264E+04  0.16231680264E+04  0.00000000000E+00 0. -1.
         21    1    1    2  503  506  0.16689648641E+03 -0.19182708608E+02 -0.45722627621E+03  0.48711218538E+03  0.00000000000E+00 0. -1.
         21    1    1    2  504  502 -0.17943970052E+03  0.83867323143E+01 -0.76139948395E+03  0.78230308548E+03  0.00000000000E+00 0. -1.
         21    1    1    2  505  504 -0.44200044301E+02  0.28070712900E+02 -0.37579432489E+03  0.37942454251E+03  0.00000000000E+00 0. -1.
         21    1    1    2  506  501  0.56743258412E+02 -0.17274736606E+02  0.57031452799E+03  0.57339068246E+03  0.00000000000E+00 0. -1.
<scales pt_clust_3="200.12266" pt_clust_4="38.39464" pt_clust_5="38.39464" pt_clust_6="59.31453"></scales>
<clustering>
<clus scale="   38.395">  4  5 -1 -1</clus>
<clus scale="   59.315">  1  6  2 -1</clus>
<clus scale="  200.123">  1  3  2 -1</clus>
<clus scale="   59.315">  1  3  2 -1</clus>
</clustering>
</event>
<event>
 6    0  0.7442036E+002  0.8619885E+02  0.7546771E-02  0.1312327E+00
         21   -1    0    0  505  501  0.00000000000E+00  0.00000000000E+00  0.96260014362E+03  0.96260014362E+03  0.00000000000E+00 0.  1.
         21   -1    0    0  504  502 -0.00000000000E+00 -0.00000000000E+00 -0.69100440917E+03  0.69100440917E+03  0.00000000000E+00 0. -1.
         21    1    1    2  503  506  0.49303903571E+02 -0.83978451312E+02  0.53413836498E+02  0.11106886657E+03  0.00000000000E+00 0. -1.
         21    1    1    2  504  503 -0.10197530776E+03  0.71324299433E+02 -0.57796462242E+03  0.59120996596E+03  0.00000000000E+00 0. -1.
         21    1    1    2  505  502  0.28280933488E+02 -0.30662426722E+02 -0.71219598145E+02  0.82536214908E+02  0.00000000000E+00 0. -1.
         21    1    1    2  506  501  0.24390470702E+02  0.43316578601E+02  0.86736611852E+03  0.86878950534E+03  0.00000000000E+00 0.  1.
<scales pt_clust_3="14000.00000" pt_clust_4="86.19885" pt_clust_5="41.71325" pt_clust_6="49.69652"></scales>
<clustering>
<clus scale="   41.713">  2  5  1 -1</clus>
<clus scale="   49.697">  1  6  2 -1</clus>
<clus scale="   86.199">  2  4  1 -1</clus>
<clus scale="   49.697">  1  3  2 -1</clus>
</clustering>
</event>
<event>
 6    0  0.7442036E+002  0.8879964E+02  0.7546771E-02  0.1305785E+00
         21   -1    0    0  506  501  0.00000000000E+00  0.00000000000E+00  0.15636652223E+03  0.15636652223E+03  0.00000000000E+00 0.  1.
         21   -1    0    0  503  502 -0.00000000000E+00 -0.00000000000E+00 -0.27499994753E+03  0.27499994753E+03  0.00000000000E+00 0.  1.
         21    1    1    2  503  501  0.68460728437E+02 -0.61897172881E+02 -0.10744746005E+03  0.14164423045E+03  0.00000000000E+00 0.  1.
         21    1    1    2  504  502  0.14740020194E+02  0.27294295563E+02 -0.10563848210E+03  0.11009875415E+03  0.00000000000E+00 0.  1.
         21    1    1    2  505  504 -0.54636352891E+02  0.74746954794E+02  0.27668790299E+02  0.96632294109E+02  0.00000000000E+00 0. -1.
         21    1    1    2  506  505 -0.28564395741E+02 -0.40144077475E+02  0.66783726548E+02  0.82991191051E+02  0.00000000000E+00 0.  1.
<scales pt_clust_3="14000.00000" pt_clust_4="31.02010" pt_clust_5="88.79964" pt_clust_6="47.77707"></scales>
<clustering>
<clus scale="   31.020">  2  4  1 -1</clus>
<clus scale="   47.777">  1  6  2 -1</clus>
<clus scale="   88.800">  1  5  2 -1</clus>
<clus scale="   47.777">  1  3  2 -1</clus>
</clustering>
</event>
<event>
 6    0  0.7442036E+002  0.1217266E+03  0.7546771E-02  0.1240276E+00
         21   -1    0    0  506  501  0.00000000000E+00  0.00000000000E+00  0.41649014988E+03  0.41649014988E+03  0.00000000000E+00 0.  1.
         21   -1    0    0  505  502 -0.00000000000E+00 -0.00000000000E+00 -0.35630290194E+03  0.35630290194E+03  0.00000000000E+00 0. -1.
         21    1    1    2  503  501  0.21433646765E+02  0.21722313300E+02  0.24720833103E+03  0.24908476276E+03  0.00000000000E+00 0.  1.
         21    1    1    2  504  502 -0.71253584785E+02 -0.26392025796E+02 -0.27930768878E+03  0.28945880084E+03  0.00000000000E+00 0. -1.
         21    1    1    2  505  503 -0.28184073917E+02 -0.60461663426E+02 -0.31768359117E+02  0.73886287008E+02  0.00000000000E+00 0.  1.
         21    1    1    2  506  504  0.78004011936E+02  0.65131375922E+02  0.12405496481E+03  0.16036320121E+03  0.00000000000E+00 0.  1.
<scales pt_clust_3="30.51655" pt_clust_4="121.72663" pt_clust_5="63.12527" pt_clust_6="14000.00000"></scales>
<clustering>
<clus scale="   30.517">  1  3  2 -1</clus>
<clus scale="   63.125">  2  5  1 -1</clus>
<clus scale="  121.727">  2  4  1 -1</clus>
<clus scale="   30.517">  1  3  2 -1</clus>
</clustering>
</event>
<event>
 6    0  0.7442036E+002  0.1081048E+03  0.7546771E-02  0.1264120E+00
         21   -1    0    0  503  501  0.00000000000E+00  0.00000000000E+00  0.24817504652E+04  0.24817504652E+04  0.00000000000E+00 0. -1.
         21   -1    0    0  506  502 -0.00000000000E+00 -0.00000000000E+00 -0.29002790884E+03  0.29002790884E+03  0.00000000000E+00 0. -1.
         21    1    1    2  503  505  0.47927097087E+02 -0.11685395623E+02  0.13545026641E+04  0.13554006869E+04  0.00000000000E+00 0. -1.
         21    1    1    2  504  502 -0.16957555245E+02  0.27680279468E+02 -0.18100064222E+02  0.37166771129E+02  0.00000000000E+00 0. -1.
         21    1    1    2  505  504 -0.72447175194E+02  0.11596143285E+03  0.10944496174E+04  0.11029576656E+04  0.00000000000E+00 0. -1.
         21    1    1    2  506  501  0.41477633352E+02 -0.13195631669E+03 -0.23912966094E+03  0.27625325034E+03  0.00000000000E+00 0. -1.
<scales pt_clust_3="49.29168" pt_clust_4="32.46162" pt_clust_5="14000.00000" pt_clust_6="108.10485"></scales>
<clustering>
<clus scale="   32.462">  2  4  1 -1</clus>
<clus scale="   49.292">  1  3  2 -1</clus>
<clus scale="  108.105">  2  6  1 -1</clus>
<clus scale="   49.292">  1  3  2 -1</clus>
</clustering>
</event>
<event>
 6    0  0.7442036E+002  0.8199723E+02  0.7546771E-02  0.1323477E+00
         21   -1    0    0  504  501  0.00000000000E+00  0.00000000000E+00  0.45155896444E+03  0.45155896444E+03  0.00000000000E+00 0. -1.
         21   -1    0    0  506  502 -0.00000000000E+00 -0.00000000000E+00 -0.21081891776E+03  0.21081891776E+03  0.00000000000E+00 0.  1.
         21    1    1    2  503  502 -0.45537770220E+02 -0.12242098827E+02 -0.90040089670E+02  0.10164042133E+03  0.00000000000E+00 0.  1.
         21    1    1    2  504  505  0.27299352989E+02  0.51742743525E+02  0.14271422542E+03  0.15423980134E+03  0.00000000000E+00 0.  1.
         21    1    1    2  505  503 -0.36657970468E+02  0.40512715172E+02 -0.93714237702E+02  0.10847785598E+03  0.00000000000E+00 0.  1.
         21    1    1    2  506  501  0.54896387699E+02 -0.80013359870E+02  0.28178014863E+03  0.29801980354E+03  0.00000000000E+00 0. -1.
<scales pt_clust_3="47.15461" pt_clust_4="56.92135" pt_clust_5="14000.00000" pt_clust_6="81.99723"></scales>
<clustering>
<clus scale="   47.155">  2  3  1 -1</clus>
<clus scale="   56.921">  1  4  2 -1</clus>
<clus scale="   81.997">  1  6  2 -1</clus>
<clus scale="   56.921">  1  3  2 -1</clus>
</clustering>
</event>
<event>
 6    0  0.7442036E+002  0.1258505E+03  0.7546771E-02  0.1233746E+00
         21   -1    0    0  505  501  0.00000000000E+00  0.00000000000E+00  0.15745344409E+04  0.15745344409E+04  0.00000000000E+00 0.  1.
         21   -1    0    0  506  502 -0.00000000000E+00 -0.00000000000E+00 -0.25167003962E+03  0.25167003962E+03  0.00000000000E+00 0.  1.
         21    1    1    2  503  504 -0.37431923635E+02 -0.10879462781E+03 -0.12438940512E+03  0.16944068004E+03  0.00000000000E+00 0.  1.
         21    1    1    2  504  502 -0.61146869391E+02  0.29825148498E+02 -0.88145258303E+02  0.11134660157E+03  0.00000000000E+00 0. -1.
         21    1    1    2  505  503  0.12766330817E+03  0.65226716469E+02  0.12780953160E+04  0.12861104469E+04  0.00000000000E+00 0.  1.
         21    1    1    2  506  501 -0.29084515148E+02  0.13742762845E+02  0.25730374869E+03  0.25930675202E+03  0.00000000000E+00 0. -1.
<scales pt_clust_3="125.85052" pt_clust_4="68.31642" pt_clust_5="14000.00000" pt_clust_6="32.16788"></scales>
<clustering>
<clus scale="   32.168">  1  6  2 -1</clus>
<clus scale="   68.316">  2  4  1 -1</clus>
<clus scale="  125.851">  2  3  1 -1</clus>
<clus scale="   32.168">  1  3  2 -1</clus>
</clustering>
</event>
<event>
 6    0  0.7442036E+002  0.1598577E+03  0.7546771E-02  0.1188857E+00
         21   -1    0    0  506  501  0.00000000000E+00  0.00000000000E+00  0.27766156849E+04  0.27766156849E+04  0.00000000000E+00 0. -1.
         21   -1    0    0  504  502 -0.00000000000E+00 -0.00000000000E+00 -0.15257172363E+03  0.15257172363E+03  0.00000000000E+00 0. -1.
         21    1    1    2  503  505  0.53014651281E+02 -0.19554327141E+02  0.75500278646E+02  0.94303854831E+02  0.00000000000E+00 0. -1.
         21    1    1    2  504  501 -0.21205976844E+03  0.26083045452E+02  0.64091208825E+03  0.67558713392E+03  0.00000000000E+00 0. -1.
         21    1    1    2  505  502  0.15467526535E+03  0.23212003582E+02 -0.77071788252E+02  0.17436540759E+03  0.00000000000E+00 0. -1.
         21    1    1    2  506  503  0.43698518151E+01 -0.29740721893E+02  0.19847033826E+04  0.19849310122E+04  0.00000000000E+00 0. -1.
<scales pt_clust_3="58.11810" pt_clust_4="14000.00000" pt_clust_5="159.85773" pt_clust_6="30.06004"></scales>
<clustering>
<clus scale="   30.060">  1  6  2 -1</clus>
<clus scale="   58.118">  1  3  2 -1</clus>
<clus scale="  159.858">  2  5  1 -1</clus>
<clus scale="   30.060">  1  3  2 -1</clus>
</clustering>
</event>
<event>
 6    0  0.9930258E+002  0.1477863E+03  0.7546771E-02  0.1203220E+00
         21   -1    0    0  506  501  0.00000000000E+00  0.00000000000E+00  0.55399186654E+03  0.55399186654E+03  0.00000000000E+00 0.  1.
         21   -1    0    0  503  502 -0.00000000000E+00 -0.00000000000E+00 -0.25834053974E+04  0.25834053974E+04  0.00000000000E+00 0.  1.
         21    1    1    2  503  504 -0.88826412869E+01 -0.30154810633E+02 -0.40626305022E+02  0.51368381133E+02  0.00000000000E+00 0. -1.
         21    1    1    2  504  501 -0.12399191136E+03 -0.75357988846E+02  0.47903731858E+03  0.50052929301E+03  0.00000000000E+00 0.  1.
         21    1    1    2  505  502 -0.49944890385E+02  0.46312447211E+02 -0.23679503809E+04  0.23689297881E+04  0.00000000000E+00 0.  1.
         21    1    1    2  506  505  0.18281944303E+03  0.59200352268E+02 -0.99874163601E+02  0.21656980171E+03  0.00000000000E+00 0.  1.
<scales pt_clust_3="31.43587" pt_clust_4="14000.00000" pt_clust_5="61.00350" pt_clust_6="147.78627"></scales>
<clustering>
<clus scale="   31.436">  2  3  1 -1</clus>
<clus scale="   61.003">  2  5  1 -1</clus>
<clus scale="  147.786">  2  6  1 -1</clus>
<clus scale="  147.786">  1  3  2 -1</clus>
</clustering>
</event>
<event>
 6    0  0.7442036E+002  0.7845970E+02  0.7546771E-02  0.1333480E+00
         21   -1    0    0  505  501  0.00000000000E+00  0.00000000000E+00  0.46027063776E+02  0.46027063776E+02  0.00000000000E+00 0.  1.
         21   -1    0    0  504  502 -0.00000000000E+00 -0.00000000000E+00 -0.49665804191E+03  0.49665804191E+03  0.00000000000E+00 0.  1.
         21    1    1    2  503  506 -0.41336821541E+02  0.94664064023E+02 -0.15613961133E+03  0.18721537346E+03  0.00000000000E+00 0.  1.
         21    1    1    2  504  503 -0.17603207515E+02 -0.56753571187E+02 -0.18439775578E+03  0.19373531711E+03  0.00000000000E+00 0.  1.
         21    1    1    2  505  502  0.80457886845E+02 -0.11105616925E+02 -0.92575782810E+02  0.12315470696E+03  0.00000000000E+00 0.  1.
         21    1    1    2  506  501 -0.21517857789E+02 -0.26804875911E+02 -0.17517828202E+02  0.38579708155E+02  0.00000000000E+00 0.  1.
<scales pt_clust_3="78.45970" pt_clust_4="63.64831" pt_clust_5="14000.00000" pt_clust_6="34.37324"></scales>
<clustering>
<clus scale="   34.373">  1  6  2 -1</clus>
<clus scale="   63.648">  2  4  1 -1</clus>
<clus scale="   78.460">  2  3  1 -1</clus>
<clus scale="   34.373">  1  3  2 -1</clus>
</clustering>
</event>
<event>
 6    0  0.7442036E+002  0.2506158E+03  0.7546771E-02  0.1112916E+00
         21   -1    0    0  503  501  0.00000000000E+00  0.00000000000E+00  0.69430987319E+03  0.69430987319E+03  0.00000000000E+00 0.  1.
         21   -1    0    0  504  502 -0.00000000000E+00 -0.00000000000E+00 -0.57097972803E+03  0.57097972803E+03  0.00000000000E+00 0.  1.
         21    1    1    2  503  505 -0.43725204586E+02 -0.21213677038E+03  0.35959401096E+03  0.41978775064E+03  0.00000000000E+00 0.  1.
         21    1    1    2  504  506  0.13586415047E+03  0.19926821944E+03 -0.47296653154E+03  0.53090887224E+03  0.00000000000E+00 0.  1.
         21    1    1    2  505  502  0.32498048695E+02 -0.28445466826E+01 -0.12963220702E+02  0.35103556882E+02  0.00000000000E+00 0.  1.
         21    1    1    2  506  501 -0.12463699458E+03  0.15713097623E+02  0.24966588645E+03  0.27948942146E+03  0.00000000000E+00 0.  1.
<scales pt_clust_3="14000.00000" pt_clust_4="250.61584" pt_clust_5="32.62230" pt_clust_6="124.73482"></scales>
<clustering>
<clus scale="   32.622">  2  5  1 -1</clus>
<clus scale="  124.735">  1  6  2 -1</clus>
<clus scale="  250.616">  2  4  1 -1</clus>
<clus scale="  124.735">  1  3  2 -1</clus>
</clustering>
</event>
<event>
 6    0  0.7442036E+002  0.1316098E+03  0.7546771E-02  0.1225086E+00
         21   -1    0    0  503  501  0.00000000000E+00  0.00000000000E+00  0.75762191051E+02  0.75762191051E+02  0.00000000000E+00 0.  1.
         21   -1    0    0  505  502 -0.00000000000E+00 -0.00000000000E+00 -0.78521031971E+03  0.78521031971E+03  0.00000000000E+00 0.  1.
         21    1    1    2  503  506  0.12459180871E+03 -0.29665170190E+01 -0.63148355296E+02  0.13971268302E+03  0.00000000000E+00 0.  1.
         21    1    1    2  504  502 -0.37738781267E+02 -0.39233487770E+02 -0.36845259962E+03  0.37245241353E+03  0.00000000000E+00 0.  1.
         21    1    1    2  505  501 -0.14311210499E+03  0.23829753022E+02 -0.15417900499E+03  0.21170757498E+03  0.00000000000E+00 0.  1.
         21    1    1    2  506  504  0.56259077541E+02  0.18370251767E+02 -0.12366816875E+03  0.13709983924E+03  0.00000000000E+00 0.  1.
<scales pt_clust_3="14000.00000" pt_clust_4="54.43787" pt_clust_5="131.60982" pt_clust_6="44.80400"></scales>
<clustering>
<clus scale="   54.438">  2  4  1 -1</clus>
<clus scale="   44.804">  2  6  1 -1</clus>
<clus scale="  131.610">  2  5  1 -1</clus>
<clus scale="  131.610">  1  3  2 -1</clus>
</clustering>
</event>
<event>
 6    0  0.7442036E+002  0.1244051E+03  0.7546771E-02  0.1236002E+00
         21   -1    0    0  505  501  0.00000000000E+00  0.00000000000E+00  0.81112654720E+03  0.81112654720E+03  0.00000000000E+00 0. -1.
         21   -1    0    0  504  502 -0.00000000000E+00 -0.00000000000E+00 -0.16717119782E+03  0.16717119782E+03  0.00000000000E+00 0. -1.
         21    1    1    2  503  501 -0.11799125208E+03 -0.10840788470E+02  0.49890267095E+03  0.51278000482E+03  0.00000000000E+00 0. -1.
         21    1    1    2  504  503  0.61032929051E+02 -0.77930801108E+02 -0.11664348864E+03  0.15298343581E+03  0.00000000000E+00 0. -1.
         21    1    1    2  505  506  0.62915282327E+01  0.81419864786E+02  0.24567019166E+03  0.25888727427E+03  0.00000000000E+00 0. -1.
         21    1    1    2  506  502  0.50666794794E+02  0.73517247925E+01  0.16025975412E+02  0.53647030114E+02  0.00000000000E+00 0.  1.
<scales pt_clust_3="14000.00000" pt_clust_4="124.40510" pt_clust_5="82.19308" pt_clust_6="51.19738"></scales>
<clustering>
<clus scale="   51.197">  2  6  1 -1</clus>
<clus scale="   82.193">  1  5  2 -1</clus>
<clus scale="  124.405">  2  4  1 -1</clus>
<clus scale="   82.193">  1  3  2 -1</clus>
</clustering>
</event>
<event>
 6    0  0.7442036E+002  0.1452907E+03  0.7546771E-02  0.1206382E+00
         21   -1    0    0  503  501  0.00000000000E+00  0.00000000000E+00  0.35392739232E+03  0.35392739232E+03  0.00000000000E+00 0.  1.
         21   -1    0    0  505  502 -0.00000000000E+00 -0.00000000000E+00 -0.90651752293E+02  0.90651752293E+02  0.00000000000E+00 0.  1.
         21    1    1    2  503  502  0.30946806822E+02  0.14567465959E+03  0.87756068407E+02  0.17285814659E+03  0.00000000000E+00 0.  1.
         21    1    1    2  504  506  0.14141110023E+02 -0.62560018985E+02  0.69234131808E+02  0.94377391230E+02  0.00000000000E+00 0. -1.
         21    1    1    2  505  504  0.37959742148E+01 -0.58958819195E+02  0.13605787957E+01  0.59096556209E+02  0.00000000000E+00 0. -1.
         21    1    1    2  506  501 -0.48883891059E+02 -0.24155821410E+02  0.10492486101E+03  0.11824705058E+03  0.00000000000E+00 0.  1.
<scales pt_clust_3="132.76794" pt_clust_4="55.24486" pt_clust_5="55.24486" pt_clust_6="54.52649"></scales>
<clustering>
<clus scale="   54.526">  1  6  2 -1</clus>
<clus scale="   55.245">  4  5 -1 -1</clus>
<clus scale="  132.768">  1  3  2 -1</clus>
<clus scale="   54.526">  1  3  2 -1</clus>
</clustering>
</event>
<event>
 6    0  0.7442036E+002  0.1330986E+03  0.7546771E-02  0.1222929E+00
         21   -1    0    0  505  501  0.00000000000E+00  0.00000000000E+00  0.33397644245E+03  0.33397644245E+03  0.00000000000E+00 0.  1.
         21   -1    0    0  504  502 -0.00000000000E+00 -0.00000000000E+00 -0.25909009454E+03  0.25909009454E+03  0.00000000000E+00 0.  1.
         21    1    1    2  503  506 -0.19991218681E+02  0.10424974117E+03 -0.73972202640E+01  0.10640665499E+03  0.00000000000E+00 0.  1.
         21    1    1    2  504  501 -0.69956518891E+02  0.16833037441E+02  0.15144150018E+03  0.16766572000E+03  0.00000000000E+00 0.  1.
         21    1    1    2  505  503  0.52342129357E+02  0.23746685979E+02  0.86000503333E+02  0.10343930672E+03  0.00000000000E+00 0. -1.
         21    1    1    2  506  502  0.37605608216E+02 -0.14482946459E+03 -0.15515843534E+03  0.21555485529E+03  0.00000000000E+00 0.  1.
<scales pt_clust_3="14000.00000" pt_clust_4="47.91491" pt_clust_5="57.47698" pt_clust_6="133.09856"></scales>
<clustering>
<clus scale="   57.477">  1  5  2 -1</clus>
<clus scale="   47.915">  1  4  2 -1</clus>
<clus scale="  133.099">  2  6  1 -1</clus>
<clus scale="   57.477">  1  3  2 -1</clus>
</clustering>
</event>
<event>
 6    0  0.7442036E+002  0.1444589E+03  0.7546771E-02  0.1207452E+00
         21   -1    0    0  503  501  0.00000000000E+00  0.00000000000E+00  0.52065206740E+02  0.52065206740E+02  0.00000000000E+00 0.  1.
         21   -1    0    0  506  502 -0.00000000000E+00 -0.00000000000E+00 -0.22089320308E+04  0.22089320308E+04  0.00000000000E+00 0.  1.
         21    1    1    2  503  502 -0.35743867044E+02  0.18000259976E+01 -0.10432531740E+03  0.11029340858E+03  0.00000000000E+00 0. -1.
         21    1    1    2  504  505  0.54096688839E+02  0.70170655321E+02 -0.98783196182E+03  0.99179753852E+03  0.00000000000E+00 0.  1.
         21    1    1    2  505  501 -0.30499760626E+02 -0.12144150737E+03 -0.37884718326E+02  0.13081867983E+03  0.00000000000E+00 0.  1.
         21    1    1    2  506  504  0.12146938830E+02  0.49470826053E+02 -0.10268248265E+04  0.10280876106E+04  0.00000000000E+00 0.  1.
<scales pt_clust_3="35.78916" pt_clust_4="37.22295" pt_clust_5="135.92883" pt_clust_6="37.22295"></scales>
<clustering>
<clus scale="   35.789">  1  3  2 -1</clus>
<clus scale="   37.223">  4  6 -1 -1</clus>
<clus scale="  135.929">  1  5  2 -1</clus>
<clus scale="   35.789">  1  3  2 -1</clus>
</clustering>
</event>
<event>
 6    0  0.7442036E+002  0.1476128E+03  0.7546771E-02  0.1203437E+00
         21   -1    0    0  506  501  0.00000000000E+00  0.00000000000E+00  0.26109221437E+04  0.26109221437E+04  0.00000000000E+00 0. -1.
         21   -1    0    0  504  502 -0.00000000000E+00 -0.00000000000E+00 -0.12224931632E+04  0.12224931632E+04  0.00000000000E+00 0. -1.
         21    1    1    2  503  505  0.77807088770E+00 -0.25522488637E+03 -0.61829853019E+03  0.66890464227E+03  0.00000000000E+00 0. -1.
         21    1    1    2  504  503 -0.42082421621E+02  0.11465406401E+03 -0.56755510705E+03  0.58054740043E+03  0.00000000000E+00 0. -1.
         21    1    1    2  505  501 -0.25558404180E+01 -0.32699199777E+02  0.80680245126E+03  0.80746886339E+03  0.00000000000E+00 0. -1.
         21    1    1    2  506  502  0.43860191151E+02  0.17327002214E+03  0.17674801665E+04  0.17764944008E+04  0.00000000000E+00 0. -1.
<scales pt_clust_3="14000.00000" pt_clust_4="122.02569" pt_clust_5="32.79893" pt_clust_6="147.61279"></scales>
<clustering>
<clus scale="   32.799">  1  5  2 -1</clus>
<clus scale="  122.026">  2  4  1 -1</clus>
<clus scale="  147.613">  1  6  2 -1</clus>
<clus scale="   32.799">  1  3  2 -1</clus>
</clustering>
</event>
<event>
 6    0  0.7442036E+002  0.1217154E+03  0.7546771E-02  0.1240294E+00
         21   -1    0    0  503  501  0.00000000000E+00  0.00000000000E+00  0.44375981751E+03  0.44375981751E+03  0.00000000000E+00 0. -1.
         21   -1    0    0  504  502 -0.00000000000E+00 -0.00000000000E+00 -0.67081041243E+03  0.67081041243E+03  0.00000000000E+00 0. -1.
         21    1    1    2  503  506 -0.73902956533E+02  0.23641985203E+02 -0.63229264282E+02  0.10009260867E+03  0.00000000000E+00 0. -1.
         21    1    1    2  504  505 -0.38239177913E+02 -0.33394625371E+02 -0.42801170688E+03  0.43101213087E+03  0.00000000000E+00 0. -1.
         21    1    1    2  505  501  0.12261101208E+03 -0.32699885342E+02  0.41107268972E+03  0.43021331804E+03  0.00000000000E+00 0. -1.
         21    1    1    2  506  502 -0.10468877632E+02  0.42452525510E+02 -0.14688231348E+03  0.15325217236E+03  0.00000000000E+00 0. -1.
<scales pt_clust_3="121.71538" pt_clust_4="46.90197" pt_clust_5="14000.00000" pt_clust_6="43.72430"></scales>
<clustering>
<clus scale="   43.724">  2  6  1 -1</clus>
<clus scale="   46.902">  2  4  1 -1</clus>
<clus scale="  121.715">  2  3  1 -1</clus>
<clus scale="  121.715">  1  3  2 -1</clus>
</clustering>
</event>
<event>
 6    0  0.7442036E+002  0.1383017E+03  0.7546771E-02  0.1215633E+00
         21   -1    0    0  505  501  0.00000000000E+00  0.00000000000E+00  0.52011234765E+03  0.52011234765E+03  0.00000000000E+00 0. -1.
         21   -1    0    0  503  502 -0.00000000000E+00 -0.00000000000E+00 -0.53842009145E+03  0.53842009145E+03  0.00000000000E+00 0. -1.
         21    1    1    2  503  506  0.15858580095E+03  0.67557464036E+02 -0.45121384979E+03  0.48301905289E+03  0.00000000000E+00 0. -1.
         21    1    1    2  504  501 -0.29862418579E+02 -0.11291718223E+03  0.32055716514E+03  0.34117290369E+03  0.00000000000E+00 0. -1.
         21    1    1    2  505  502 -0.20613501217E+02 -0.31835337142E+02 -0.23273385075E+02  0.44497815410E+02  0.00000000000E+00 0.  1.
         21    1    1    2  506  504 -0.10810988115E+03  0.77195055338E+02  0.13562232592E+03  0.18984266712E+03  0.00000000000E+00 0. -1.
<scales pt_clust_3="138.30166" pt_clust_4="117.53592" pt_clust_5="37.92631" pt_clust_6="14000.00000"></scales>
<clustering>
<clus scale="   37.926">  2  5  1 -1</clus>
<clus scale="  117.536">  1  4  2 -1</clus>
<clus scale="  138.302">  2  3  1 -1</clus>
<clus scale="  117.536">  1  3  2 -1</clus>
</clustering>
</event>
<event>
 6    0  0.7442036E+002  0.1786835E+03  0.7546771E-02  0.1169083E+00
         21   -1    0    0  506  501  0.00000000000E+00  0.00000000000E+00  0.90582965272E+03  0.90582965272E+03  0.00000000000E+00 0. -1.
         21   -1    0    0  503  502 -0.00000000000E+00 -0.00000000000E+00 -0.20350867131E+03  0.20350867131E+03  0.00000000000E+00 0.  1.
         21    1    1    2  503  505 -0.15567969697E+02  0.86476196066E+02 -0.55620851300E+02  0.10399121725E+03  0.00000000000E+00 0.  1.
         21    1    1    2  504  501  0.91350555035E+02 -0.15682784488E+03  0.75121797204E+02  0.19642601979E+03  0.00000000000E+00 0.  1.
         21    1    1    2  505  504 -0.38194166261E+02  0.79629209438E+02 -0.31340824845E+02  0.93711539493E+02  0.00000000000E+00 0.  1.
         21    1    1    2  506  502 -0.37588419077E+02 -0.92775606194E+01  0.71416086035E+03  0.71520954750E+03  0.00000000000E+00 0. -1.
<scales pt_clust_3="32.20827" pt_clust_4="175.74163" pt_clust_5="32.20827" pt_clust_6="38.71644"></scales>
<clustering>
<clus scale="   32.208">  3  5 -1 -1</clus>
<clus scale="   38.716">  1  6  2 -1</clus>
<clus scale="  175.742">  1  4  2 -1</clus>
<clus scale="   38.716">  1  3  2 -1</clus>
</clustering>
</event>
<event>
 6    0  0.7442036E+002  0.5949465E+02  0.7546771E-02  0.1399965E+00
         21   -1    0    0  505  501  0.00000000000E+00  0.00000000000E+00  0.56997758562E+03  0.56997758562E+03  0.00000000000E+00 0.  1.
         21   -1    0    0  504  502 -0.00000000000E+00 -0.00000000000E+00 -0.19314067450E+04  0.19314067450E+04  0.00000000000E+00 0.  1.
         21    1    1    2  503  502 -0.50690394497E+02  0.31091782256E+02 -0.18824337390E+04  0.18833727716E+04  0.00000000000E+00 0.  1.
         21    1    1    2  504  506  0.11001973944E+03  0.27772452001E+02  0.31637665411E+03  0.33610986213E+03  0.00000000000E+00 0.  1.
         21    1    1    2  505  503 -0.31950322956E+02 -0.28945686353E+02 -0.24245927392E+02  0.49462520059E+02  0.00000000000E+00 0.  1.
         21    1    1    2  506  501 -0.27379021989E+02 -0.29918547903E+02  0.22887385295E+03  0.23243917681E+03  0.00000000000E+00 0.  1.
<scales pt_clust_3="59.49465" pt_clust_4="14000.00000" pt_clust_5="44.61292" pt_clust_6="40.55528"></scales>
<clustering>
<clus scale="   40.555">  1  6  2 -1</clus>
<clus scale="   44.613">  1  5  2 -1</clus>
<clus scale="   59.495">  2  3  1 -1</clus>
<clus scale="   40.555">  1  3  2 -1</clus>
</clustering>
</event>
<event>
 6    0  0.7442036E+002  0.3746965E+03  0.7546771E-02  0.1052912E+00
         21   -1    0    0  503  501  0.00000000000E+00  0.00000000000E+00  0.43706060528E+03  0.43706060528E+03  0.00000000000E+00 0. -1.
         21   -1    0    0  505  502 -0.00000000000E+00 -0.00000000000E+00 -0.89125114901E+03  0.89125114901E+03  0.00000000000E+00 0. -1.
         21    1    1    2  503  504  0.88867486271E+01  0.32437579816E+02  0.27121338654E+03  0.27329081932E+03  0.00000000000E+00 0. -1.
         21    1    1    2  504  502 -0.37117486393E+03  0.54700267150E+02 -0.25324103828E+03  0.45265209854E+03  0.00000000000E+00 0. -1.
         21    1    1    2  505  506  0.17823672827E+03 -0.27476646575E+02 -0.23821470086E+03  0.29878008822E+03  0.00000000000E+00 0. -1.
         21    1    1    2  506  501  0.18405138704E+03 -0.59661200391E+02 -0.23394819113E+03  0.30358874820E+03  0.00000000000E+00 0. -1.
<scales pt_clust_3="33.63288" pt_clust_4="373.27295" pt_clust_5="31.50300" pt_clust_6="31.50300"></scales>
<clustering>
<clus scale="   31.503">  5  6 -1 -1</clus>
<clus scale="   33.633">  1  3  2 -1</clus>
<clus scale="  373.273">  1  4  2 -1</clus>
<clus scale="   33.633">  1  3  2 -1</clus>
</clustering>
</event>
<event>
 6    0  0.1438697E+003  0.1348649E+03  0.7546771E-02  0.1220411E+00
         21   -1    0    0  504  501  0.00000000000E+00  0.00000000000E+00  0.11840899930E+04  0.11840899930E+04  0.00000000000E+00 0.  1.
         21   -1    0    0  503  502 -0.00000000000E+00 -0.00000000000E+00 -0.33747043665E+03  0.33747043665E+03  0.00000000000E+00 0. -1.
         21    1    1    2  503  505 -0.24242088144E+02  0.53535106414E+02 -0.11442699347E+03  0.12863601087E+03  0.00000000000E+00 0. -1.
         21    1    1    2  504  502 -0.35190341648E+02 -0.12068879524E+02  0.43557550819E+02  0.57282442613E+02  0.00000000000E+00 0.  1.
         21    1    1    2  505  506  0.16261134597E+02  0.73091157542E+02 -0.19891718639E+03  0.21254361635E+03  0.00000000000E+00 0. -1.
         21    1    1    2  506  501  0.43171295194E+02 -0.11455738443E+03  0.11164061854E+04  0.11230983598E+04  0.00000000000E+00 0.  1.
<scales pt_clust_3="40.84045" pt_clust_4="37.20239" pt_clust_5="40.84045" pt_clust_6="126.75759"></scales>
<clustering>
<clus scale="   37.202">  1  4  2 -1</clus>
<clus scale="   40.840">  3  5 -1 -1</clus>
<clus scale="  126.758">  1  6  2 -1</clus>
<clus scale="   37.202">  1  3  2 -1</clus>
</clustering>
</event>
<event>
 6    0  0.7442036E+002  0.7726337E+02  0.7546771E-02  0.1337002E+00
         21   -1    0    0  504  501  0.00000000000E+00  0.00000000000E+00  0.54526507016E+03  0.54526507016E+03  0.00000000000E+00 0.  1.
         21   -1    0    0  505  502 -0.00000000000E+00 -0.00000000000E+00 -0.18886592486E+03  0.18886592486E+03  0.00000000000E+00 0. -1.
         21    1    1    2  503  501  0.30396548412E+02  0.11252793909E+03  0.42859718802E+03  0.44416442542E+03  0.00000000000E+00 0.  1.
         21    1    1    2  504  506  0.22337147294E+02 -0.55885640809E+02  0.81656969047E+02  0.10143970422E+03  0.00000000000E+00 0.  1.
         21    1    1    2  505  503 -0.67123819255E+02 -0.28137675133E+02 -0.12879050371E+03  0.14793353143E+03  0.00000000000E+00 0. -1.
         21    1    1    2  506  502  0.14390123549E+02 -0.28504623150E+02 -0.25064508059E+02  0.40593333947E+02  0.00000000000E+00 0.  1.
<scales pt_clust_3="14000.00000" pt_clust_4="62.20102" pt_clust_5="77.26337" pt_clust_6="31.93101"></scales>
<clustering>
<clus scale="   31.931">  2  6  1 -1</clus>
<clus scale="   62.201">  1  4  2 -1</clus>
<clus scale="   77.263">  2  5  1 -1</clus>
<clus scale="   62.201">  1  3  2 -1</clus>
</clustering>
</event>
<event>
 6    0  0.7442036E+002  0.1739703E+03  0.7546771E-02  0.1173770E+00
         21   -1    0    0  503  501  0.00000000000E+00  0.00000000000E+00  0.50124831104E+03  0.50124831104E+03  0.00000000000E+00 0. -1.
         21   -1    0    0  505  502 -0.00000000000E+00 -0.00000000000E+00 -0.60918112752E+03  0.60918112752E+03  0.00000000000E+00 0.  1.
         21    1    1    2  503  504 -0.12556408742E+02 -0.28993775233E+02  0.48725453239E+02  0.58072990246E+02  0.00000000000E+00 0. -1.
         21    1    1    2  504  506  0.60431969315E+01 -0.59945965413E+02 -0.13962522771E+03  0.15206986293E+03  0.00000000000E+00 0.  1.
         21    1    1    2  505  501  0.38834733772E+02  0.19168603249E+03  0.41300034822E+03  0.45696931979E+03  0.00000000000E+00 0. -1.
         21    1    1    2  506  502 -0.32321521961E+02 -0.10274629185E+03 -0.43003339023E+03  0.44331726560E+03  0.00000000000E+00 0.  1.
<scales pt_clust_3="31.59592" pt_clust_4="39.72588" pt_clust_5="165.68069" pt_clust_6="39.72588"></scales>
<clustering>
<clus scale="   31.596">  1  3  2 -1</clus>
<clus scale="   39.726">  4  6 -1 -1</clus>
<clus scale="  165.681">  1  5  2 -1</clus>
<clus scale="   31.596">  1  3  2 -1</clus>
</clustering>
</event>
<event>
 6    0  0.7442036E+002  0.6969250E+02  0.7546771E-02  0.1361142E+00
         21   -1    0    0  505  501  0.00000000000E+00  0.00000000000E+00  0.20845382407E+03  0.20845382407E+03  0.00000000000E+00 0.  1.
         21   -1    0    0  506  502 -0.00000000000E+00 -0.00000000000E+00 -0.29523629472E+03  0.29523629472E+03  0.00000000000E+00 0. -1.
         21    1    1    2  503  501 -0.46875862420E+02 -0.36895031141E+00  0.62867635378E+02  0.78420801959E+02  0.00000000000E+00 0.  1.
         21    1    1    2  504  502 -0.81924996099E+02 -0.27622493105E+02 -0.26829715117E+02  0.90523702556E+02  0.00000000000E+00 0.  1.
         21    1    1    2  505  504  0.61159511206E+02  0.33777441261E+02  0.88519155717E+02  0.11276986423E+03  0.00000000000E+00 0.  1.
         21    1    1    2  506  503  0.67641347313E+02 -0.57859978442E+01 -0.21133954664E+03  0.22197575005E+03  0.00000000000E+00 0. -1.
<scales pt_clust_3="46.87731" pt_clust_4="69.69250" pt_clust_5="42.98557" pt_clust_6="14000.00000"></scales>
<clustering>
<clus scale="   46.877">  1  3  2 -1</clus>
<clus scale="   42.986">  1  5  2 -1</clus>
<clus scale="   69.693">  1  4  2 -1</clus>
<clus scale="   46.877">  1  3  2 -1</clus>
</clustering>
</event>
<event>
 6    0  0.7442036E+002  0.1440869E+03  0.7546771E-02  0.1207933E+00
         21   -1    0    0  505  501  0.00000000000E+00  0.00000000000E+00  0.20342221169E+04  0.20342221169E+04  0.00000000000E+00 0. -1.
         21   -1    0    0  504  502 -0.00000000000E+00 -0.00000000000E+00 -0.65830331567E+02  0.65830331567E+02  0.00000000000E+00 0.  1.
         21    1    1    2  503  506  0.10828352716E+03  0.56365517253E+02  0.39870949069E+02  0.12842151833E+03  0.00000000000E+00 0.  1.
         21    1    1    2  504  503 -0.69289517496E+01  0.53019060359E+02  0.21725425339E+02  0.57715034782E+02  0.00000000000E+00 0.  1.
         21    1    1    2  505  502 -0.34435612010E+02 -0.50196886654E+01  0.23916982100E+03  0.24168825360E+03  0.00000000000E+00 0.  1.
         21    1    1    2  506  501 -0.66918963400E+02 -0.10436488895E+03  0.16676255899E+04  0.16722276418E+04  0.00000000000E+00 0. -1.
<scales pt_clust_3="144.08695" pt_clust_4="53.46406" pt_clust_5="34.79955" pt_clust_6="14000.00000"></scales>
<clustering>
<clus scale="   34.800">  1  5  2 -1</clus>
<clus scale="   53.464">  2  4  1 -1</clus>
<clus scale="  144.087">  2  3  1 -1</clus>
<clus scale="   34.800">  1  3  2 -1</clus>
</clustering>
</event>
<event>
 6    0  0.7442036E+002  0.1592794E+03  0.7546771E-02  0.1189513E+00
         21   -1    0    0  503  501  0.00000000000E+00  0.00000000000E+00  0.43692377273E+03  0.43692377273E+03  0.00000000000E+00 0.  1.
         21   -1    0    0  505  502 -0.00000000000E+00 -0.00000000000E+00 -0.88272121401E+03  0.88272121401E+03  0.00000000000E+00 0.  1.
         21    1    1    2  503  504 -0.17415345135E+01 -0.31929076272E+02  0.39128362023E+02  0.50532440755E+02  0.00000000000E+00 0.  1.
         21    1    1    2  504  506  0.42319344828E+01  0.85816811933E+02 -0.42564140124E+03  0.43422694174E+03  0.00000000000E+00 0.  1.
         21    1    1    2  505  501 -0.66378063121E+02 -0.89567029376E+02  0.37667578351E+03  0.39282686505E+03  0.00000000000E+00 0.  1.
         21    1    1    2  506  502  0.63887663152E+02  0.35679293715E+02 -0.43596018558E+03  0.44205873921E+03  0.00000000000E+00 0.  1.
<scales pt_clust_3="31.97654" pt_clust_4="72.26370" pt_clust_5="138.75236" pt_clust_6="72.26370"></scales>
<clustering>
<clus scale="   31.977">  1  3  2 -1</clus>
<clus scale="   72.264">  4  6 -1 -1</clus>
<clus scale="  138.752">  1  5  2 -1</clus>
<clus scale="   31.977">  1  3  2 -1</clus>
</clustering>
</event>
<event>
 6    0  0.7442036E+002  0.8218084E+02  0.7546771E-02  0.1322974E+00
         21   -1    0    0  506  501  0.00000000000E+00  0.00000000000E+00  0.55772979088E+02  0.55772979088E+02  0.00000000000E+00 0. -1.
         21   -1    0    0  504  502 -0.00000000000E+00 -0.00000000000E+00 -0.82217566345E+03  0.82217566345E+03  0.00000000000E+00 0.  1.
         21    1    1    2  503  502  0.34955295719E+02  0.18300155823E+02 -0.77317151559E+02  0.86802709216E+02  0.00000000000E+00 0. -1.
         21    1    1    2  504  505 -0.25587599328E+02 -0.11348955065E+03 -0.66353952499E+03  0.67366111998E+03  0.00000000000E+00 0.  1.
         21    1    1    2  505  501 -0.13146511999E+02  0.41814554946E+02  0.19084274396E+02  0.47806875157E+02  0.00000000000E+00 0. -1.
         21    1    1    2  506  503  0.37788156086E+01  0.53374839882E+02 -0.44630282205E+02  0.69677938183E+02  0.00000000000E+00 0. -1.
<scales pt_clust_3="39.45590" pt_clust_4="14000.00000" pt_clust_5="43.97427" pt_clust_6="82.18084"></scales>
<clustering>
<clus scale="   39.456">  2  3  1 -1</clus>
<clus scale="   43.974">  1  5  2 -1</clus>
<clus scale="   82.181">  1  6  2 -1</clus>
<clus scale="   43.974">  1  3  2 -1</clus>
</clustering>
</event>
<event>
 6    0  0.7442036E+002  0.1177413E+03  0.7546771E-02  0.1246870E+00
         21   -1    0    0  506  501  0.00000000000E+00  0.00000000000E+00  0.88349530903E+02  0.88349530903E+02  0.00000000000E+00 0. -1.
         21   -1    0    0  505  502 -0.00000000000E+00 -0.00000000000E+00 -0.27007287009E+03  0.27007287009E+03  0.00000000000E+00 0. -1.
         21    1    1    2  503  502 -0.13818430655E+02 -0.36954678406E+02 -0.36000193887E+02  0.53409842181E+02  0.00000000000E+00 0. -1.
         21    1    1    2  504  503  0.67559020819E+02 -0.27189611061E+02 -0.20722608329E+02  0.75716066589E+02  0.00000000000E+00 0. -1.
         21    1    1    2  505  501 -0.86093023323E+02  0.74018228965E+02 -0.14935868892E+03  0.18761323205E+03  0.00000000000E+00 0. -1.
         21    1    1    2  506  504  0.32352433159E+02 -0.98739394983E+01  0.24358151948E+02  0.41683260175E+02  0.00000000000E+00 0. -1.
<scales pt_clust_3="39.45374" pt_clust_4="33.48076" pt_clust_5="107.00299" pt_clust_6="33.48076"></scales>
<clustering>
<clus scale="   33.481">  4  6 -1 -1</clus>
<clus scale="   39.454">  2  3  1 -1</clus>
<clus scale="  107.003">  2  5  1 -1</clus>
<clus scale="  117.741">  1  3  2 -1</clus>
</clustering>
</event>
<event>
 6    0  0.7442036E+002  0.1413670E+03  0.7546771E-02  0.1211501E+00
         21   -1    0    0  504  501  0.00000000000E+00  0.00000000000E+00  0.41196108089E+03  0.41196108089E+03  0.00000000000E+00 0.  1.
         21   -1    0    0  505  502 -0.00000000000E+00 -0.00000000000E+00 -0.18871974736E+03  0.18871974736E+03  0.00000000000E+00 0.  1.
         21    1    1    2  503  502  0.74055066738E+02  0.31194886155E+01 -0.11406982256E+02  0.74993355458E+02  0.00000000000E+00 0.  1.
         21    1    1    2  504  503  0.26009209186E+02  0.25694289656E+02  0.19024039993E+02  0.41213948865E+02  0.00000000000E+00 0.  1.
         21    1    1    2  505  506  0.25899925689E+02 -0.11166712033E+03 -0.88638546152E+02  0.14490391222E+03  0.00000000000E+00 0.  1.
         21    1    1    2  506  501 -0.12596420161E+03  0.82853342056E+02  0.30426282194E+03  0.33956961171E+03  0.00000000000E+00 0.  1.
<scales pt_clust_3="35.83239" pt_clust_4="35.83239" pt_clust_5="114.63137" pt_clust_6="131.83931"></scales>
<clustering>
<clus scale="   35.832">  3  4 -1 -1</clus>
<clus scale="  114.631">  2  5  1 -1</clus>
<clus scale="  131.839">  1  6  2 -1</clus>
<clus scale="  131.839">  1  3  2 -1</clus>
</clustering>
</event>
<event>
 6    0  0.7442036E+002  0.2739535E+03  0.7546771E-02  0.1099038E+00
         21   -1    0    0  503  501  0.00000000000E+00  0.00000000000E+00  0.75230785543E+03  0.75230785543E+03  0.00000000000E+00 0.  1.
         21   -1    0    0  506  502 -0.00000000000E+00 -0.00000000000E+00 -0.46424267770E+03  0.46424267770E+03  0.00000000000E+00 0. -1.
         21    1    1    2  503  505  0.38340515729E+02 -0.33532038105E+02  0.29290540052E+03  0.29730113753E+03  0.00000000000E+00 0.  1.
         21    1    1    2  504  502  0.19805720122E+03  0.24535598240E+02 -0.29477741203E+02  0.20173643142E+03  0.00000000000E+00 0. -1.
         21    1    1    2  505  504  0.12266811309E+03  0.21482127111E+00  0.26041908775E+03  0.28786387995E+03  0.00000000000E+00 0. -1.
         21    1    1    2  506  501 -0.35906583004E+03  0.87816185935E+01 -0.23578156934E+03  0.42964908422E+03  0.00000000000E+00 0. -1.
<scales pt_clust_3="50.93518" pt_clust_4="273.95345" pt_clust_5="147.00912" pt_clust_6="14000.00000"></scales>
<clustering>
<clus scale="   50.935">  1  3  2 -1</clus>
<clus scale="  147.009">  1  5  2 -1</clus>
<clus scale="  273.953">  2  4  1 -1</clus>
<clus scale="   50.935">  1  3  2 -1</clus>
</clustering>
</event>
<event>
 6    0  0.7442036E+002  0.1148073E+03  0.7546771E-02  0.1251918E+00
         21   -1    0    0  506  501  0.00000000000E+00  0.00000000000E+00  0.64045841795E+02  0.64045841795E+02  0.00000000000E+00 0.  1.
         21   -1    0    0  505  502 -0.00000000000E+00 -0.00000000000E+00 -0.26445064011E+04  0.26445064011E+04  0.00000000000E+00 0. -1.
         21    1    1    2  503  501  0.25507806734E+02  0.20626317972E+02 -0.30700519026E+02  0.44929000277E+02  0.00000000000E+00 0.  1.
         21    1    1    2  504  502  0.22884126276E+02 -0.10708193798E+03 -0.28277301463E+02  0.11309213260E+03  0.00000000000E+00 0.  1.
         21    1    1    2  505  503 -0.17317318435E+01  0.11502496432E+03 -0.24779355749E+04  0.24806044535E+04  0.00000000000E+00 0. -1.
         21    1    1    2  506  504 -0.46660201166E+02 -0.28569344310E+02 -0.43547163887E+02  0.69926656504E+02  0.00000000000E+00 0.  1.
<scales pt_clust_3="32.80386" pt_clust_4="114.80726" pt_clust_5="14000.00000" pt_clust_6="47.18698"></scales>
<clustering>
<clus scale="   32.804">  1  3  2 -1</clus>
<clus scale="   47.187">  1  6  2 -1</clus>
<clus scale="  114.807">  1  4  2 -1</clus>
<clus scale="   32.804">  1  3  2 -1</clus>
</clustering>
</event>
<event>
 6    0  0.7442036E+002  0.2103394E+03  0.7546771E-02  0.1141297E+00
         21   -1    0    0  504  501  0.00000000000E+00  0.00000000000E+00  0.26689853282E+03  0.26689853282E+03  0.00000000000E+00 0.  1.
         21   -1    0    0  505  502 -0.00000000000E+00 -0.00000000000E+00 -0.26803019389E+04  0.26803019389E+04  0.00000000000E+00 0.  1.
         21    1    1    2  503  502 -0.41397288602E+01  0.13465043421E+03 -0.70291836480E+03  0.71571090837E+03  0.00000000000E+00 0.  1.
         21    1    1    2  504  503  0.23134127037E+03 -0.61309427124E+02 -0.16896026744E+03  0.29295938490E+03  0.00000000000E+00 0.  1.
         21    1    1    2  505  506 -0.32636709878E+02  0.15626382282E+02 -0.16821314490E+04  0.16825205944E+04  0.00000000000E+00 0.  1.
         21    1    1    2  506  501 -0.19456483163E+03 -0.88967389370E+02  0.14060667513E+03  0.25600958414E+03  0.00000000000E+00 0.  1.
<scales pt_clust_3="148.29822" pt_clust_4="210.33941" pt_clust_5="36.18478" pt_clust_6="14000.00000"></scales>
<clustering>
<clus scale="   36.185">  2  5  1 -1</clus>
<clus scale="  148.298">  2  3  1 -1</clus>
<clus scale="  210.339">  2  4  1 -1</clus>
<clus scale="  210.339">  1  3  2 -1</clus>
</clustering>
</event>
<event>
 6    0  0.7442036E+002  0.8679381E+02  0.7546771E-02  0.1310807E+00
         21   -1    0    0  506  501  0.00000000000E+00  0.00000000000E+00  0.10131000676E+03  0.10131000676E+03  0.00000000000E+00 0. -1.
         21   -1    0    0  503  502 -0.00000000000E+00 -0.00000000000E+00 -0.68970856022E+03  0.68970856022E+03  0.00000000000E+00 0. -1.
         21    1    1    2  503  505  0.67403946262E+02 -0.51469821485E+02 -0.45945367739E+03  0.46721527817E+03  0.00000000000E+00 0. -1.
         21    1    1    2  504  502 -0.92483196171E+02  0.33694639843E+02 -0.13646093470E+03  0.16825592716E+03  0.00000000000E+00 0. -1.
         21    1    1    2  505  501  0.33365594482E+02 -0.17639532843E+02 -0.64578168703E+02  0.74798100825E+02  0.00000000000E+00 0. -1.
         21    1    1    2  506  504 -0.82863445728E+01  0.35414714485E+02  0.72094227321E+02  0.80749260811E+02  0.00000000000E+00 0. -1.
<scales pt_clust_3="14000.00000" pt_clust_4="86.79381" pt_clust_5="33.31859" pt_clust_6="36.37122"></scales>
<clustering>
<clus scale="   36.371">  1  6  2 -1</clus>
<clus scale="   33.319">  1  5  2 -1</clus>
<clus scale="   86.794">  1  4  2 -1</clus>
<clus scale="   36.371">  1  3  2 -1</clus>
</clustering>
</event>
<event>
 6    0  0.7442036E+002  0.8904002E+02  0.7546771E-02  0.1305193E+00
         21   -1    0    0  506  501  0.00000000000E+00  0.00000000000E+00  0.94713047651E+03  0.94713047651E+03  0.00000000000E+00 0. -1.
         21   -1    0    0  505  502 -0.00000000000E+00 -0.00000000000E+00 -0.98638009382E+03  0.98638009382E+03  0.00000000000E+00 0. -1.
         21    1    1    2  503  501  0.46792200363E+02 -0.43990393003E+01  0.89767189047E+03  0.89890137641E+03  0.00000000000E+00 0. -1.
         21    1    1    2  504  502  0.23134187734E+00 -0.95899861487E+02 -0.81869990393E+03  0.82429750069E+03  0.00000000000E+00 0. -1.
         21    1    1    2  505  503 -0.48986022512E+02  0.61399129792E+02 -0.14370260925E+03  0.16376789504E+03  0.00000000000E+00 0. -1.
         21    1    1    2  506  504  0.19624802721E+01  0.38899770996E+02  0.25481005401E+02  0.46543798176E+02  0.00000000000E+00 0. -1.
<scales pt_clust_3="59.38960" pt_clust_4="14000.00000" pt_clust_5="89.04002" pt_clust_6="38.94924"></scales>
<clustering>
<clus scale="   38.949">  1  6  2 -1</clus>
<clus scale="   59.390">  1  3  2 -1</clus>
<clus scale="   89.040">  1  5  2 -1</clus>
<clus scale="   38.949">  1  3  2 -1</clus>
</clustering>
</event>
<event>
 6    0  0.7442036E+002  0.1827194E+03  0.7546771E-02  0.1165197E+00
         21   -1    0    0  506  501  0.00000000000E+00  0.00000000000E+00  0.75405825970E+03  0.75405825970E+03  0.00000000000E+00 0. -1.
         21   -1    0    0  505  502 -0.00000000000E+00 -0.00000000000E+00 -0.33977188322E+03  0.33977188322E+03  0.00000000000E+00 0.  1.
         21    1    1    2  503  501 -0.76476474654E+02  0.50735329815E+02 -0.10785735313E+03  0.14161897292E+03  0.00000000000E+00 0.  1.
         21    1    1    2  504  502  0.13959892756E+03 -0.13421534480E+03  0.65360584525E+03  0.68169070722E+03  0.00000000000E+00 0. -1.
         21    1    1    2  505  503 -0.67312544799E+02  0.50014061168E+02 -0.18734008326E+03  0.20525275101E+03  0.00000000000E+00 0.  1.
         21    1    1    2  506  504  0.41900918920E+01  0.33465953822E+02  0.55877967622E+02  0.65267711779E+02  0.00000000000E+00 0. -1.
<scales pt_clust_3="46.33261" pt_clust_4="176.16368" pt_clust_5="46.33261" pt_clust_6="33.72724"></scales>
<clustering>
<clus scale="   33.727">  1  6  2 -1</clus>
<clus scale="   46.333">  3  5 -1 -1</clus>
<clus scale="  176.164">  1  4  2 -1</clus>
<clus scale="   33.727">  1  3  2 -1</clus>
</clustering>
</event>
<event>
 6    0  0.7442036E+002  0.7864980E+02  0.7546771E-02  0.1332927E+00
         21   -1    0    0  505  501  0.00000000000E+00  0.00000000000E+00  0.80463304607E+02  0.80463304607E+02  0.00000000000E+00 0.  1.
         21   -1    0    0  503  502 -0.00000000000E+00 -0.00000000000E+00 -0.27602217159E+03  0.27602217159E+03  0.00000000000E+00 0.  1.
         21    1    1    2  503  506 -0.22608357462E+02 -0.24298352317E+02 -0.89618814068E+02  0.95567147009E+02  0.00000000000E+00 0. -1.
         21    1    1    2  504  501 -0.50916279674E+02  0.19918693594E+02 -0.24572401270E+02  0.59941845104E+02  0.00000000000E+00 0.  1.
         21    1    1    2  505  502  0.36073599168E+02 -0.80315915609E+02 -0.21267226362E+02  0.90577291714E+02  0.00000000000E+00 0.  1.
         21    1    1    2  506  504  0.37451037968E+02  0.84695574332E+02 -0.60100425281E+02  0.11039919237E+03  0.00000000000E+00 0.  1.
<scales pt_clust_3="33.18957" pt_clust_4="57.92293" pt_clust_5="78.64980" pt_clust_6="14000.00000"></scales>
<clustering>
<clus scale="   33.190">  2  3  1 -1</clus>
<clus scale="   57.923">  1  4  2 -1</clus>
<clus scale="   78.650">  1  5  2 -1</clus>
<clus scale="   57.923">  1  3  2 -1</clus>
</clustering>
</event>
<event>
 6    0  0.7442036E+002  0.9818842E+02  0.7546771E-02  0.1284152E+00
         21   -1    0    0  505  501  0.00000000000E+00  0.00000000000E+00  0.30744803904E+03  0.30744803904E+03  0.00000000000E+00 0. -1.
         21   -1    0    0  506  502 -0.00000000000E+00 -0.00000000000E+00 -0.23371972909E+03  0.23371972909E+03  0.00000000000E+00 0. -1.
         21    1    1    2  503  502  0.33620801226E+02  0.78872982635E+01  0.35736377991E+01  0.34717987213E+02  0.00000000000E+00 0.  1.
         21    1    1    2  504  501 -0.13057137333E+02  0.11812124875E+03 -0.10242573477E+03  0.15688897152E+03  0.00000000000E+00 0. -1.
         21    1    1    2  505  503 -0.17067561447E+01 -0.43840626060E+02  0.23852648948E+03  0.24252793590E+03  0.00000000000E+00 0. -1.
         21    1    1    2  506  504 -0.18856907749E+02 -0.82167920955E+02 -0.65946082549E+02  0.10703287349E+03  0.00000000000E+00 0. -1.
<scales pt_clust_3="34.53357" pt_clust_4="14000.00000" pt_clust_5="43.79062" pt_clust_6="98.18842"></scales>
<clustering>
<clus scale="   34.534">  2  3  1 -1</clus>
<clus scale="   43.791">  1  5  2 -1</clus>
<clus scale="   98.188">  2  6  1 -1</clus>
<clus scale="   43.791">  1  3  2 -1</clus>
</clustering>
</event>
<event>
 6    0  0.7442036E+002  0.1619990E+03  0.7546771E-02  0.1186458E+00
         21   -1    0    0  503  501  0.00000000000E+00  0.00000000000E+00  0.30885968698E+03  0.30885968698E+03  0.00000000000E+00 0.  1.
         21   -1    0    0  504  502 -0.00000000000E+00 -0.00000000000E+00 -0.22667976377E+03  0.22667976377E+03  0.00000000000E+00 0. -1.
         21    1    1    2  503  505  0.73395718272E+02  0.53158186179E+01  0.75545514334E+01  0.73974729709E+02  0.00000000000E+00 0.  1.
         21    1    1    2  504  506 -0.19102702591E+03  0.50986538306E+02 -0.80594923387E+02  0.21350993746E+03  0.00000000000E+00 0. -1.
         21    1    1    2  505  502  0.49722181226E+02 -0.14984715892E+02 -0.19997846572E+02  0.55648458054E+02  0.00000000000E+00 0.  1.
         21    1    1    2  506  501  0.67909126412E+02 -0.41317641033E+02  0.17521814174E+03  0.19240632553E+03  0.00000000000E+00 0.  1.
<scales pt_clust_3="31.38532" pt_clust_4="157.63196" pt_clust_5="31.38532" pt_clust_6="79.49086"></scales>
<clustering>
<clus scale="   31.385">  3  5 -1 -1</clus>
<clus scale="   79.491">  1  6  2 -1</clus>
<clus scale="  157.632">  1  4  2 -1</clus>
<clus scale="   79.491">  1  3  2 -1</clus>
</clustering>
</event>
<event>
 6    0  0.7442036E+002  0.1030509E+03  0.7546771E-02  0.1274008E+00
         21   -1    0    0  505  501  0.00000000000E+00  0.00000000000E+00  0.16758455978E+03  0.16758455978E+03  0.00000000000E+00 0.  1.
         21   -1    0    0  503  502 -0.00000000000E+00 -0.00000000000E+00 -0.47829011070E+03  0.47829011070E+03  0.00000000000E+00 0.  1.
         21    1    1    2  503  506  0.43775438306E+02  0.41063391705E+02 -0.21310570838E+03  0.22139677974E+03  0.00000000000E+00 0.  1.
         21    1    1    2  504  501  0.15233106200E+02 -0.76251914404E+02 -0.12893610861E+03  0.15056866234E+03  0.00000000000E+00 0.  1.
         21    1    1    2  505  502 -0.22183909138E+02  0.81420610366E+02  0.13229677887E+03  0.15691997743E+03  0.00000000000E+00 0.  1.
         21    1    1    2  506  504 -0.36824635368E+02 -0.46232087667E+02 -0.10096051280E+03  0.11698925098E+03  0.00000000000E+00 0.  1.
<scales pt_clust_3="60.02076" pt_clust_4="49.82700" pt_clust_5="85.75097" pt_clust_6="49.82700"></scales>
<clustering>
<clus scale="   49.827">  4  6 -1 -1</clus>
<clus scale="   60.021">  2  3  1 -1</clus>
<clus scale="   85.751">  1  5  2 -1</clus>
<clus scale="   85.751">  1  3  2 -1</clus>
</clustering>
</event>
<event>
 6    0  0.7442036E+002  0.2847609E+03  0.7546771E-02  0.1093117E+00
         21   -1    0    0  506  501  0.00000000000E+00  0.00000000000E+00  0.40627526403E+03  0.40627526403E+03  0.00000000000E+00 0.  1.
         21   -1    0    0  504  502 -0.00000000000E+00 -0.00000000000E+00 -0.25210379507E+03  0.25210379507E+03  0.00000000000E+00 0.  1.
         21    1    1    2  503  505 -0.17856357231E+03  0.95808251166E+02  0.10819994718E+03  0.22972026231E+03  0.00000000000E+00 0.  1.
         21    1    1    2  504  501  0.25814112622E+03 -0.12995555998E+03 -0.39717355765E+02  0.29172376825E+03  0.00000000000E+00 0.  1.
         21    1    1    2  505  502 -0.66489528173E+02  0.17891700027E+01  0.34364986795E+02  0.74866620088E+02  0.00000000000E+00 0.  1.
         21    1    1    2  506  503 -0.13088025738E+02  0.32358138810E+02  0.51323890751E+02  0.62068408444E+02  0.00000000000E+00 0.  1.
<scales pt_clust_3="30.70375" pt_clust_4="279.67233" pt_clust_5="30.70375" pt_clust_6="34.90481"></scales>
<clustering>
<clus scale="   30.704">  3  5 -1 -1</clus>
<clus scale="   34.905">  1  6  2 -1</clus>
<clus scale="  279.672">  2  4  1 -1</clus>
<clus scale="   34.905">  1  3  2 -1</clus>
</clustering>
</event>
<event>
 6    0  0.7442036E+002  0.1268530E+03  0.7546771E-02  0.1232201E+00
         21   -1    0    0  505  501  0.00000000000E+00  0.00000000000E+00  0.32457894806E+03  0.32457894806E+03  0.00000000000E+00 0.  1.
         21   -1    0    0  501  502 -0.00000000000E+00 -0.00000000000E+00 -0.18552082799E+03  0.18552082799E+03  0.00000000000E+00 0. -1.
         21    1    1    2  503  504 -0.16018436652E+02 -0.88506854462E+02 -0.38771881411E+02  0.97945456187E+02  0.00000000000E+00 0. -1.
         21    1    1    2  504  502  0.68872701439E+02 -0.61241750121E+02 -0.52047867497E+02  0.10584413764E+03  0.00000000000E+00 0. -1.
         21    1    1    2  505  506 -0.47452451860E+02  0.62458654857E+01  0.10735306271E+03  0.11753904073E+03  0.00000000000E+00 0.  1.
         21    1    1    2  506  503 -0.54018129263E+01  0.14350273910E+03  0.12252480627E+03  0.18877114150E+03  0.00000000000E+00 0.  1.
<scales pt_clust_3="14000.00000" pt_clust_4="87.20681" pt_clust_5="47.86174" pt_clust_6="126.85304"></scales>
<clustering>
<clus scale="   47.862">  1  5  2 -1</clus>
<clus scale="   87.207">  2  4  1 -1</clus>
<clus scale="  126.853">  1  6  2 -1</clus>
<clus scale="   47.862">  1  3  2 -1</clus>
</clustering>
</event>
<event>
 6    0  0.7442036E+002  0.1773984E+03  0.7546771E-02  0.1170345E+00
         21   -1    0    0  506  501  0.00000000000E+00  0.00000000000E+00  0.13061863059E+03  0.13061863059E+03  0.00000000000E+00 0.  1.
         21   -1    0    0  504  502 -0.00000000000E+00 -0.00000000000E+00 -0.43319557487E+03  0.43319557487E+03  0.00000000000E+00 0. -1.
         21    1    1    2  503  502  0.70516544607E+02  0.43742191465E+02 -0.91837237154E+02  0.12377415120E+03  0.00000000000E+00 0.  1.
         21    1    1    2  504  501 -0.12446587477E+03 -0.13910885156E+03 -0.22691350431E+03  0.29382437782E+03  0.00000000000E+00 0. -1.
         21    1    1    2  505  503  0.34214585445E+02  0.63083846163E+02 -0.37166627013E+02  0.80818114724E+02  0.00000000000E+00 0.  1.
         21    1    1    2  506  505  0.19734744721E+02  0.32282813934E+02  0.53340424190E+02  0.65397561708E+02  0.00000000000E+00 0.  1.
<scales pt_clust_3="51.06306" pt_clust_4="169.21759" pt_clust_5="51.06306" pt_clust_6="37.83702"></scales>
<clustering>
<clus scale="   37.837">  1  6  2 -1</clus>
<clus scale="   51.063">  3  5 -1 -1</clus>
<clus scale="  169.218">  2  4  1 -1</clus>
<clus scale="   37.837">  1  3  2 -1</clus>
</clustering>
</event>
<event>
 6    0  0.7442036E+002  0.8336209E+02  0.7546771E-02  0.1319772E+00
         21   -1    0    0  505  501  0.00000000000E+00  0.00000000000E+00  0.36279893986E+03  0.36279893986E+03  0.00000000000E+00 0. -1.
         21   -1    0    0  503  502 -0.00000000000E+00 -0.00000000000E+00 -0.10899325347E+03  0.10899325347E+03  0.00000000000E+00 0. -1.
         21    1    1    2  503  501  0.29086508646E+01 -0.83351871178E+02 -0.12478285332E+00  0.83402699294E+02  0.00000000000E+00 0. -1.
         21    1    1    2  504  506 -0.36848036467E+02  0.39965911651E+02  0.21110564498E+03  0.21799230544E+03  0.00000000000E+00 0. -1.
         21    1    1    2  505  504 -0.15823203205E+02 -0.32472247750E+02  0.67342678462E+02  0.76418956915E+02  0.00000000000E+00 0. -1.
         21    1    1    2  506  502  0.49762588808E+02  0.75858207277E+02 -0.24517854202E+02  0.93978231686E+02  0.00000000000E+00 0. -1.
<scales pt_clust_3="83.36209" pt_clust_4="51.09326" pt_clust_5="36.12230" pt_clust_6="14000.00000"></scales>
<clustering>
<clus scale="   36.122">  1  5  2 -1</clus>
<clus scale="   51.093">  1  4  2 -1</clus>
<clus scale="   83.362">  1  3  2 -1</clus>
<clus scale="   36.122">  1  3  2 -1</clus>
</clustering>
</event>
<event>
 6    0  0.7442036E+002  0.9995821E+02  0.7546771E-02  0.1280384E+00
         21   -1    0    0  506  501  0.00000000000E+00  0.00000000000E+00  0.13712881524E+04  0.13712881524E+04  0.00000000000E+00 0.  1.
         21   -1    0    0  505  502 -0.00000000000E+00 -0.00000000000E+00 -0.39044492997E+02  0.39044492997E+02  0.00000000000E+00 0. -1.
         21    1    1    2  503  502  0.60287088930E+02  0.20724922806E+02  0.24032492648E+02  0.68129407893E+02  0.00000000000E+00 0. -1.
         21    1    1    2  504  501  0.33007842086E+02 -0.39256487818E+01  0.12726802005E+03  0.13153736079E+03  0.00000000000E+00 0.  1.
         21    1    1    2  505  504 -0.14681949495E+03 -0.60170979423E+02  0.46317865481E+03  0.48960287696E+03  0.00000000000E+00 0.  1.
         21    1    1    2  506  503  0.53524563932E+02  0.43371705400E+02  0.71776449191E+03  0.72106299976E+03  0.00000000000E+00 0.  1.
<scales pt_clust_3="64.86305" pt_clust_4="33.24046" pt_clust_5="99.95821" pt_clust_6="14000.00000"></scales>
<clustering>
<clus scale="   33.240">  1  4  2 -1</clus>
<clus scale="   64.863">  2  3  1 -1</clus>
<clus scale="   99.958">  2  5  1 -1</clus>
<clus scale="   33.240">  1  3  2 -1</clus>
</clustering>
</event>
<event>
 6    0  0.7442036E+002  0.9879097E+02  0.7546771E-02  0.1282859E+00
         21   -1    0    0  505  501  0.00000000000E+00  0.00000000000E+00  0.15224288641E+03  0.15224288641E+03  0.00000000000E+00 0. -1.
         21   -1    0    0  503  502 -0.00000000000E+00 -0.00000000000E+00 -0.36207687878E+03  0.36207687878E+03  0.00000000000E+00 0. -1.
         21    1    1    2  503  504 -0.45548650455E+02 -0.37654964586E+02 -0.22169990978E+03  0.22944155228E+03  0.00000000000E+00 0. -1.
         21    1    1    2  504  506 -0.50857156342E+02 -0.26199273854E+02 -0.60313248448E+02  0.83129659208E+02  0.00000000000E+00 0.  1.
         21    1    1    2  505  502  0.12738018429E+03  0.69713241809E+02  0.28657821766E+02  0.14800985839E+03  0.00000000000E+00 0. -1.
         21    1    1    2  506  501 -0.30974377493E+02 -0.58590033692E+01  0.43521344095E+02  0.53738695308E+02  0.00000000000E+00 0. -1.
<scales pt_clust_3="60.13203" pt_clust_4="14000.00000" pt_clust_5="98.79097" pt_clust_6="31.52364"></scales>
<clustering>
<clus scale="   31.524">  1  6  2 -1</clus>
<clus scale="   60.132">  2  3  1 -1</clus>
<clus scale="   98.791">  1  5  2 -1</clus>
<clus scale="   31.524">  1  3  2 -1</clus>
</clustering>
</event>
<event>
 6    0  0.7442036E+002  0.9835884E+02  0.7546771E-02  0.1283785E+00
         21   -1    0    0  503  501  0.00000000000E+00  0.00000000000E+00  0.50272870271E+03  0.50272870271E+03  0.00000000000E+00 0. -1.
         21   -1    0    0  505  502 -0.00000000000E+00 -0.00000000000E+00 -0.80557057721E+02  0.80557057721E+02  0.00000000000E+00 0. -1.
         21    1    1    2  503  502 -0.96878211225E+02  0.28145310533E+01 -0.38767145893E+01  0.96996589173E+02  0.00000000000E+00 0. -1.
         21    1    1    2  504  506  0.10640761154E+03 -0.27737438157E+02  0.18306907245E+03  0.21355615317E+03  0.00000000000E+00 0. -1.
         21    1    1    2  505  504  0.31925940081E+01 -0.39544019198E+02  0.29692926951E+02  0.49553930437E+02  0.00000000000E+00 0. -1.
         21    1    1    2  506  501 -0.12721994323E+02  0.64466926303E+02  0.21328636018E+03  0.22317908765E+03  0.00000000000E+00 0. -1.
<scales pt_clust_3="98.35884" pt_clust_4="14000.00000" pt_clust_5="39.67269" pt_clust_6="62.95065"></scales>
<clustering>
<clus scale="   39.673">  2  5  1 -1</clus>
<clus scale="   62.951">  1  6  2 -1</clus>
<clus scale="   98.359">  2  3  1 -1</clus>
<clus scale="   62.951">  1  3  2 -1</clus>
</clustering>
</event>
<event>
 6    0  0.7442036E+002  0.1654313E+03  0.7546771E-02  0.1182698E+00
         21   -1    0    0  505  501  0.00000000000E+00  0.00000000000E+00  0.21476026250E+03  0.21476026250E+03  0.00000000000E+00 0. -1.
         21   -1    0    0  503  502 -0.00000000000E+00 -0.00000000000E+00 -0.40536899240E+03  0.40536899240E+03  0.00000000000E+00 0. -1.
         21    1    1    2  503  504  0.14912962071E+03  0.14274429915E+02 -0.32684046683E+03  0.35953872376E+03  0.00000000000E+00 0. -1.
         21    1    1    2  504  506 -0.51271477546E+02 -0.43369885810E+01  0.75608055964E+01  0.52007111638E+02  0.00000000000E+00 0. -1.
         21    1    1    2  505  502 -0.44618023491E+01  0.46117599785E+02  0.98099917597E+01  0.47360074202E+02  0.00000000000E+00 0. -1.
         21    1    1    2  506  501 -0.93396340817E+02 -0.56055041119E+02  0.11886093957E+03  0.16122334530E+03  0.00000000000E+00 0. -1.
<scales pt_clust_3="149.86232" pt_clust_4="50.79231" pt_clust_5="46.33293" pt_clust_6="50.79231"></scales>
<clustering>
<clus scale="   46.333">  1  5  2 -1</clus>
<clus scale="   50.792">  4  6 -1 -1</clus>
<clus scale="  149.862">  2  3  1 -1</clus>
<clus scale="   46.333">  1  3  2 -1</clus>
</clustering>
</event>
<event>
 6    0  0.7442036E+002  0.9740171E+02  0.7546771E-02  0.1285857E+00
         21   -1    0    0  504  501  0.00000000000E+00  0.00000000000E+00  0.55261462916E+03  0.55261462916E+03  0.00000000000E+00 0.  1.
         21   -1    0    0  506  502 -0.00000000000E+00 -0.00000000000E+00 -0.25199054915E+03  0.25199054915E+03  0.00000000000E+00 0.  1.
         21    1    1    2  503  502  0.72395564503E+02 -0.87289273063E+01 -0.18637734565E+03  0.20013452202E+03  0.00000000000E+00 0.  1.
         21    1    1    2  504  505 -0.73474727734E+02  0.68764296703E+02  0.47936704577E+03  0.48981611722E+03  0.00000000000E+00 0.  1.
         21    1    1    2  505  503  0.37222076777E+02 -0.67364297653E+02 -0.14734863794E+00  0.76963974102E+02  0.00000000000E+00 0. -1.
         21    1    1    2  506  501 -0.36142913546E+02  0.73289282568E+01  0.77817285264E+01  0.37690564971E+02  0.00000000000E+00 0.  1.
<scales pt_clust_3="43.01642" pt_clust_4="97.40171" pt_clust_5="14000.00000" pt_clust_6="36.87849"></scales>
<clustering>
<clus scale="   36.878">  2  6  1 -1</clus>
<clus scale="   43.016">  2  3  1 -1</clus>
<clus scale="   97.402">  1  4  2 -1</clus>
<clus scale="   97.402">  1  3  2 -1</clus>
</clustering>
</event>
<event>
 6    0  0.7442036E+002  0.1116388E+03  0.7546771E-02  0.1257565E+00
         21   -1    0    0  503  501  0.00000000000E+00  0.00000000000E+00  0.78918386202E+02  0.78918386202E+02  0.00000000000E+00 0.  1.
         21   -1    0    0  504  502 -0.00000000000E+00 -0.00000000000E+00 -0.68544066900E+03  0.68544066900E+03  0.00000000000E+00 0.  1.
         21    1    1    2  503  502  0.95309957733E+02  0.10813148026E+03 -0.74544451820E+02  0.16227532272E+03  0.00000000000E+00 0.  1.
         21    1    1    2  504  506 -0.41331616775E+02 -0.24655918278E+02 -0.28189625288E+03  0.28597502381E+03  0.00000000000E+00 0.  1.
         21    1    1    2  505  501 -0.16920191786E+02 -0.96257580500E+02 -0.45500672273E+02  0.10780596399E+03  0.00000000000E+00 0.  1.
         21    1    1    2  506  505 -0.37058149172E+02  0.12782018513E+02 -0.20458090582E+03  0.20830274469E+03  0.00000000000E+00 0.  1.
<scales pt_clust_3="111.63884" pt_clust_4="87.46706" pt_clust_5="14000.00000" pt_clust_6="33.33841"></scales>
<clustering>
<clus scale="   33.338">  4  6 -1 -1</clus>
<clus scale="   87.467">  2  4  1 -1</clus>
<clus scale="  111.639">  2  3  1 -1</clus>
<clus scale="  111.639">  1  3  2 -1</clus>
</clustering>
</event>
<event>
 6    0  0.7442036E+002  0.1432917E+03  0.7546771E-02  0.1208967E+00
         21   -1    0    0  506  501  0.00000000000E+00  0.00000000000E+00  0.78986765806E+03  0.78986765806E+03  0.00000000000E+00 0. -1.
         21   -1    0    0  503  502 -0.00000000000E+00 -0.00000000000E+00 -0.12809282583E+04  0.12809282583E+04  0.00000000000E+00 0. -1.
         21    1    1    2  503  505  0.47988545831E+00  0.73082045402E+02 -0.97873368020E+03  0.98145852302E+03  0.00000000000E+00 0. -1.
         21    1    1    2  504  501 -0.25967294981E+02 -0.22386081545E+02  0.39289982267E+02  0.52145371435E+02  0.00000000000E+00 0. -1.
         21    1    1    2  505  504  0.12939836617E+03 -0.75201936787E+01 -0.27557793304E+03  0.30453848305E+03  0.00000000000E+00 0. -1.
         21    1    1    2  506  502 -0.10391095665E+03 -0.43175770178E+02  0.72396103071E+03  0.73265353888E+03  0.00000000000E+00 0. -1.
<scales pt_clust_3="73.04234" pt_clust_4="34.28465" pt_clust_5="143.29175" pt_clust_6="14000.00000"></scales>
<clustering>
<clus scale="   34.285">  1  4  2 -1</clus>
<clus scale="   73.042">  2  3  1 -1</clus>
<clus scale="  143.292">  2  5  1 -1</clus>
<clus scale="   34.285">  1  3  2 -1</clus>
</clustering>
</event>
<event>
 6    0  0.7442036E+002  0.9815884E+02  0.7546771E-02  0.1284216E+00
         21   -1    0    0  504  501  0.00000000000E+00  0.00000000000E+00  0.78991933875E+03  0.78991933875E+03  0.00000000000E+00 0.  1.
         21   -1    0    0  505  502 -0.00000000000E+00 -0.00000000000E+00 -0.22654893492E+04  0.22654893492E+04  0.00000000000E+00 0.  1.
         21    1    1    2  503  502  0.39942022811E+02  0.22608682440E+02 -0.32893003449E+03  0.33211667422E+03  0.00000000000E+00 0. -1.
         21    1    1    2  504  506  0.73621788476E+02  0.65825616196E+02  0.77183919024E+03  0.77813168235E+03  0.00000000000E+00 0.  1.
         21    1    1    2  505  501 -0.43133237405E+02 -0.54490323445E+02 -0.18105779551E+04  0.18119112017E+04  0.00000000000E+00 0.  1.
         21    1    1    2  506  503 -0.70430573881E+02 -0.33943975190E+02 -0.10790121113E+03  0.13324912965E+03  0.00000000000E+00 0. -1.
<scales pt_clust_3="45.89682" pt_clust_4="14000.00000" pt_clust_5="33.81879" pt_clust_6="98.15884"></scales>
<clustering>
<clus scale="   45.897">  2  3  1 -1</clus>
<clus scale="   33.819">  2  5  1 -1</clus>
<clus scale="   98.159">  2  6  1 -1</clus>
<clus scale="   98.159">  1  3  2 -1</clus>
</clustering>
</event>
<event>
 6    0  0.7442036E+002  0.1052031E+03  0.7546771E-02  0.1269720E+00
         21   -1    0    0  503  501  0.00000000000E+00  0.00000000000E+00  0.17691896060E+03  0.17691896060E+03  0.00000000000E+00 0. -1.
         21   -1    0    0  505  502 -0.00000000000E+00 -0.00000000000E+00 -0.41554684018E+03  0.41554684018E+03  0.00000000000E+00 0. -1.
         21    1    1    2  503  506  0.80843189508E+02  0.67608633245E+01  0.12905897197E+02  0.82145558280E+02  0.00000000000E+00 0. -1.
         21    1    1    2  504  502 -0.17912917445E+02 -0.41280520137E+02 -0.21765726792E+03  0.22226029837E+03  0.00000000000E+00 0. -1.
         21    1    1    2  505  501 -0.70752199238E+02  0.88905008012E+02  0.94907119393E+02  0.14804504537E+03  0.00000000000E+00 0. -1.
         21    1    1    2  506  504  0.78219271749E+01 -0.54385351199E+02 -0.12878362825E+03  0.14001489876E+03  0.00000000000E+00 0. -1.
<scales pt_clust_3="81.12540" pt_clust_4="40.14935" pt_clust_5="95.39102" pt_clust_6="40.14935"></scales>
<clustering>
<clus scale="   40.149">  4  6 -1 -1</clus>
<clus scale="   81.125">  1  3  2 -1</clus>
<clus scale="   95.391">  1  5  2 -1</clus>
<clus scale="   81.125">  1  3  2 -1</clus>
</clustering>
</event>
<event>
 6    0  0.7442036E+002  0.1093192E+03  0.7546771E-02  0.1261836E+00
         21   -1    0    0  502  501  0.00000000000E+00  0.00000000000E+00  0.34292265808E+03  0.34292265808E+03  0.00000000000E+00 0. -1.
         21   -1    0    0  503  502 -0.00000000000E+00 -0.00000000000E+00 -0.80652497385E+03  0.80652497385E+03  0.00000000000E+00 0. -1.
         21    1    1    2  503  505 -0.10509132625E+03 -0.59506654621E+02 -0.67643599797E+03  0.68713236581E+03  0.00000000000E+00 0. -1.
         21    1    1    2  504  501  0.16594751552E+02  0.31095259091E+02  0.24906417519E+03  0.25154574987E+03  0.00000000000E+00 0. -1.
         21    1    1    2  505  506  0.87160819248E+02 -0.77561804545E+01 -0.10279854646E+03  0.13499891815E+03  0.00000000000E+00 0. -1.
         21    1    1    2  506  504  0.13357554505E+01  0.36167575985E+02  0.66568053462E+02  0.75770598103E+02  0.00000000000E+00 0. -1.
<scales pt_clust_3="14000.00000" pt_clust_4="35.24629" pt_clust_5="109.31923" pt_clust_6="61.69180"></scales>
<clustering>
<clus scale="   35.246">  1  4  2 -1</clus>
<clus scale="   61.692">  1  6  2 -1</clus>
<clus scale="  109.319">  1  5  2 -1</clus>
<clus scale="   35.246">  1  3  2 -1</clus>
</clustering>
</event>
<event>
 6    0  0.7442036E+002  0.8761434E+02  0.7546771E-02  0.1308734E+00
         21   -1    0    0  503  501  0.00000000000E+00  0.00000000000E+00  0.26401587521E+02  0.26401587521E+02  0.00000000000E+00 0. -1.
         21   -1    0    0  505  502 -0.00000000000E+00 -0.00000000000E+00 -0.12885216636E+04  0.12885216636E+04  0.00000000000E+00 0.  1.
         21    1    1    2  503  504  0.43322226598E+02 -0.19200386339E+01 -0.12459220369E+03  0.13192315599E+03  0.00000000000E+00 0. -1.
         21    1    1    2  504  502 -0.36215451975E+02 -0.12178926204E+02 -0.13770480846E+03  0.14290731080E+03  0.00000000000E+00 0.  1.
         21    1    1    2  505  506  0.11220186091E+02  0.97390053308E+02 -0.91350367818E+03  0.91874897829E+03  0.00000000000E+00 0.  1.
         21    1    1    2  506  501 -0.18326960714E+02 -0.83291088470E+02 -0.86319385705E+02  0.12134380601E+03  0.00000000000E+00 0. -1.
<scales pt_clust_3="39.41365" pt_clust_4="38.20844" pt_clust_5="14000.00000" pt_clust_6="87.61434"></scales>
<clustering>
<clus scale="   38.208">  2  4  1 -1</clus>
<clus scale="   39.414">  1  3  2 -1</clus>
<clus scale="   87.614">  1  6  2 -1</clus>
<clus scale="   39.414">  1  3  2 -1</clus>
</clustering>
</event>
<event>
 6    0  0.7442036E+002  0.1525725E+03  0.7546771E-02  0.1197347E+00
         21   -1    0    0  506  501  0.00000000000E+00  0.00000000000E+00  0.66099376863E+02  0.66099376863E+02  0.00000000000E+00 0.  1.
         21   -1    0    0  505  502 -0.00000000000E+00 -0.00000000000E+00 -0.10477319142E+04  0.10477319142E+04  0.00000000000E+00 0.  1.
         21    1    1    2  503  504  0.13184036894E+03 -0.34898002200E+02 -0.13995725458E+03  0.19541695563E+03  0.00000000000E+00 0.  1.
         21    1    1    2  504  501 -0.12484414145E+01 -0.61539231822E+02 -0.14939147729E+02  0.63338880587E+02  0.00000000000E+00 0.  1.
         21    1    1    2  505  503  0.23053351556E+02  0.39647837487E+02 -0.98641404577E+02  0.10878205152E+03  0.00000000000E+00 0. -1.
         21    1    1    2  506  502 -0.15364527908E+03  0.56789396535E+02 -0.72809473049E+03  0.74629340337E+03  0.00000000000E+00 0.  1.
<scales pt_clust_3="14000.00000" pt_clust_4="59.89615" pt_clust_5="45.86293" pt_clust_6="152.57250"></scales>
<clustering>
<clus scale="   45.863">  2  5  1 -1</clus>
<clus scale="   59.896">  1  4  2 -1</clus>
<clus scale="  152.572">  2  6  1 -1</clus>
<clus scale="   59.896">  1  3  2 -1</clus>
</clustering>
</event>
<event>
 6    0  0.7442036E+002  0.5886280E+02  0.7546771E-02  0.1402667E+00
         21   -1    0    0  505  501  0.00000000000E+00  0.00000000000E+00  0.13067065926E+04  0.13067065926E+04  0.00000000000E+00 0.  1.
         21   -1    0    0  504  502 -0.00000000000E+00 -0.00000000000E+00 -0.62998733166E+02  0.62998733166E+02  0.00000000000E+00 0. -1.
         21    1    1    2  503  501  0.37120816890E+02  0.73495744836E+02  0.85071725555E+03  0.85469259296E+03  0.00000000000E+00 0.  1.
         21    1    1    2  504  503  0.49460893523E+02 -0.66937832568E+02  0.37003269316E+02  0.91084001653E+02  0.00000000000E+00 0. -1.
         21    1    1    2  505  506 -0.45844589008E+02 -0.18020106884E+02  0.37450860374E+03  0.37773422517E+03  0.00000000000E+00 0.  1.
         21    1    1    2  506  502 -0.40737121405E+02  0.11462194615E+02 -0.18521269217E+02  0.46194505942E+02  0.00000000000E+00 0. -1.
<scales pt_clust_3="58.86280" pt_clust_4="14000.00000" pt_clust_5="51.05166" pt_clust_6="42.31897"></scales>
<clustering>
<clus scale="   42.319">  2  6  1 -1</clus>
<clus scale="   51.052">  1  5  2 -1</clus>
<clus scale="   58.863">  1  3  2 -1</clus>
<clus scale="   51.052">  1  3  2 -1</clus>
</clustering>
</event>
<event>
 6    0  0.7442036E+002  0.8078997E+02  0.7546771E-02  0.1326824E+00
         21   -1    0    0  504  501  0.00000000000E+00  0.00000000000E+00  0.21503428855E+04  0.21503428855E+04  0.00000000000E+00 0.  1.
         21   -1    0    0  503  502 -0.00000000000E+00 -0.00000000000E+00 -0.11143859990E+02  0.11143859990E+02  0.00000000000E+00 0.  1.
         21    1    1    2  503  506  0.44523946441E+02 -0.78171544950E+02  0.48169644211E+03  0.49002513669E+03  0.00000000000E+00 0.  1.
         21    1    1    2  504  505 -0.52231277090E+02 -0.36823834437E+02  0.63913389338E+03  0.64232097486E+03  0.00000000000E+00 0.  1.
         21    1    1    2  505  502 -0.37941725909E+02  0.57340719302E+02  0.64071453344E+03  0.64439323865E+03  0.00000000000E+00 0.  1.
         21    1    1    2  506  501  0.45649056558E+02  0.57654660085E+02  0.37765415654E+03  0.38474739524E+03  0.00000000000E+00 0.  1.
<scales pt_clust_3="80.78997" pt_clust_4="63.90697" pt_clust_5="14000.00000" pt_clust_6="58.24048"></scales>
<clustering>
<clus scale="   63.907">  1  4  2 -1</clus>
<clus scale="   58.240">  1  6  2 -1</clus>
<clus scale="   80.790">  2  3  1 -1</clus>
<clus scale="   63.907">  1  3  2 -1</clus>
</clustering>
</event>
<event>
 6    0  0.7442036E+002  0.2180304E+03  0.7546771E-02  0.1135360E+00
         21   -1    0    0  504  501  0.00000000000E+00  0.00000000000E+00  0.89614408180E+02  0.89614408180E+02  0.00000000000E+00 0. -1.
         21   -1    0    0  505  502 -0.00000000000E+00 -0.00000000000E+00 -0.93226554057E+03  0.93226554057E+03  0.00000000000E+00 0. -1.
         21    1    1    2  503  501 -0.86258630119E+02  0.10379003745E+02 -0.38250994705E+03  0.39225264126E+03  0.00000000000E+00 0. -1.
         21    1    1    2  504  506  0.68546849047E+02 -0.82925410321E+02 -0.33476111723E+02  0.11267628077E+03  0.00000000000E+00 0. -1.
         21    1    1    2  505  503 -0.92298032958E+02  0.75689666191E+02 -0.37839627462E+03  0.39677650271E+03  0.00000000000E+00 0. -1.
         21    1    1    2  506  502  0.11000981403E+03 -0.31432596158E+01 -0.48268798998E+02  0.12017452401E+03  0.00000000000E+00 0. -1.
<scales pt_clust_3="55.93436" pt_clust_4="89.78957" pt_clust_5="208.77910" pt_clust_6="89.78957"></scales>
<clustering>
<clus scale="   55.934">  3  5 -1 -1</clus>
<clus scale="   89.790">  4  6 -1 -1</clus>
<clus scale="  208.779">  2  3  1 -1</clus>
<clus scale="  218.030">  1  3  2 -1</clus>
</clustering>
</event>
<event>
 6    0  0.7442036E+002  0.1191043E+03  0.7546771E-02  0.1244582E+00
         21   -1    0    0  504  501  0.00000000000E+00  0.00000000000E+00  0.82493659254E+03  0.82493659254E+03  0.00000000000E+00 0.  1.
         21   -1    0    0  503  502 -0.00000000000E+00 -0.00000000000E+00 -0.21565515089E+02  0.21565515089E+02  0.00000000000E+00 0.  1.
         21    1    1    2  503  505  0.16773125333E+02 -0.29398926217E+02  0.98520546626E+02  0.10417261014E+03  0.00000000000E+00 0. -1.
         21    1    1    2  504  502 -0.92667844112E+02 -0.57253988419E+02  0.35330536290E+03  0.36971614514E+03  0.00000000000E+00 0.  1.
         21    1    1    2  505  506  0.47227189724E+02  0.22151400118E+02  0.17024282543E+03  0.17805536102E+03  0.00000000000E+00 0.  1.
         21    1    1    2  506  501  0.28667529056E+02  0.64501514518E+02  0.18130234249E+03  0.19455799133E+03  0.00000000000E+00 0.  1.
<scales pt_clust_3="33.84722" pt_clust_4="110.44392" pt_clust_5="40.57868" pt_clust_6="40.57868"></scales>
<clustering>
<clus scale="   33.847">  2  3  1 -1</clus>
<clus scale="   40.579">  5  6 -1 -1</clus>
<clus scale="  110.444">  1  4  2 -1</clus>
<clus scale="  110.444">  1  3  2 -1</clus>
</clustering>
</event>
<event>
 6    0  0.7442036E+002  0.9431206E+02  0.7546771E-02  0.1292733E+00
         21   -1    0    0  504  501  0.00000000000E+00  0.00000000000E+00  0.49241553269E+03  0.49241553269E+03  0.00000000000E+00 0.  1.
         21   -1    0    0  506  502 -0.00000000000E+00 -0.00000000000E+00 -0.85038110432E+02  0.85038110432E+02  0.00000000000E+00 0.  1.
         21    1    1    2  503  505  0.36787539714E+02  0.89528444878E+02  0.56458538712E+01  0.96956388064E+02  0.00000000000E+00 0.  1.
         21    1    1    2  504  502  0.49243630497E+02 -0.10480323484E+03  0.99487595400E+02  0.15266445171E+03  0.00000000000E+00 0.  1.
         21    1    1    2  505  501 -0.50349187039E+02  0.17270028525E+02  0.28154705011E+03  0.28653452836E+03  0.00000000000E+00 0.  1.
         21    1    1    2  506  503 -0.35681983173E+02 -0.19952385649E+01  0.20696922879E+02  0.41298274985E+02  0.00000000000E+00 0.  1.
<scales pt_clust_3="14000.00000" pt_clust_4="94.31206" pt_clust_5="54.33514" pt_clust_6="35.73772"></scales>
<clustering>
<clus scale="   35.738">  2  6  1 -1</clus>
<clus scale="   54.335">  1  5  2 -1</clus>
<clus scale="   94.312">  1  4  2 -1</clus>
<clus scale="   54.335">  1  3  2 -1</clus>
</clustering>
</event>
<event>
 6    0  0.7442036E+002  0.8821100E+02  0.7546771E-02  0.1307243E+00
         21   -1    0    0  506  501  0.00000000000E+00  0.00000000000E+00  0.93138282082E+03  0.93138282082E+03  0.00000000000E+00 0.  1.
         21   -1    0    0  504  502 -0.00000000000E+00 -0.00000000000E+00 -0.27174856281E+02  0.27174856281E+02  0.00000000000E+00 0.  1.
         21    1    1    2  503  505  0.30506895900E+02  0.58227974763E+02  0.20368741014E+03  0.21403207422E+03  0.00000000000E+00 0.  1.
         21    1    1    2  504  503 -0.36086875260E+02  0.46378163138E+02  0.15728609961E+03  0.16790507352E+03  0.00000000000E+00 0. -1.
         21    1    1    2  505  501  0.70981561091E+02 -0.67982686662E+01  0.26730702957E+03  0.27665438101E+03  0.00000000000E+00 0.  1.
         21    1    1    2  506  502 -0.65401581731E+02 -0.97807869235E+02  0.27592742521E+03  0.29996614836E+03  0.00000000000E+00 0.  1.
<scales pt_clust_3="88.21100" pt_clust_4="58.76391" pt_clust_5="63.34470" pt_clust_6="14000.00000"></scales>
<clustering>
<clus scale="   58.764">  2  4  1 -1</clus>
<clus scale="   63.345">  1  5  2 -1</clus>
<clus scale="   88.211">  1  3  2 -1</clus>
<clus scale="   63.345">  1  3  2 -1</clus>
</clustering>
</event>
<event>
 6    0  0.7442036E+002  0.2161915E+03  0.7546771E-02  0.1136755E+00
         21   -1    0    0  502  501  0.00000000000E+00  0.00000000000E+00  0.21232296763E+03  0.21232296763E+03  0.00000000000E+00 0. -1.
         21   -1    0    0  506  502 -0.00000000000E+00 -0.00000000000E+00 -0.42885143010E+03  0.42885143010E+03  0.00000000000E+00 0. -1.
         21    1    1    2  503  505  0.68676588662E+02  0.12716087888E+02 -0.20172562480E+02  0.72698727626E+02  0.00000000000E+00 0. -1.
         21    1    1    2  504  503 -0.24816342572E+03  0.49668248994E+02 -0.17655334248E+02  0.25370008208E+03  0.00000000000E+00 0. -1.
         21    1    1    2  505  501  0.11145017294E+03 -0.25209527374E+02  0.60405588138E+01  0.11442530170E+03  0.00000000000E+00 0. -1.
         21    1    1    2  506  504  0.68036664114E+02 -0.37174809508E+02 -0.18474112455E+03  0.20035028632E+03  0.00000000000E+00 0. -1.
<scales pt_clust_3="36.78666" pt_clust_4="211.00899" pt_clust_5="36.78666" pt_clust_6="77.53034"></scales>
<clustering>
<clus scale="   36.787">  3  5 -1 -1</clus>
<clus scale="   77.530">  2  6  1 -1</clus>
<clus scale="  211.009">  2  4  1 -1</clus>
<clus scale="  216.191">  1  3  2 -1</clus>
</clustering>
</event>
<event>
 6    0  0.7442036E+002  0.8900020E+02  0.7546771E-02  0.1305291E+00
         21   -1    0    0  505  501  0.00000000000E+00  0.00000000000E+00  0.26488010222E+03  0.26488010222E+03  0.00000000000E+00 0. -1.
         21   -1    0    0  506  502 -0.00000000000E+00 -0.00000000000E+00 -0.81396284715E+03  0.81396284715E+03  0.00000000000E+00 0. -1.
         21    1    1    2  503  501  0.90951329450E+02  0.63287217590E+01  0.22749016427E+03  0.24507952155E+03  0.00000000000E+00 0. -1.
         21    1    1    2  504  503 -0.70509679816E+02  0.54280859569E+02 -0.59496331055E+02  0.10704130078E+03  0.00000000000E+00 0.  1.
         21    1    1    2  505  502  0.31500949635E+02  0.38720255982E+01 -0.12909679315E+03  0.13294090571E+03  0.00000000000E+00 0.  1.
         21    1    1    2  506  504 -0.51942599269E+02 -0.64481606926E+02 -0.58797978499E+03  0.59378122133E+03  0.00000000000E+00 0. -1.
<scales pt_clust_3="89.00020" pt_clust_4="14000.00000" pt_clust_5="31.73803" pt_clust_6="65.92851"></scales>
<clustering>
<clus scale="   31.738">  2  5  1 -1</clus>
<clus scale="   65.929">  2  6  1 -1</clus>
<clus scale="   89.000">  1  3  2 -1</clus>
<clus scale="   89.000">  1  3  2 -1</clus>
</clustering>
</event>
<event>
 6    0  0.7442036E+002  0.8502165E+02  0.7546771E-02  0.1315376E+00
         21   -1    0    0  504  501  0.00000000000E+00  0.00000000000E+00  0.77221105074E+03  0.77221105074E+03  0.00000000000E+00 0. -1.
         21   -1    0    0  505  502 -0.00000000000E+00 -0.00000000000E+00 -0.21490598073E+03  0.21490598073E+03  0.00000000000E+00 0. -1.
         21    1    1    2  503  501 -0.81947550107E+02  0.91584624584E+01  0.65115808805E+03  0.65635823605E+03  0.00000000000E+00 0. -1.
         21    1    1    2  504  506  0.13738420068E+03 -0.40261023225E+02  0.33063359966E+02  0.14693044055E+03  0.00000000000E+00 0. -1.
         21    1    1    2  505  503 -0.33788679111E+02  0.59257832848E+01  0.15463108548E+02  0.37628413062E+02  0.00000000000E+00 0. -1.
         21    1    1    2  506  502 -0.21647971463E+02  0.25176777481E+02 -0.14237948655E+03  0.14619994181E+03  0.00000000000E+00 0. -1.
<scales pt_clust_3="85.02165" pt_clust_4="14000.00000" pt_clust_5="38.47553" pt_clust_6="33.20399"></scales>
<clustering>
<clus scale="   33.204">  2  6  1 -1</clus>
<clus scale="   38.476">  2  5  1 -1</clus>
<clus scale="   85.022">  1  3  2 -1</clus>
<clus scale="   85.022">  1  3  2 -1</clus>
</clustering>
</event>
<event>
 6    0  0.7442036E+002  0.1924463E+03  0.7546771E-02  0.1156273E+00
         21   -1    0    0  503  501  0.00000000000E+00  0.00000000000E+00  0.12495937946E+03  0.12495937946E+03  0.00000000000E+00 0. -1.
         21   -1    0    0  504  502 -0.00000000000E+00 -0.00000000000E+00 -0.22845842268E+04  0.22845842268E+04  0.00000000000E+00 0.  1.
         21    1    1    2  503  506 -0.26779277524E+01 -0.52785087726E+02 -0.43108884833E+02  0.68204198807E+02  0.00000000000E+00 0. -1.
         21    1    1    2  504  505 -0.17350268627E+03  0.79388029408E+02 -0.10333228207E+04  0.10507909845E+04  0.00000000000E+00 0.  1.
         21    1    1    2  505  501  0.89525500860E+02  0.18604092223E+03 -0.25280793477E+02  0.20800278500E+03  0.00000000000E+00 0. -1.
         21    1    1    2  506  502  0.86655113163E+02 -0.21264386391E+03 -0.10579123483E+04  0.10825456379E+04  0.00000000000E+00 0.  1.
<scales pt_clust_3="52.85297" pt_clust_4="14000.00000" pt_clust_5="167.68748" pt_clust_6="192.44627"></scales>
<clustering>
<clus scale="   52.853">  1  3  2 -1</clus>
<clus scale="  167.687">  1  5  2 -1</clus>
<clus scale="  192.446">  1  6  2 -1</clus>
<clus scale="   52.853">  1  3  2 -1</clus>
</clustering>
</event>
<event>
 6    0  0.7442036E+002  0.9407467E+02  0.7546771E-02  0.1293274E+00
         21   -1    0    0  502  501  0.00000000000E+00  0.00000000000E+00  0.50090049293E+03  0.50090049293E+03  0.00000000000E+00 0.  1.
         21   -1    0    0  504  502 -0.00000000000E+00 -0.00000000000E+00 -0.24583632214E+03  0.24583632214E+03  0.00000000000E+00 0.  1.
         21    1    1    2  503  506  0.80720159966E+02 -0.76147195093E+02  0.23890682873E+03  0.26342097935E+03  0.00000000000E+00 0.  1.
         21    1    1    2  504  505 -0.36621518805E+02  0.53638812643E+01 -0.19873337544E+03  0.20215059084E+03  0.00000000000E+00 0.  1.
         21    1    1    2  505  503 -0.35627033725E+02 -0.21461432594E+02 -0.56370809291E+01  0.41972077653E+02  0.00000000000E+00 0.  1.
         21    1    1    2  506  501 -0.84716074359E+01  0.92244746424E+02  0.22052779842E+03  0.23919316724E+03  0.00000000000E+00 0.  1.
<scales pt_clust_3="14000.00000" pt_clust_4="37.01225" pt_clust_5="57.91572" pt_clust_6="94.07467"></scales>
<clustering>
<clus scale="   37.012">  2  4  1 -1</clus>
<clus scale="   57.916">  2  5  1 -1</clus>
<clus scale="   94.075">  1  6  2 -1</clus>
<clus scale="   94.075">  1  3  2 -1</clus>
</clustering>
</event>
<event>
 6    0  0.7442036E+002  0.1357962E+03  0.7546771E-02  0.1219100E+00
         21   -1    0    0  506  501  0.00000000000E+00  0.00000000000E+00  0.38857441145E+02  0.38857441145E+02  0.00000000000E+00 0. -1.
         21   -1    0    0  503  502 -0.00000000000E+00 -0.00000000000E+00 -0.10478790173E+04  0.10478790173E+04  0.00000000000E+00 0. -1.
         21    1    1    2  503  504 -0.45140837502E+02  0.25224406796E+02 -0.13352724638E+03  0.14319040273E+03  0.00000000000E+00 0. -1.
         21    1    1    2  504  505 -0.44960954385E+02  0.39556176199E+02 -0.38117609581E+03  0.38585151873E+03  0.00000000000E+00 0. -1.
         21    1    1    2  505  501  0.12717278581E+03 -0.75761741800E+02 -0.49735050162E+03  0.51891259421E+03  0.00000000000E+00 0. -1.
         21    1    1    2  506  502 -0.37070993922E+02  0.10981158806E+02  0.30322676349E+01  0.38781942784E+02  0.00000000000E+00 0. -1.
<scales pt_clust_3="50.44556" pt_clust_4="50.44556" pt_clust_5="125.65682" pt_clust_6="38.66322"></scales>
<clustering>
<clus scale="   38.663">  1  6  2 -1</clus>
<clus scale="   50.446">  3  4 -1 -1</clus>
<clus scale="  125.657">  1  5  2 -1</clus>
<clus scale="   38.663">  1  3  2 -1</clus>
</clustering>
</event>
<event>
 6    0  0.7442036E+002  0.1767757E+03  0.7546771E-02  0.1170960E+00
         21   -1    0    0  506  501  0.00000000000E+00  0.00000000000E+00  0.34320433737E+03  0.34320433737E+03  0.00000000000E+00 0. -1.
         21   -1    0    0  505  502 -0.00000000000E+00 -0.00000000000E+00 -0.53043644739E+03  0.53043644739E+03  0.00000000000E+00 0. -1.
         21    1    1    2  503  501  0.58429193373E+02  0.33457355160E+01  0.18005065888E+03  0.18932354409E+03  0.00000000000E+00 0. -1.
         21    1    1    2  504  502 -0.15948518165E+03 -0.59707154723E+02 -0.25119682310E+03  0.30348033120E+03  0.00000000000E+00 0. -1.
         21    1    1    2  505  503  0.13255536922E+03  0.18513193855E+03 -0.51834896582E+02  0.23352005713E+03  0.00000000000E+00 0. -1.
         21    1    1    2  506  504 -0.31499380946E+02 -0.12877051934E+03 -0.64251049217E+02  0.14731685232E+03  0.00000000000E+00 0. -1.
<scales pt_clust_3="58.52491" pt_clust_4="176.77574" pt_clust_5="14000.00000" pt_clust_6="128.91463"></scales>
<clustering>
<clus scale="   58.525">  1  3  2 -1</clus>
<clus scale="  128.915">  1  6  2 -1</clus>
<clus scale="  176.776">  2  4  1 -1</clus>
<clus scale="   58.525">  1  3  2 -1</clus>
</clustering>
</event>
<event>
 6    0  0.7442036E+002  0.8810594E+02  0.7546771E-02  0.1307504E+00
         21   -1    0    0  504  501  0.00000000000E+00  0.00000000000E+00  0.23741529503E+03  0.23741529503E+03  0.00000000000E+00 0.  1.
         21   -1    0    0  505  502 -0.00000000000E+00 -0.00000000000E+00 -0.24936543314E+03  0.24936543314E+03  0.00000000000E+00 0. -1.
         21    1    1    2  503  502 -0.80472086017E+02  0.14823532670E+00 -0.11208813605E+03  0.13798379921E+03  0.00000000000E+00 0. -1.
         21    1    1    2  504  506 -0.45632891713E+01  0.47671408105E+02  0.49112641771E+02  0.68596197712E+02  0.00000000000E+00 0. -1.
         21    1    1    2  505  501  0.59267428935E+01  0.47181975277E+02 -0.84374722492E+02  0.96852252776E+02  0.00000000000E+00 0.  1.
         21    1    1    2  506  503  0.79108632295E+02 -0.95001618708E+02  0.13540007866E+03  0.18334847848E+03  0.00000000000E+00 0.  1.
<scales pt_clust_3="14000.00000" pt_clust_4="50.74081" pt_clust_5="47.55276" pt_clust_6="88.10594"></scales>
<clustering>
<clus scale="   47.553">  2  5  1 -1</clus>
<clus scale="   50.741">  1  4  2 -1</clus>
<clus scale="   88.106">  1  6  2 -1</clus>
<clus scale="   50.741">  1  3  2 -1</clus>
</clustering>
</event>
<event>
 6    0  0.7442036E+002  0.1035421E+03  0.7546771E-02  0.1273019E+00
         21   -1    0    0  503  501  0.00000000000E+00  0.00000000000E+00  0.11388510711E+04  0.11388510711E+04  0.00000000000E+00 0. -1.
         21   -1    0    0  506  502 -0.00000000000E+00 -0.00000000000E+00 -0.83215172849E+02  0.83215172849E+02  0.00000000000E+00 0. -1.
         21    1    1    2  503  504 -0.14859346720E+02  0.29362875303E+02  0.18657445674E+03  0.18945449728E+03  0.00000000000E+00 0.  1.
         21    1    1    2  504  505 -0.86333534452E+02 -0.43218146436E+02  0.81277805439E+03  0.81849218264E+03  0.00000000000E+00 0. -1.
         21    1    1    2  505  502 -0.46519609536E+02  0.20271767524E+02  0.41456826912E+02  0.65526232361E+02  0.00000000000E+00 0.  1.
         21    1    1    2  506  501  0.14771249071E+03 -0.64164963911E+01  0.14826560245E+02  0.14859333170E+03  0.00000000000E+00 0. -1.
<scales pt_clust_3="32.90864" pt_clust_4="14000.00000" pt_clust_5="52.18424" pt_clust_6="103.54212"></scales>
<clustering>
<clus scale="   32.909">  1  3  2 -1</clus>
<clus scale="   52.184">  2  5  1 -1</clus>
<clus scale="  103.542">  2  6  1 -1</clus>
<clus scale="   32.909">  1  3  2 -1</clus>
</clustering>
</event>
<event>
 6    0  0.7442036E+002  0.1470860E+03  0.7546771E-02  0.1204100E+00
         21   -1    0    0  503  501  0.00000000000E+00  0.00000000000E+00  0.21028606503E+04  0.21028606503E+04  0.00000000000E+00 0.  1.
         21   -1    0    0  506  502 -0.00000000000E+00 -0.00000000000E+00 -0.17612084608E+03  0.17612084608E+03  0.00000000000E+00 0.  1.
         21    1    1    2  503  502 -0.15673733297E+03 -0.65122961691E+02  0.18666596693E+04  0.18743601342E+04  0.00000000000E+00 0.  1.
         21    1    1    2  504  505  0.51342924285E+02  0.31615628288E+02 -0.28182770308E+02  0.66557586858E+02  0.00000000000E+00 0.  1.
         21    1    1    2  505  501  0.37663381288E+02 -0.50666087678E+01  0.19902734136E+03  0.20262300813E+03  0.00000000000E+00 0.  1.
         21    1    1    2  506  504  0.67731027398E+02  0.38573942171E+02 -0.11076443617E+03  0.13544076715E+03  0.00000000000E+00 0.  1.
<scales pt_clust_3="138.71718" pt_clust_4="43.06631" pt_clust_5="38.00264" pt_clust_6="43.06631"></scales>
<clustering>
<clus scale="   38.003">  1  5  2 -1</clus>
<clus scale="   43.066">  4  6 -1 -1</clus>
<clus scale="  138.717">  1  3  2 -1</clus>
<clus scale="   38.003">  1  3  2 -1</clus>
</clustering>
</event>
<event>
 6    0  0.7442036E+002  0.3584245E+03  0.7546771E-02  0.1059209E+00
         21   -1    0    0  506  501  0.00000000000E+00  0.00000000000E+00  0.26824693006E+03  0.26824693006E+03  0.00000000000E+00 0. -1.
         21   -1    0    0  503  502 -0.00000000000E+00 -0.00000000000E+00 -0.48445532099E+03  0.48445532099E+03  0.00000000000E+00 0. -1.
         21    1    1    2  503  505 -0.10634818327E+03 -0.31616078838E+00  0.21438462406E+02  0.10848798880E+03  0.00000000000E+00 0. -1.
         21    1    1    2  504  501 -0.25478803311E+02 -0.53112355741E+02 -0.30515832357E+02  0.66342352800E+02  0.00000000000E+00 0. -1.
         21    1    1    2  505  504 -0.14790177021E+03 -0.10730197653E+03  0.19271762533E+02  0.18373907758E+03  0.00000000000E+00 0. -1.
         21    1    1    2  506  502  0.27972875680E+03  0.16073049306E+03 -0.22640278351E+03  0.39413283187E+03  0.00000000000E+00 0. -1.
<scales pt_clust_3="81.10269" pt_clust_4="46.19956" pt_clust_5="81.10269" pt_clust_6="322.61815"></scales>
<clustering>
<clus scale="   46.200">  4  5 -1 -1</clus>
<clus scale="   81.103">  3  4 -1 -1</clus>
<clus scale="  322.618">  2  6  1 -1</clus>
<clus scale="  358.424">  1  3  2 -1</clus>
</clustering>
</event>
<event>
 6    0  0.7442036E+002  0.1207462E+03  0.7546771E-02  0.1241871E+00
         21   -1    0    0  504  501  0.00000000000E+00  0.00000000000E+00  0.80755877690E+03  0.80755877690E+03  0.00000000000E+00 0. -1.
         21   -1    0    0  506  502 -0.00000000000E+00 -0.00000000000E+00 -0.12063206247E+03  0.12063206247E+03  0.00000000000E+00 0. -1.
         21    1    1    2  503  501  0.60215375496E+02  0.10392901171E+03  0.93002882993E+02  0.15191006275E+03  0.00000000000E+00 0. -1.
         21    1    1    2  504  502 -0.36915622630E+02 -0.43356068243E+00  0.64578536531E+03  0.64683977090E+03  0.00000000000E+00 0. -1.
         21    1    1    2  505  503 -0.39967021900E+02 -0.60756854470E+02 -0.31764910638E+02  0.79358476248E+02  0.00000000000E+00 0. -1.
         21    1    1    2  506  505  0.16667269034E+02 -0.42738596556E+02 -0.20096623237E+02  0.50082529470E+02  0.00000000000E+00 0. -1.
<scales pt_clust_3="108.48261" pt_clust_4="36.91817" pt_clust_5="40.72348" pt_clust_6="40.72348"></scales>
<clustering>
<clus scale="   36.918">  1  4  2 -1</clus>
<clus scale="   40.723">  5  6 -1 -1</clus>
<clus scale="  108.483">  1  3  2 -1</clus>
<clus scale="   36.918">  1  3  2 -1</clus>
</clustering>
</event>
<event>
 6    0  0.7442036E+002  0.2519564E+03  0.7546771E-02  0.1112075E+00
         21   -1    0    0  506  501  0.00000000000E+00  0.00000000000E+00  0.76761704702E+03  0.76761704702E+03  0.00000000000E+00 0. -1.
         21   -1    0    0  504  502 -0.00000000000E+00 -0.00000000000E+00 -0.17261142964E+03  0.17261142964E+03  0.00000000000E+00 0. -1.
         21    1    1    2  503  501  0.12025403396E+03  0.21166015613E+03  0.41683152115E+03  0.48271064977E+03  0.00000000000E+00 0. -1.
         21    1    1    2  504  505 -0.15613026927E+03 -0.69215760091E+02 -0.26216562652E+02  0.17278538881E+03  0.00000000000E+00 0. -1.
         21    1    1    2  505  503 -0.26950813689E+02 -0.71503977924E+02  0.22534358293E+02  0.79667826136E+02  0.00000000000E+00 0.  1.
         21    1    1    2  506  502  0.62827049004E+02 -0.70940418119E+02  0.18185630059E+03  0.20506461195E+03  0.00000000000E+00 0. -1.
<scales pt_clust_3="230.39902" pt_clust_4="68.20951" pt_clust_5="68.20951" pt_clust_6="94.76171"></scales>
<clustering>
<clus scale="   68.210">  4  5 -1 -1</clus>
<clus scale="   94.762">  1  6  2 -1</clus>
<clus scale="  230.399">  1  3  2 -1</clus>
<clus scale="   94.762">  1  3  2 -1</clus>
</clustering>
</event>
<event>
 6    0  0.7442036E+002  0.1124220E+03  0.7546771E-02  0.1256149E+00
         21   -1    0    0  505  501  0.00000000000E+00  0.00000000000E+00  0.77980704604E+03  0.77980704604E+03  0.00000000000E+00 0. -1.
         21   -1    0    0  504  502 -0.00000000000E+00 -0.00000000000E+00 -0.73311564927E+02  0.73311564927E+02  0.00000000000E+00 0. -1.
         21    1    1    2  503  506 -0.13557107033E+03 -0.43894650588E+02  0.22645750073E+03  0.26756168466E+03  0.00000000000E+00 0. -1.
         21    1    1    2  504  501  0.37127278059E+02  0.66332705547E+00  0.38089303417E+03  0.38269880880E+03  0.00000000000E+00 0. -1.
         21    1    1    2  505  503  0.22034625455E+02 -0.32931500129E+02  0.85344685261E+02  0.94094227889E+02  0.00000000000E+00 0. -1.
         21    1    1    2  506  502  0.76409166816E+02  0.76162823662E+02  0.13800260950E+02  0.10876388961E+03  0.00000000000E+00 0. -1.
<scales pt_clust_3="112.42196" pt_clust_4="37.13320" pt_clust_5="44.71075" pt_clust_6="14000.00000"></scales>
<clustering>
<clus scale="   37.133">  1  4  2 -1</clus>
<clus scale="   44.711">  1  5  2 -1</clus>
<clus scale="  112.422">  1  3  2 -1</clus>
<clus scale="   37.133">  1  3  2 -1</clus>
</clustering>
</event>
<event>
 6    0  0.7442036E+002  0.8118723E+02  0.7546771E-02  0.1325716E+00
         21   -1    0    0  503  501  0.00000000000E+00  0.00000000000E+00  0.12748502727E+04  0.12748502727E+04  0.00000000000E+00 0.  1.
         21   -1    0    0  506  502 -0.00000000000E+00 -0.00000000000E+00 -0.27237915832E+02  0.27237915832E+02  0.00000000000E+00 0.  1.
         21    1    1    2  503  505 -0.88476401776E+01  0.66539948086E+02  0.54226569418E+03  0.54640454657E+03  0.00000000000E+00 0.  1.
         21    1    1    2  504  501  0.99684500176E+01  0.51221960959E+02  0.90173686916E+02  0.10418422670E+03  0.00000000000E+00 0.  1.
         21    1    1    2  505  502 -0.24803906918E+02 -0.14050152894E+03  0.59732773046E+03  0.61413054883E+03  0.00000000000E+00 0.  1.
         21    1    1    2  506  504  0.23683097078E+02  0.22739619891E+02  0.17845245354E+02  0.37368866476E+02  0.00000000000E+00 0.  1.
<scales pt_clust_3="81.18723" pt_clust_4="63.39816" pt_clust_5="14000.00000" pt_clust_6="32.83260"></scales>
<clustering>
<clus scale="   32.833">  2  6  1 -1</clus>
<clus scale="   63.398">  2  4  1 -1</clus>
<clus scale="   81.187">  1  3  2 -1</clus>
<clus scale="   81.187">  1  3  2 -1</clus>
</clustering>
</event>
<event>
 6    0  0.7442036E+002  0.1573931E+03  0.7546771E-02  0.1191672E+00
         21   -1    0    0  506  501  0.00000000000E+00  0.00000000000E+00  0.29870266862E+03  0.29870266862E+03  0.00000000000E+00 0. -1.
         21   -1    0    0  503  502 -0.00000000000E+00 -0.00000000000E+00 -0.41616609832E+03  0.41616609832E+03  0.00000000000E+00 0. -1.
         21    1    1    2  503  504  0.31405979372E+02  0.15585755565E+03 -0.28493536069E+03  0.32629139272E+03  0.00000000000E+00 0. -1.
         21    1    1    2  504  501 -0.22205041833E+02 -0.21335245012E+02  0.81732002958E+02  0.87340579744E+02  0.00000000000E+00 0.  1.
         21    1    1    2  505  502 -0.56518129511E+02 -0.14399142886E+03 -0.45637027702E+02  0.16127792424E+03  0.00000000000E+00 0. -1.
         21    1    1    2  506  505  0.47317191973E+02  0.94691182267E+01  0.13137695574E+03  0.13995887023E+03  0.00000000000E+00 0. -1.
<scales pt_clust_3="14000.00000" pt_clust_4="30.79377" pt_clust_5="157.39313" pt_clust_6="33.49624"></scales>
<clustering>
<clus scale="   30.794">  1  4  2 -1</clus>
<clus scale="   33.496">  1  6  2 -1</clus>
<clus scale="  157.393">  1  5  2 -1</clus>
<clus scale="   30.794">  1  3  2 -1</clus>
</clustering>
</event>
<event>
 6    0  0.7442036E+002  0.1983545E+03  0.7546771E-02  0.1151135E+00
         21   -1    0    0  504  501  0.00000000000E+00  0.00000000000E+00  0.31212396784E+03  0.31212396784E+03  0.00000000000E+00 0.  1.
         21   -1    0    0  505  502 -0.00000000000E+00 -0.00000000000E+00 -0.33407703048E+03  0.33407703048E+03  0.00000000000E+00 0.  1.
         21    1    1    2  503  502  0.42898532263E+02  0.12389010451E+03 -0.19560762578E+03  0.23548117829E+03  0.00000000000E+00 0.  1.
         21    1    1    2  504  503 -0.88575053156E+02 -0.19420187676E+03  0.18923749162E+03  0.28525556473E+03  0.00000000000E+00 0.  1.
         21    1    1    2  505  506  0.31488175715E+02 -0.16228649262E+02 -0.12987820502E+02  0.37730064247E+02  0.00000000000E+00 0.  1.
         21    1    1    2  506  501  0.14188345178E+02  0.86540421508E+02 -0.25951079633E+01  0.87734191049E+02  0.00000000000E+00 0.  1.
<scales pt_clust_3="14000.00000" pt_clust_4="198.35455" pt_clust_5="35.42420" pt_clust_6="86.23922"></scales>
<clustering>
<clus scale="   35.424">  2  5  1 -1</clus>
<clus scale="   86.239">  2  6  1 -1</clus>
<clus scale="  198.355">  1  4  2 -1</clus>
<clus scale="  198.355">  1  3  2 -1</clus>
</clustering>
</event>
<event>
 6    0  0.7442036E+002  0.8420771E+02  0.7546771E-02  0.1317518E+00
         21   -1    0    0  503  501  0.00000000000E+00  0.00000000000E+00  0.36974382361E+03  0.36974382361E+03  0.00000000000E+00 0.  1.
         21   -1    0    0  504  502 -0.00000000000E+00 -0.00000000000E+00 -0.21813640273E+03  0.21813640273E+03  0.00000000000E+00 0.  1.
         21    1    1    2  503  506 -0.25126238696E+01  0.54793504431E+02  0.22741811914E+03  0.23393939882E+03  0.00000000000E+00 0.  1.
         21    1    1    2  504  501  0.17859649537E+01  0.38052958368E+02 -0.52736755397E+02  0.65056765068E+02  0.00000000000E+00 0.  1.
         21    1    1    2  505  502  0.82493179022E+02 -0.30483851244E+02 -0.11919073899E+03  0.14812434652E+03  0.00000000000E+00 0.  1.
         21    1    1    2  506  505 -0.81766520106E+02 -0.62362611555E+02  0.96116796129E+02  0.14075971593E+03  0.00000000000E+00 0.  1.
<scales pt_clust_3="55.62782" pt_clust_4="38.09485" pt_clust_5="84.20771" pt_clust_6="14000.00000"></scales>
<clustering>
<clus scale="   38.095">  2  4  1 -1</clus>
<clus scale="   55.628">  1  3  2 -1</clus>
<clus scale="   84.208">  2  5  1 -1</clus>
<clus scale="   55.628">  1  3  2 -1</clus>
</clustering>
</event>
<event>
 6    0  0.7442036E+002  0.1332509E+03  0.7546771E-02  0.1222710E+00
         21   -1    0    0  505  501  0.00000000000E+00  0.00000000000E+00  0.63313507393E+03  0.63313507393E+03  0.00000000000E+00 0. -1.
         21   -1    0    0  501  502 -0.00000000000E+00 -0.00000000000E+00 -0.13424090249E+03  0.13424090249E+03  0.00000000000E+00 0.  1.
         21    1    1    2  503  502  0.88656555456E+02  0.97081497188E+02 -0.63116537410E+02  0.14583723536E+03  0.00000000000E+00 0.  1.
         21    1    1    2  504  503 -0.43731924499E+02 -0.54950623939E+02  0.43596830197E+02  0.82660364716E+02  0.00000000000E+00 0.  1.
         21    1    1    2  505  506 -0.42894745786E+02  0.70145331166E+01  0.46196846718E+03  0.46400865030E+03  0.00000000000E+00 0. -1.
         21    1    1    2  506  504 -0.20298851710E+01 -0.49145406365E+02  0.56445411483E+02  0.74869726045E+02  0.00000000000E+00 0.  1.
<scales pt_clust_3="126.01048" pt_clust_4="36.25930" pt_clust_5="43.46450" pt_clust_6="36.25930"></scales>
<clustering>
<clus scale="   36.259">  4  6 -1 -1</clus>
<clus scale="   43.465">  1  5  2 -1</clus>
<clus scale="  126.010">  2  3  1 -1</clus>
<clus scale="   43.465">  1  3  2 -1</clus>
</clustering>
</event>
<event>
 6    0  0.7442036E+002  0.3962729E+03  0.7546771E-02  0.1045078E+00
         21   -1    0    0  506  501  0.00000000000E+00  0.00000000000E+00  0.96055679872E+03  0.96055679872E+03  0.00000000000E+00 0.  1.
         21   -1    0    0  505  502 -0.00000000000E+00 -0.00000000000E+00 -0.18391011256E+04  0.18391011256E+04  0.00000000000E+00 0. -1.
         21    1    1    2  503  501  0.11364814973E+03  0.87227772596E+02  0.73895661975E+03  0.75271606341E+03  0.00000000000E+00 0.  1.
         21    1    1    2  504  502 -0.46897698367E+02  0.44541565676E+03 -0.11203811149E+04  0.12065854069E+04  0.00000000000E+00 0. -1.
         21    1    1    2  505  503  0.96733470569E+01 -0.33773038970E+03 -0.52989554695E+03  0.62844624308E+03  0.00000000000E+00 0. -1.
         21    1    1    2  506  504 -0.76423798418E+02 -0.19491303966E+03  0.32775715260E+02  0.21191021095E+03  0.00000000000E+00 0. -1.
<scales pt_clust_3="143.26404" pt_clust_4="396.27286" pt_clust_5="14000.00000" pt_clust_6="145.68073"></scales>
<clustering>
<clus scale="  143.264">  1  3  2 -1</clus>
<clus scale="  145.681">  1  6  2 -1</clus>
<clus scale="  396.273">  2  4  1 -1</clus>
<clus scale="  143.264">  1  3  2 -1</clus>
</clustering>
</event>
<event>
 6    0  0.7442036E+002  0.8583869E+02  0.7546771E-02  0.1313254E+00
         21   -1    0    0  505  501  0.00000000000E+00  0.00000000000E+00  0.26487146223E+03  0.26487146223E+03  0.00000000000E+00 0. -1.
         21   -1    0    0  503  502 -0.00000000000E+00 -0.00000000000E+00 -0.10951740099E+03  0.10951740099E+03  0.00000000000E+00 0. -1.
         21    1    1    2  503  501 -0.34497214772E+02 -0.49527162413E+02  0.80210600262E+02  0.10038295691E+03  0.00000000000E+00 0. -1.
         21    1    1    2  504  502  0.48203967224E+02 -0.67467062492E+02  0.12509389767E+02  0.83856495335E+02  0.00000000000E+00 0.  1.
         21    1    1    2  505  506  0.58876773087E+02  0.59303898213E+02  0.11756203277E+02  0.84389780589E+02  0.00000000000E+00 0. -1.
         21    1    1    2  506  504 -0.72583525539E+02  0.57690326692E+02  0.50877867937E+02  0.10575963039E+03  0.00000000000E+00 0. -1.
<scales pt_clust_3="60.35725" pt_clust_4="85.83869" pt_clust_5="67.25657" pt_clust_6="14000.00000"></scales>
<clustering>
<clus scale="   60.357">  1  3  2 -1</clus>
<clus scale="   67.257">  1  5  2 -1</clus>
<clus scale="   85.839">  2  4  1 -1</clus>
<clus scale="   60.357">  1  3  2 -1</clus>
</clustering>
</event>
<event>
 6    0  0.7442036E+002  0.1867367E+03  0.7546771E-02  0.1161438E+00
         21   -1    0    0  504  501  0.00000000000E+00  0.00000000000E+00  0.26278447611E+03  0.26278447611E+03  0.00000000000E+00 0.  1.
         21   -1    0    0  506  502 -0.00000000000E+00 -0.00000000000E+00 -0.70887863487E+03  0.70887863487E+03  0.00000000000E+00 0. -1.
         21    1    1    2  503  501  0.54485310587E+02 -0.16647549740E+03  0.18729956946E+03  0.25644467050E+03  0.00000000000E+00 0.  1.
         21    1    1    2  504  502 -0.10422572308E+03 -0.20477223255E+01 -0.82705328852E+02  0.13306902697E+03  0.00000000000E+00 0. -1.
         21    1    1    2  505  503  0.35169915332E+02  0.92668096244E+02 -0.20198987972E+03  0.22499824558E+03  0.00000000000E+00 0. -1.
         21    1    1    2  506  505  0.14570497165E+02  0.75855123483E+02 -0.34869851965E+03  0.35715116793E+03  0.00000000000E+00 0. -1.
<scales pt_clust_3="173.50669" pt_clust_4="104.24584" pt_clust_5="60.94384" pt_clust_6="60.94384"></scales>
<clustering>
<clus scale="   60.944">  5  6 -1 -1</clus>
<clus scale="  104.246">  2  4  1 -1</clus>
<clus scale="  173.507">  1  3  2 -1</clus>
<clus scale="  173.507">  1  3  2 -1</clus>
</clustering>
</event>
<event>
 6    0  0.7442036E+002  0.7048263E+02  0.7546771E-02  0.1358460E+00
         21   -1    0    0  505  501  0.00000000000E+00  0.00000000000E+00  0.62959396533E+03  0.62959396533E+03  0.00000000000E+00 0.  1.
         21   -1    0    0  503  502 -0.00000000000E+00 -0.00000000000E+00 -0.51991941601E+02  0.51991941601E+02  0.00000000000E+00 0. -1.
         21    1    1    2  503  501 -0.19935458628E+02  0.75885215106E+02  0.48938942543E+02  0.92471663117E+02  0.00000000000E+00 0. -1.
         21    1    1    2  504  502  0.57370851201E+02 -0.10525596043E+01  0.28979830839E+02  0.64283380782E+02  0.00000000000E+00 0. -1.
         21    1    1    2  505  506 -0.56937463286E+02 -0.11794399845E+02  0.40657130778E+03  0.41070818217E+03  0.00000000000E+00 0.  1.
         21    1    1    2  506  504  0.19502070712E+02 -0.63038255656E+02  0.93111942572E+02  0.11412268086E+03  0.00000000000E+00 0. -1.
<scales pt_clust_3="14000.00000" pt_clust_4="57.38051" pt_clust_5="54.78057" pt_clust_6="70.48263"></scales>
<clustering>
<clus scale="   57.381">  2  4  1 -1</clus>
<clus scale="   54.781">  1  5  2 -1</clus>
<clus scale="   70.483">  1  6  2 -1</clus>
<clus scale="   54.781">  1  3  2 -1</clus>
</clustering>
</event>
<event>
 6    0  0.7708923E+002  0.1121056E+03  0.7546771E-02  0.1256720E+00
         21   -1    0    0  506  501  0.00000000000E+00  0.00000000000E+00  0.10278057452E+04  0.10278057452E+04  0.00000000000E+00 0. -1.
         21   -1    0    0  503  502 -0.00000000000E+00 -0.00000000000E+00 -0.28395160620E+03  0.28395160620E+03  0.00000000000E+00 0.  1.
         21    1    1    2  503  504  0.21136253566E+02 -0.22249707113E+02  0.18135740240E+02  0.35646819711E+02  0.00000000000E+00 0. -1.
         21    1    1    2  504  501  0.57746134021E+02  0.44749967385E+00  0.22704796213E+03  0.23427674523E+03  0.00000000000E+00 0. -1.
         21    1    1    2  505  502 -0.13129550100E+03  0.53038772798E+02 -0.25180082305E+03  0.28888626566E+03  0.00000000000E+00 0.  1.
         21    1    1    2  506  505  0.52413113409E+02 -0.31236565358E+02  0.75047125971E+03  0.75294752083E+03  0.00000000000E+00 0. -1.
<scales pt_clust_3="30.68861" pt_clust_4="58.02394" pt_clust_5="14000.00000" pt_clust_6="112.10561"></scales>
<clustering>
<clus scale="   30.689">  2  3  1 -1</clus>
<clus scale="   58.024">  1  4  2 -1</clus>
<clus scale="  112.106">  1  6  2 -1</clus>
<clus scale="   58.024">  1  3  2 -1</clus>
</clustering>
</event>
<event>
 6    0  0.7442036E+002  0.2331062E+03  0.7546771E-02  0.1124472E+00
         21   -1    0    0  505  501  0.00000000000E+00  0.00000000000E+00  0.13377407424E+04  0.13377407424E+04  0.00000000000E+00 0. -1.
         21   -1    0    0  504  502 -0.00000000000E+00 -0.00000000000E+00 -0.66343001278E+03  0.66343001278E+03  0.00000000000E+00 0. -1.
         21    1    1    2  503  501  0.74772687930E+02  0.53996096792E+02 -0.23460327976E+03  0.25208179665E+03  0.00000000000E+00 0. -1.
         21    1    1    2  504  503  0.14051514963E+03  0.54389034484E+01 -0.37007302713E+03  0.39588904299E+03  0.00000000000E+00 0. -1.
         21    1    1    2  505  506 -0.51566649997E+01  0.33758812194E+02  0.95683790775E+03  0.95744714230E+03  0.00000000000E+00 0. -1.
         21    1    1    2  506  502 -0.21013117256E+03 -0.93193812435E+02  0.32214912879E+03  0.39575277326E+03  0.00000000000E+00 0. -1.
<scales pt_clust_3="53.55128" pt_clust_4="53.55128" pt_clust_5="34.15038" pt_clust_6="223.57795"></scales>
<clustering>
<clus scale="   34.150">  1  5  2 -1</clus>
<clus scale="   53.551">  3  4 -1 -1</clus>
<clus scale="  223.578">  1  6  2 -1</clus>
<clus scale="   34.150">  1  3  2 -1</clus>
</clustering>
</event>
<event>
 6    0  0.7442036E+002  0.1049588E+03  0.7546771E-02  0.1270201E+00
         21   -1    0    0  505  501  0.00000000000E+00  0.00000000000E+00  0.35237235149E+03  0.35237235149E+03  0.00000000000E+00 0.  1.
         21   -1    0    0  504  502 -0.00000000000E+00 -0.00000000000E+00 -0.57994977513E+03  0.57994977513E+03  0.00000000000E+00 0.  1.
         21    1    1    2  503  506  0.28953994010E+02 -0.49496873346E+02 -0.34401161599E+03  0.34875817721E+03  0.00000000000E+00 0.  1.
         21    1    1    2  504  503 -0.18428261302E+02 -0.41665543971E+02 -0.20179354476E+03  0.20687255274E+03  0.00000000000E+00 0. -1.
         21    1    1    2  505  502 -0.34064076057E+02  0.14154010231E+03  0.21972192951E+03  0.26357482457E+03  0.00000000000E+00 0.  1.
         21    1    1    2  506  501  0.23538343350E+02 -0.50377684990E+02  0.98505807598E+02  0.11311657210E+03  0.00000000000E+00 0.  1.
<scales pt_clust_3="43.67451" pt_clust_4="43.67451" pt_clust_5="92.81968" pt_clust_6="55.60544"></scales>
<clustering>
<clus scale="   43.675">  3  4 -1 -1</clus>
<clus scale="   55.605">  1  6  2 -1</clus>
<clus scale="   92.820">  1  5  2 -1</clus>
<clus scale="   55.605">  1  3  2 -1</clus>
</clustering>
</event>
<event>
 6    0  0.7442036E+002  0.1241313E+03  0.7546771E-02  0.1236433E+00
         21   -1    0    0  505  501  0.00000000000E+00  0.00000000000E+00  0.16180769674E+04  0.16180769674E+04  0.00000000000E+00 0.  1.
         21   -1    0    0  506  502 -0.00000000000E+00 -0.00000000000E+00 -0.10950776146E+04  0.10950776146E+04  0.00000000000E+00 0.  1.
         21    1    1    2  503  504 -0.25371827819E+02  0.74581302478E+02 -0.38673715765E+03  0.39467927414E+03  0.00000000000E+00 0.  1.
         21    1    1    2  504  501  0.11990285105E+03 -0.73159211103E+02  0.10176039807E+04  0.10272520749E+04  0.00000000000E+00 0.  1.
         21    1    1    2  505  502 -0.29210427630E+02 -0.12405137761E+02  0.58968230080E+03  0.59053564872E+03  0.00000000000E+00 0.  1.
         21    1    1    2  506  503 -0.65320595600E+02  0.10983046386E+02 -0.69754977113E+03  0.70068758425E+03  0.00000000000E+00 0.  1.
<scales pt_clust_3="124.13126" pt_clust_4="14000.00000" pt_clust_5="31.73541" pt_clust_6="66.27834"></scales>
<clustering>
<clus scale="   31.735">  1  5  2 -1</clus>
<clus scale="   66.278">  2  6  1 -1</clus>
<clus scale="  124.131">  2  3  1 -1</clus>
<clus scale="   31.735">  1  3  2 -1</clus>
</clustering>
</event>
<event>
 6    0  0.7442036E+002  0.1980551E+03  0.7546771E-02  0.1151390E+00
         21   -1    0    0  506  501  0.00000000000E+00  0.00000000000E+00  0.69403096324E+03  0.69403096324E+03  0.00000000000E+00 0. -1.
         21   -1    0    0  503  502 -0.00000000000E+00 -0.00000000000E+00 -0.29114396466E+03  0.29114396466E+03  0.00000000000E+00 0. -1.
         21    1    1    2  503  504 -0.50600805508E+02 -0.37727503319E+02 -0.18283733715E+03  0.19342517385E+03  0.00000000000E+00 0. -1.
         21    1    1    2  504  501  0.20790699876E+03  0.10936357413E+03  0.53330520760E+03  0.58275222516E+03  0.00000000000E+00 0. -1.
         21    1    1    2  505  502 -0.23641179974E+02 -0.31230639032E+02 -0.27730095906E+02  0.47991837055E+02  0.00000000000E+00 0. -1.
         21    1    1    2  506  505 -0.13366501328E+03 -0.40405431774E+02  0.80149224032E+02  0.16100569184E+03  0.00000000000E+00 0. -1.
<scales pt_clust_3="91.42053" pt_clust_4="14000.00000" pt_clust_5="39.16961" pt_clust_6="198.05507"></scales>
<clustering>
<clus scale="   39.170">  2  5  1 -1</clus>
<clus scale="   91.421">  2  3  1 -1</clus>
<clus scale="  198.055">  2  6  1 -1</clus>
<clus scale="  198.055">  1  3  2 -1</clus>
</clustering>
</event>
<event>
 6    0  0.7442036E+002  0.8766717E+02  0.7546771E-02  0.1308601E+00
         21   -1    0    0  504  501  0.00000000000E+00  0.00000000000E+00  0.28342523367E+03  0.28342523367E+03  0.00000000000E+00 0.  1.
         21   -1    0    0  505  502 -0.00000000000E+00 -0.00000000000E+00 -0.27202387021E+04  0.27202387021E+04  0.00000000000E+00 0.  1.
         21    1    1    2  503  501  0.23655234801E+02 -0.51872714098E+02  0.54406695763E+02  0.78806326810E+02  0.00000000000E+00 0. -1.
         21    1    1    2  504  506 -0.11116655399E+03  0.58398561079E+02  0.19627696632E+03  0.23300867402E+03  0.00000000000E+00 0.  1.
         21    1    1    2  505  503  0.34074539080E+02 -0.25978794361E+02 -0.24697583833E+03  0.25066518842E+03  0.00000000000E+00 0. -1.
         21    1    1    2  506  502  0.53436780112E+02  0.19452947380E+02 -0.24405212922E+04  0.24411837465E+04  0.00000000000E+00 0.  1.
<scales pt_clust_3="57.19839" pt_clust_4="87.66717" pt_clust_5="42.84824" pt_clust_6="14000.00000"></scales>
<clustering>
<clus scale="   42.848">  2  5  1 -1</clus>
<clus scale="   57.198">  1  3  2 -1</clus>
<clus scale="   87.667">  1  4  2 -1</clus>
<clus scale="   57.198">  1  3  2 -1</clus>
</clustering>
</event>
<event>
 6    0  0.7442036E+002  0.8424614E+02  0.7546771E-02  0.1317416E+00
         21   -1    0    0  504  501  0.00000000000E+00  0.00000000000E+00  0.65689552076E+03  0.65689552076E+03  0.00000000000E+00 0.  1.
         21   -1    0    0  501  502 -0.00000000000E+00 -0.00000000000E+00 -0.46213922783E+02  0.46213922783E+02  0.00000000000E+00 0.  1.
         21    1    1    2  503  502 -0.19719304758E+02 -0.46768114546E+02  0.59663303184E+01  0.51104839455E+02  0.00000000000E+00 0. -1.
         21    1    1    2  504  505 -0.17503414780E+02 -0.24411668435E+02  0.20339442005E+03  0.20560055738E+03  0.00000000000E+00 0.  1.
         21    1    1    2  505  506  0.10375351194E+03  0.45249366004E+02  0.31294279510E+03  0.33278444881E+03  0.00000000000E+00 0.  1.
         21    1    1    2  506  503 -0.66530792406E+02  0.25930416976E+02  0.88378052499E+02  0.11361959790E+03  0.00000000000E+00 0.  1.
<scales pt_clust_3="52.60481" pt_clust_4="30.03829" pt_clust_5="84.24614" pt_clust_6="14000.00000"></scales>
<clustering>
<clus scale="   30.038">  1  4  2 -1</clus>
<clus scale="   52.605">  2  3  1 -1</clus>
<clus scale="   84.246">  1  5  2 -1</clus>
<clus scale="   30.038">  1  3  2 -1</clus>
</clustering>
</event>
<event>
 6    0  0.7442036E+002  0.1169429E+03  0.7546771E-02  0.1248227E+00
         21   -1    0    0  506  501  0.00000000000E+00  0.00000000000E+00  0.28000639037E+04  0.28000639037E+04  0.00000000000E+00 0.  1.
         21   -1    0    0  504  502 -0.00000000000E+00 -0.00000000000E+00 -0.23304135385E+02  0.23304135385E+02  0.00000000000E+00 0.  1.
         21    1    1    2  503  505  0.88344835865E+02 -0.55524425399E+02  0.64452012029E+03  0.65291190623E+03  0.00000000000E+00 0.  1.
         21    1    1    2  504  501  0.57908827409E+02  0.67359578648E+02  0.18488325215E+03  0.20511597220E+03  0.00000000000E+00 0.  1.
         21    1    1    2  505  502 -0.10559246473E+03  0.75359931959E+02  0.56770574746E+03  0.58233899376E+03  0.00000000000E+00 0.  1.
         21    1    1    2  506  503 -0.40661198546E+02 -0.87195085208E+02  0.13796506484E+04  0.13830011669E+04  0.00000000000E+00 0.  1.
<scales pt_clust_3="14000.00000" pt_clust_4="88.82987" pt_clust_5="116.94293" pt_clust_6="85.40027"></scales>
<clustering>
<clus scale="   88.830">  2  4  1 -1</clus>
<clus scale="   85.400">  1  6  2 -1</clus>
<clus scale="  116.943">  2  5  1 -1</clus>
<clus scale="   85.400">  1  3  2 -1</clus>
</clustering>
</event>
<event>
 6    0  0.7442036E+002  0.9198242E+02  0.7546771E-02  0.1298121E+00
         21   -1    0    0  505  501  0.00000000000E+00  0.00000000000E+00  0.24614185756E+02  0.24614185756E+02  0.00000000000E+00 0. -1.
         21   -1    0    0  506  502 -0.00000000000E+00 -0.00000000000E+00 -0.44749619085E+04  0.44749619085E+04  0.00000000000E+00 0. -1.
         21    1    1    2  503  501 -0.50102934816E+02  0.30099737108E+02 -0.75211564053E+02  0.95252703995E+02  0.00000000000E+00 0. -1.
         21    1    1    2  504  502 -0.10874420108E+02 -0.55650885366E+02 -0.31219446047E+04  0.31224595096E+04  0.00000000000E+00 0. -1.
         21    1    1    2  505  504  0.10547234062E+03  0.47796345851E+02 -0.23039245967E+03  0.25785575577E+03  0.00000000000E+00 0. -1.
         21    1    1    2  506  503 -0.44494985694E+02 -0.22245197592E+02 -0.10227990943E+04  0.10240081249E+04  0.00000000000E+00 0. -1.
<scales pt_clust_3="59.11717" pt_clust_4="91.98242" pt_clust_5="14000.00000" pt_clust_6="49.74588"></scales>
<clustering>
<clus scale="   49.746">  2  6  1 -1</clus>
<clus scale="   59.117">  1  3  2 -1</clus>
<clus scale="   91.982">  2  4  1 -1</clus>
<clus scale="   59.117">  1  3  2 -1</clus>
</clustering>
</event>
<event>
 6    0  0.7442036E+002  0.1241344E+03  0.7546771E-02  0.1236428E+00
         21   -1    0    0  504  501  0.00000000000E+00  0.00000000000E+00  0.11778447373E+04  0.11778447373E+04  0.00000000000E+00 0.  1.
         21   -1    0    0  505  502 -0.00000000000E+00 -0.00000000000E+00 -0.29160217116E+03  0.29160217116E+03  0.00000000000E+00 0.  1.
         21    1    1    2  503  501  0.57215091716E+02 -0.69765432971E+02  0.79410424186E+03  0.79921356927E+03  0.00000000000E+00 0.  1.
         21    1    1    2  504  506  0.62638324144E+02  0.18002333998E+02  0.34238123928E+03  0.34852913320E+03  0.00000000000E+00 0.  1.
         21    1    1    2  505  503 -0.63734758578E+02  0.75872144359E+02 -0.47357760354E+02  0.10982467485E+03  0.00000000000E+00 0. -1.
         21    1    1    2  506  502 -0.56118657282E+02 -0.24109045387E+02 -0.20288515462E+03  0.21187953117E+03  0.00000000000E+00 0.  1.
<scales pt_clust_3="124.13440" pt_clust_4="62.96292" pt_clust_5="14000.00000" pt_clust_6="61.07823"></scales>
<clustering>
<clus scale="   61.078">  2  6  1 -1</clus>
<clus scale="   62.963">  1  4  2 -1</clus>
<clus scale="  124.134">  1  3  2 -1</clus>
<clus scale="   62.963">  1  3  2 -1</clus>
</clustering>
</event>
<event>
 6    0  0.7442036E+002  0.8550645E+02  0.7546771E-02  0.1314113E+00
         21   -1    0    0  506  501  0.00000000000E+00  0.00000000000E+00  0.80294797093E+03  0.80294797093E+03  0.00000000000E+00 0.  1.
         21   -1    0    0  505  502 -0.00000000000E+00 -0.00000000000E+00 -0.19310745087E+03  0.19310745087E+03  0.00000000000E+00 0. -1.
         21    1    1    2  503  504 -0.52547669124E+02  0.86314047561E+02  0.16689146274E+02  0.10242021256E+03  0.00000000000E+00 0.  1.
         21    1    1    2  504  501  0.25417459198E+02 -0.21951878625E+02  0.17104066449E+03  0.17430674433E+03  0.00000000000E+00 0.  1.
         21    1    1    2  505  503  0.69450547197E+02 -0.47038951903E+02 -0.13576186330E+03  0.15958485213E+03  0.00000000000E+00 0. -1.
         21    1    1    2  506  502 -0.42320337271E+02 -0.17323217033E+02  0.55787257259E+03  0.55974361278E+03  0.00000000000E+00 0.  1.
<scales pt_clust_3="14000.00000" pt_clust_4="33.58470" pt_clust_5="85.50645" pt_clust_6="41.76905"></scales>
<clustering>
<clus scale="   33.585">  1  4  2 -1</clus>
<clus scale="   41.769">  1  6  2 -1</clus>
<clus scale="   85.506">  2  5  1 -1</clus>
<clus scale="   33.585">  1  3  2 -1</clus>
</clustering>
</event>
<event>
 6    0  0.7442036E+002  0.1150519E+03  0.7546771E-02  0.1251491E+00
         21   -1    0    0  502  501  0.00000000000E+00  0.00000000000E+00  0.12040627689E+03  0.12040627689E+03  0.00000000000E+00 0. -1.
         21   -1    0    0  506  502 -0.00000000000E+00 -0.00000000000E+00 -0.60113996927E+03  0.60113996927E+03  0.00000000000E+00 0. -1.
         21    1    1    2  503  504  0.11291823487E+03  0.15679270754E+01 -0.27988355744E+03  0.30180754114E+03  0.00000000000E+00 0. -1.
         21    1    1    2  504  501 -0.11383976339E+03 -0.18982878741E+02  0.72874666682E+02  0.13649380373E+03  0.00000000000E+00 0. -1.
         21    1    1    2  505  503  0.28179920943E+02  0.31255536561E+02 -0.14909317686E+03  0.15491866220E+03  0.00000000000E+00 0. -1.
         21    1    1    2  506  505 -0.27258392425E+02 -0.13840584896E+02 -0.12463162476E+03  0.12832623909E+03  0.00000000000E+00 0.  1.
<scales pt_clust_3="115.05186" pt_clust_4="14000.00000" pt_clust_5="33.13326" pt_clust_6="30.57093"></scales>
<clustering>
<clus scale="   30.571">  2  6  1 -1</clus>
<clus scale="   33.133">  2  5  1 -1</clus>
<clus scale="  115.052">  2  3  1 -1</clus>
<clus scale="  115.052">  1  3  2 -1</clus>
</clustering>
</event>
<event>
 6    0  0.7442036E+002  0.1134868E+03  0.7546771E-02  0.1254246E+00
         21   -1    0    0  506  501  0.00000000000E+00  0.00000000000E+00  0.41143395267E+02  0.41143395267E+02  0.00000000000E+00 0.  1.
         21   -1    0    0  505  502 -0.00000000000E+00 -0.00000000000E+00 -0.58787166680E+03  0.58787166680E+03  0.00000000000E+00 0.  1.
         21    1    1    2  503  504 -0.36510906626E+02  0.39735868772E+02 -0.15691422409E+03  0.16593390037E+03  0.00000000000E+00 0.  1.
         21    1    1    2  504  502 -0.72515771344E+02 -0.99306221175E+01 -0.22303499184E+03  0.23473764490E+03  0.00000000000E+00 0.  1.
         21    1    1    2  505  501  0.47455471374E+02 -0.65926812709E+02 -0.65046749206E+02  0.10406462405E+03  0.00000000000E+00 0.  1.
         21    1    1    2  506  503  0.61571206597E+02  0.36121566055E+02 -0.10173230640E+03  0.12427889274E+03  0.00000000000E+00 0.  1.
<scales pt_clust_3="50.07537" pt_clust_4="50.07537" pt_clust_5="97.35571" pt_clust_6="71.38474"></scales>
<clustering>
<clus scale="   50.075">  3  4 -1 -1</clus>
<clus scale="   71.385">  1  6  2 -1</clus>
<clus scale="   97.356">  1  5  2 -1</clus>
<clus scale="   71.385">  1  3  2 -1</clus>
</clustering>
</event>
<event>
 6    0  0.7442036E+002  0.1416519E+03  0.7546771E-02  0.1211123E+00
         21   -1    0    0  503  501  0.00000000000E+00  0.00000000000E+00  0.15959299537E+03  0.15959299537E+03  0.00000000000E+00 0.  1.
         21   -1    0    0  504  502 -0.00000000000E+00 -0.00000000000E+00 -0.15706633694E+04  0.15706633694E+04  0.00000000000E+00 0. -1.
         21    1    1    2  503  506  0.34352659416E+02  0.97980616473E+01  0.14364490751E+03  0.14802015631E+03  0.00000000000E+00 0.  1.
         21    1    1    2  504  505  0.57228178997E+02  0.24068401511E+02 -0.57083806094E+03  0.57420418341E+03  0.00000000000E+00 0. -1.
         21    1    1    2  505  501  0.60501590447E+02  0.90146332680E+01 -0.29259774173E+03  0.29892330877E+03  0.00000000000E+00 0. -1.
         21    1    1    2  506  502 -0.15208242886E+03 -0.42881096427E+02 -0.69127947890E+03  0.70910871631E+03  0.00000000000E+00 0. -1.
<scales pt_clust_3="35.72264" pt_clust_4="42.39218" pt_clust_5="42.39218" pt_clust_6="134.86966"></scales>
<clustering>
<clus scale="   35.723">  1  3  2 -1</clus>
<clus scale="   42.392">  4  5 -1 -1</clus>
<clus scale="  134.870">  1  6  2 -1</clus>
<clus scale="   35.723">  1  3  2 -1</clus>
</clustering>
</event>
<event>
 6    0  0.7442036E+002  0.8099598E+02  0.7546771E-02  0.1326249E+00
         21   -1    0    0  505  501  0.00000000000E+00  0.00000000000E+00  0.65400029473E+03  0.65400029473E+03  0.00000000000E+00 0. -1.
         21   -1    0    0  506  502 -0.00000000000E+00 -0.00000000000E+00 -0.38485613224E+03  0.38485613224E+03  0.00000000000E+00 0. -1.
         21    1    1    2  503  504 -0.12336283517E+03  0.61513140700E+02  0.13442801438E+03  0.19254388234E+03  0.00000000000E+00 0. -1.
         21    1    1    2  504  501  0.41498245513E+02 -0.51676154118E+02  0.47843487387E+03  0.48300357951E+03  0.00000000000E+00 0. -1.
         21    1    1    2  505  502  0.49292596070E+02 -0.30218313955E+02 -0.91894170741E+02  0.10857000111E+03  0.00000000000E+00 0. -1.
         21    1    1    2  506  503  0.32571993583E+02  0.20381327374E+02 -0.25182455502E+03  0.25473896400E+03  0.00000000000E+00 0. -1.
<scales pt_clust_3="80.99598" pt_clust_4="66.35765" pt_clust_5="14000.00000" pt_clust_6="38.42308"></scales>
<clustering>
<clus scale="   38.423">  2  6  1 -1</clus>
<clus scale="   66.358">  1  4  2 -1</clus>
<clus scale="   80.996">  1  3  2 -1</clus>
<clus scale="   66.358">  1  3  2 -1</clus>
</clustering>
</event>
<event>
 6    0  0.7442036E+002  0.9382727E+02  0.7546771E-02  0.1293839E+00
         21   -1    0    0  505  501  0.00000000000E+00  0.00000000000E+00  0.13948366634E+03  0.13948366634E+03  0.00000000000E+00 0. -1.
         21   -1    0    0  503  502 -0.00000000000E+00 -0.00000000000E+00 -0.76829249700E+03  0.76829249700E+03  0.00000000000E+00 0.  1.
         21    1    1    2  503  501  0.13487924489E+02  0.30807636834E+02  0.25390235791E+01  0.33726565717E+02  0.00000000000E+00 0.  1.
         21    1    1    2  504  506  0.52692427833E+02  0.47894941002E+02 -0.15332616683E+03  0.16905422431E+03  0.00000000000E+00 0.  1.
         21    1    1    2  505  504  0.28389987136E+02 -0.24239850450E+02  0.10521254975E+03  0.11163889262E+03  0.00000000000E+00 0. -1.
         21    1    1    2  506  502 -0.94570339458E+02 -0.54462727386E+02 -0.58323423716E+03  0.59335648069E+03  0.00000000000E+00 0.  1.
<scales pt_clust_3="33.63086" pt_clust_4="14000.00000" pt_clust_5="40.57462" pt_clust_6="93.82727"></scales>
<clustering>
<clus scale="   33.631">  1  3  2 -1</clus>
<clus scale="   40.575">  1  5  2 -1</clus>
<clus scale="   93.827">  2  6  1 -1</clus>
<clus scale="   33.631">  1  3  2 -1</clus>
</clustering>
</event>
<event>
 6    0  0.7442036E+002  0.6814543E+02  0.7546771E-02  0.1366516E+00
         21   -1    0    0  503  501  0.00000000000E+00  0.00000000000E+00  0.27310865937E+02  0.27310865937E+02  0.00000000000E+00 0.  1.
         21   -1    0    0  505  502 -0.00000000000E+00 -0.00000000000E+00 -0.90102720464E+03  0.90102720464E+03  0.00000000000E+00 0.  1.
         21    1    1    2  503  506  0.25486487171E+02 -0.38047726115E+02 -0.71168033236E+02  0.84629069743E+02  0.00000000000E+00 0. -1.
         21    1    1    2  504  501 -0.76903306486E+02  0.24485627199E+02 -0.11317343089E+03  0.13900320121E+03  0.00000000000E+00 0.  1.
         21    1    1    2  505  504 -0.38667359945E+02 -0.24222924796E+02 -0.15935110255E+03  0.16575490549E+03  0.00000000000E+00 0.  1.
         21    1    1    2  506  502  0.90084179260E+02  0.37785023712E+02 -0.53002377203E+03  0.53895089413E+03  0.00000000000E+00 0.  1.
<scales pt_clust_3="45.90079" pt_clust_4="68.14543" pt_clust_5="45.62800" pt_clust_6="14000.00000"></scales>
<clustering>
<clus scale="   45.628">  2  5  1 -1</clus>
<clus scale="   45.901">  1  3  2 -1</clus>
<clus scale="   68.145">  1  4  2 -1</clus>
<clus scale="   45.901">  1  3  2 -1</clus>
</clustering>
</event>
<event>
 6    0  0.7442036E+002  0.1189219E+03  0.7546771E-02  0.1244886E+00
         21   -1    0    0  503  501  0.00000000000E+00  0.00000000000E+00  0.67674905847E+03  0.67674905847E+03  0.00000000000E+00 0.  1.
         21   -1    0    0  504  502 -0.00000000000E+00 -0.00000000000E+00 -0.16619427196E+03  0.16619427196E+03  0.00000000000E+00 0. -1.
         21    1    1    2  503  505  0.35711758960E+02 -0.15819573377E+02  0.48643638558E+03  0.48800199369E+03  0.00000000000E+00 0.  1.
         21    1    1    2  504  506 -0.37389751104E+02 -0.50865982550E+02 -0.22292836230E+01  0.63168911451E+02  0.00000000000E+00 0. -1.
         21    1    1    2  505  502  0.13267203890E+03  0.48434282816E+02 -0.35704886126E+02  0.14567974654E+03  0.00000000000E+00 0. -1.
         21    1    1    2  506  501 -0.13099404676E+03  0.18251273111E+02  0.62052570672E+02  0.14609267875E+03  0.00000000000E+00 0. -1.
<scales pt_clust_3="39.05878" pt_clust_4="62.08200" pt_clust_5="14000.00000" pt_clust_6="118.92194"></scales>
<clustering>
<clus scale="   39.059">  1  3  2 -1</clus>
<clus scale="   62.082">  2  4  1 -1</clus>
<clus scale="  118.922">  1  6  2 -1</clus>
<clus scale="   39.059">  1  3  2 -1</clus>
</clustering>
</event>
<event>
 6    0  0.7442036E+002  0.2067341E+03  0.7546771E-02  0.1144179E+00
         21   -1    0    0  503  501  0.00000000000E+00  0.00000000000E+00  0.15244155975E+03  0.15244155975E+03  0.00000000000E+00 0. -1.
         21   -1    0    0  506  502 -0.00000000000E+00 -0.00000000000E+00 -0.77934518149E+03  0.77934518149E+03  0.00000000000E+00 0. -1.
         21    1    1    2  503  504  0.33077325662E+02 -0.21631601104E+03 -0.20046729126E+02  0.21974666654E+03  0.00000000000E+00 0. -1.
         21    1    1    2  504  505  0.93163067843E+02  0.18376645260E+03 -0.24837172547E+03  0.32270416843E+03  0.00000000000E+00 0. -1.
         21    1    1    2  505  502 -0.72154382161E+02  0.25240303895E+02 -0.29895639137E+03  0.30857454812E+03  0.00000000000E+00 0. -1.
         21    1    1    2  506  501 -0.54086011343E+02  0.73092545458E+01 -0.59528775771E+02  0.80761358147E+02  0.00000000000E+00 0. -1.
<scales pt_clust_3="206.73412" pt_clust_4="14000.00000" pt_clust_5="99.45313" pt_clust_6="54.57767"></scales>
<clustering>
<clus scale="   54.578">  2  6  1 -1</clus>
<clus scale="   99.453">  2  5  1 -1</clus>
<clus scale="  206.734">  1  3  2 -1</clus>
<clus scale="  206.734">  1  3  2 -1</clus>
</clustering>
</event>
<event>
 6    0  0.7442036E+002  0.9758377E+02  0.7546771E-02  0.1285461E+00
         21   -1    0    0  505  501  0.00000000000E+00  0.00000000000E+00  0.39341949830E+03  0.39341949830E+03  0.00000000000E+00 0. -1.
         21   -1    0    0  504  502 -0.00000000000E+00 -0.00000000000E+00 -0.83287574763E+03  0.83287574763E+03  0.00000000000E+00 0.  1.
         21    1    1    2  503  506  0.79340178964E+02  0.12687424860E+02 -0.12635238503E+03  0.14973563353E+03  0.00000000000E+00 0. -1.
         21    1    1    2  504  501 -0.11888939315E+02 -0.72463304009E+02  0.21072671954E+02  0.76395908327E+02  0.00000000000E+00 0. -1.
         21    1    1    2  505  503  0.30535268785E+02  0.13895689298E+02  0.32774510386E+03  0.32945765422E+03  0.00000000000E+00 0. -1.
         21    1    1    2  506  502 -0.97986508433E+02  0.45880189851E+02 -0.66192164011E+03  0.67070604985E+03  0.00000000000E+00 0.  1.
<scales pt_clust_3="14000.00000" pt_clust_4="62.99582" pt_clust_5="33.54837" pt_clust_6="97.58377"></scales>
<clustering>
<clus scale="   33.548">  1  5  2 -1</clus>
<clus scale="   62.996">  1  4  2 -1</clus>
<clus scale="   97.584">  2  6  1 -1</clus>
<clus scale="   33.548">  1  3  2 -1</clus>
</clustering>
</event>
<event>
 6    0  0.7442036E+002  0.1409624E+03  0.7546771E-02  0.1212040E+00
         21   -1    0    0  503  501  0.00000000000E+00  0.00000000000E+00  0.22228822449E+04  0.22228822449E+04  0.00000000000E+00 0.  1.
         21   -1    0    0  505  502 -0.00000000000E+00 -0.00000000000E+00 -0.13046534838E+03  0.13046534838E+03  0.00000000000E+00 0.  1.
         21    1    1    2  503  506  0.93473486381E+02  0.10753974149E+03  0.20910216335E+04  0.20958705973E+04  0.00000000000E+00 0.  1.
         21    1    1    2  504  502 -0.37358809614E+02  0.27034173101E+02 -0.16559308047E+01  0.46144005871E+02  0.00000000000E+00 0. -1.
         21    1    1    2  505  501 -0.46597604241E+02  0.22348565543E+01 -0.46162945475E+02  0.65630395700E+02  0.00000000000E+00 0. -1.
         21    1    1    2  506  504 -0.95170725265E+01 -0.13680877115E+03  0.49214139334E+02  0.14570259449E+03  0.00000000000E+00 0.  1.
<scales pt_clust_3="14000.00000" pt_clust_4="46.11428" pt_clust_5="68.19839" pt_clust_6="140.96237"></scales>
<clustering>
<clus scale="   46.114">  2  4  1 -1</clus>
<clus scale="   68.198">  2  5  1 -1</clus>
<clus scale="  140.962">  2  6  1 -1</clus>
<clus scale="  140.962">  1  3  2 -1</clus>
</clustering>
</event>
<event>
 6    0  0.7442036E+002  0.1270102E+03  0.7546771E-02  0.1231961E+00
         21   -1    0    0  503  501  0.00000000000E+00  0.00000000000E+00  0.15878093873E+03  0.15878093873E+03  0.00000000000E+00 0. -1.
         21   -1    0    0  504  502 -0.00000000000E+00 -0.00000000000E+00 -0.40432014987E+03  0.40432014987E+03  0.00000000000E+00 0. -1.
         21    1    1    2  503  505  0.11799304950E+02  0.29459291978E+02  0.20598679667E+02  0.37833570875E+02  0.00000000000E+00 0. -1.
         21    1    1    2  504  501  0.11438287105E+03 -0.15578516413E+03 -0.75011071070E+01  0.19341335311E+03  0.00000000000E+00 0. -1.
         21    1    1    2  505  506 -0.63104202287E+02  0.27790953375E+02 -0.30356179946E+02  0.75339067533E+02  0.00000000000E+00 0.  1.
         21    1    1    2  506  502 -0.63077973709E+02  0.98534918777E+02 -0.22828060375E+03  0.25651509708E+03  0.00000000000E+00 0. -1.
<scales pt_clust_3="31.73442" pt_clust_4="127.01020" pt_clust_5="69.35818" pt_clust_6="14000.00000"></scales>
<clustering>
<clus scale="   31.734">  1  3  2 -1</clus>
<clus scale="   69.358">  1  5  2 -1</clus>
<clus scale="  127.010">  1  4  2 -1</clus>
<clus scale="   31.734">  1  3  2 -1</clus>
</clustering>
</event>
<event>
 6    0  0.7442036E+002  0.1425285E+03  0.7546771E-02  0.1209967E+00
         21   -1    0    0  506  501  0.00000000000E+00  0.00000000000E+00  0.44928753511E+03  0.44928753511E+03  0.00000000000E+00 0. -1.
         21   -1    0    0  503  502 -0.00000000000E+00 -0.00000000000E+00 -0.20205605875E+03  0.20205605875E+03  0.00000000000E+00 0.  1.
         21    1    1    2  503  505  0.35574475598E+02 -0.71236215066E+02 -0.90866494380E+02  0.12081747163E+03  0.00000000000E+00 0.  1.
         21    1    1    2  504  502 -0.10218727476E+03  0.12686575474E+03  0.19851487145E+03  0.25679819515E+03  0.00000000000E+00 0. -1.
         21    1    1    2  505  501  0.58299077943E+02 -0.36038944240E+01 -0.50044712359E+02  0.76917122796E+02  0.00000000000E+00 0.  1.
         21    1    1    2  506  504  0.83137212143E+01 -0.52025645254E+02  0.18962781165E+03  0.19681080427E+03  0.00000000000E+00 0. -1.
<scales pt_clust_3="58.78357" pt_clust_4="124.43738" pt_clust_5="58.78357" pt_clust_6="52.68573"></scales>
<clustering>
<clus scale="   52.686">  1  6  2 -1</clus>
<clus scale="   58.784">  3  5 -1 -1</clus>
<clus scale="  124.437">  1  4  2 -1</clus>
<clus scale="   52.686">  1  3  2 -1</clus>
</clustering>
</event>
<event>
 6    0  0.7442036E+002  0.1227712E+03  0.7546771E-02  0.1238594E+00
         21   -1    0    0  503  501  0.00000000000E+00  0.00000000000E+00  0.38212624556E+04  0.38212624556E+04  0.00000000000E+00 0. -1.
         21   -1    0    0  504  502 -0.00000000000E+00 -0.00000000000E+00 -0.15598378728E+02  0.15598378728E+02  0.00000000000E+00 0. -1.
         21    1    1    2  503  506  0.93708275486E+02  0.71526764632E+01  0.99467073377E+03  0.99910073080E+03  0.00000000000E+00 0. -1.
         21    1    1    2  504  505  0.21833691302E+02 -0.44631672687E+02  0.17728014786E+03  0.18411123569E+03  0.00000000000E+00 0. -1.
         21    1    1    2  505  501 -0.15255778508E+03 -0.19356813902E+01  0.25462803703E+04  0.25508471825E+04  0.00000000000E+00 0. -1.
         21    1    1    2  506  502  0.37015818290E+02  0.39414677614E+02  0.87432824929E+02  0.10280168525E+03  0.00000000000E+00 0. -1.
<scales pt_clust_3="122.77117" pt_clust_4="49.68598" pt_clust_5="14000.00000" pt_clust_6="52.02147"></scales>
<clustering>
<clus scale="   49.686">  2  4  1 -1</clus>
<clus scale="   52.021">  2  6  1 -1</clus>
<clus scale="  122.771">  1  3  2 -1</clus>
<clus scale="  122.771">  1  3  2 -1</clus>
</clustering>
</event>
<event>
 6    0  0.7442036E+002  0.6617872E+02  0.7546771E-02  0.1373592E+00
         21   -1    0    0  505  501  0.00000000000E+00  0.00000000000E+00  0.24846013267E+03  0.24846013267E+03  0.00000000000E+00 0.  1.
         21   -1    0    0  506  502 -0.00000000000E+00 -0.00000000000E+00 -0.11678025392E+03  0.11678025392E+03  0.00000000000E+00 0. -1.
         21    1    1    2  503  502  0.59140153161E+02 -0.29699579639E+02 -0.38526407739E+02  0.76576150595E+02  0.00000000000E+00 0. -1.
         21    1    1    2  504  501  0.67219793238E+02 -0.42636376513E+01  0.70591233382E+02  0.97569469812E+02  0.00000000000E+00 0. -1.
         21    1    1    2  505  503 -0.44392212071E+02  0.54957299726E+02  0.74865117621E+02  0.10293570383E+03  0.00000000000E+00 0.  1.
         21    1    1    2  506  504 -0.81967734328E+02 -0.20994082436E+02  0.24749935490E+02  0.88159062353E+02  0.00000000000E+00 0.  1.
<scales pt_clust_3="66.17872" pt_clust_4="14000.00000" pt_clust_5="56.73710" pt_clust_6="63.38274"></scales>
<clustering>
<clus scale="   66.179">  2  3  1 -1</clus>
<clus scale="   56.737">  1  5  2 -1</clus>
<clus scale="   63.383">  2  6  1 -1</clus>
<clus scale="   56.737">  1  3  2 -1</clus>
</clustering>
</event>
<event>
 6    0  0.7442036E+002  0.3589992E+03  0.7546771E-02  0.1058981E+00
         21   -1    0    0  506  501  0.00000000000E+00  0.00000000000E+00  0.49035292451E+03  0.49035292451E+03  0.00000000000E+00 0.  1.
         21   -1    0    0  505  502 -0.00000000000E+00 -0.00000000000E+00 -0.98708563641E+03  0.98708563641E+03  0.00000000000E+00 0.  1.
         21    1    1    2  503  502 -0.40841799196E+02 -0.23318623657E-01 -0.97947914294E+02  0.10612184987E+03  0.00000000000E+00 0.  1.
         21    1    1    2  504  501 -0.17793766985E+02  0.33933150857E+02  0.86513905910E+02  0.94618881765E+02  0.00000000000E+00 0.  1.
         21    1    1    2  505  504  0.26463937697E+03  0.20979340818E+03  0.28565105392E+03  0.44231640097E+03  0.00000000000E+00 0.  1.
         21    1    1    2  506  503 -0.20600381079E+03 -0.24370324041E+03 -0.77094975744E+03  0.83438142833E+03  0.00000000000E+00 0.  1.
<scales pt_clust_3="34.36650" pt_clust_4="38.31549" pt_clust_5="345.90831" pt_clust_6="34.36650"></scales>
<clustering>
<clus scale="   34.367">  3  6 -1 -1</clus>
<clus scale="   38.315">  1  4  2 -1</clus>
<clus scale="  345.908">  1  5  2 -1</clus>
<clus scale="   38.315">  1  3  2 -1</clus>
</clustering>
</event>
<event>
 6    0  0.7442036E+002  0.1086047E+03  0.7546771E-02  0.1263176E+00
         21   -1    0    0  504  501  0.00000000000E+00  0.00000000000E+00  0.23634923289E+03  0.23634923289E+03  0.00000000000E+00 0.  1.
         21   -1    0    0  506  502 -0.00000000000E+00 -0.00000000000E+00 -0.16313332158E+03  0.16313332158E+03  0.00000000000E+00 0. -1.
         21    1    1    2  503  502 -0.22785956230E+02 -0.35626564899E+02 -0.46968365223E+02  0.63201892848E+02  0.00000000000E+00 0. -1.
         21    1    1    2  504  503 -0.26419875335E+02 -0.47641779818E+02 -0.13078197217E+02  0.56024889463E+02  0.00000000000E+00 0.  1.
         21    1    1    2  505  501  0.28750172286E+02 -0.31524069262E+02  0.15576584322E+03  0.16150336611E+03  0.00000000000E+00 0.  1.
         21    1    1    2  506  505  0.20455659279E+02  0.11479241398E+03 -0.22503369473E+02  0.11875240604E+03  0.00000000000E+00 0.  1.
<scales pt_clust_3="31.20801" pt_clust_4="31.20801" pt_clust_5="42.66544" pt_clust_6="102.66630"></scales>
<clustering>
<clus scale="   31.208">  3  4 -1 -1</clus>
<clus scale="   42.665">  1  5  2 -1</clus>
<clus scale="  102.666">  1  6  2 -1</clus>
<clus scale="   42.665">  1  3  2 -1</clus>
</clustering>
</event>
<event>
 6    0  0.7442036E+002  0.8312812E+02  0.7546771E-02  0.1320402E+00
         21   -1    0    0  506  501  0.00000000000E+00  0.00000000000E+00  0.20321917340E+03  0.20321917340E+03  0.00000000000E+00 0. -1.
         21   -1    0    0  504  502 -0.00000000000E+00 -0.00000000000E+00 -0.57529192420E+03  0.57529192420E+03  0.00000000000E+00 0. -1.
         21    1    1    2  503  501 -0.12481459578E+02  0.87774973875E+02  0.16663239558E+03  0.18875006789E+03  0.00000000000E+00 0. -1.
         21    1    1    2  504  505 -0.15687518689E+02 -0.66675721076E+02 -0.23167761180E+03  0.24159111290E+03  0.00000000000E+00 0. -1.
         21    1    1    2  505  503  0.86920135616E+02  0.16763797891E+02 -0.21575727125E+03  0.23321092383E+03  0.00000000000E+00 0. -1.
         21    1    1    2  506  502 -0.58751157349E+02 -0.37863050690E+02 -0.91270263335E+02  0.11495899298E+03  0.00000000000E+00 0. -1.
<scales pt_clust_3="14000.00000" pt_clust_4="68.49635" pt_clust_5="81.29028" pt_clust_6="83.12812"></scales>
<clustering>
<clus scale="   68.496">  2  4  1 -1</clus>
<clus scale="   81.290">  2  5  1 -1</clus>
<clus scale="   83.128">  2  6  1 -1</clus>
<clus scale="   83.128">  1  3  2 -1</clus>
</clustering>
</event>
<event>
 6    0  0.7442036E+002  0.1851530E+03  0.7546771E-02  0.1162907E+00
         21   -1    0    0  505  501  0.00000000000E+00  0.00000000000E+00  0.45911107256E+03  0.45911107256E+03  0.00000000000E+00 0.  1.
         21   -1    0    0  504  502 -0.00000000000E+00 -0.00000000000E+00 -0.44551394724E+03  0.44551394724E+03  0.00000000000E+00 0.  1.
         21    1    1    2  503  502  0.51927030359E+02 -0.79033810717E+02 -0.16209342504E+03  0.18766203175E+03  0.00000000000E+00 0.  1.
         21    1    1    2  504  506  0.38382827046E+01 -0.36930864852E+02 -0.21418838751E+03  0.21738281104E+03  0.00000000000E+00 0.  1.
         21    1    1    2  505  503 -0.57446787750E+02  0.18993553298E+03  0.37477260344E+03  0.42406384472E+03  0.00000000000E+00 0.  1.
         21    1    1    2  506  501  0.16814746865E+01 -0.73970857411E+02  0.15106334432E+02  0.75516332294E+02  0.00000000000E+00 0.  1.
<scales pt_clust_3="185.15299" pt_clust_4="37.12979" pt_clust_5="14000.00000" pt_clust_6="78.85689"></scales>
<clustering>
<clus scale="   37.130">  2  4  1 -1</clus>
<clus scale="   78.857">  2  6  1 -1</clus>
<clus scale="  185.153">  2  3  1 -1</clus>
<clus scale="  185.153">  1  3  2 -1</clus>
</clustering>
</event>
<event>
 6    0  0.7442036E+002  0.1222009E+03  0.7546771E-02  0.1239510E+00
         21   -1    0    0  502  501  0.00000000000E+00  0.00000000000E+00  0.22725897682E+03  0.22725897682E+03  0.00000000000E+00 0.  1.
         21   -1    0    0  506  502 -0.00000000000E+00 -0.00000000000E+00 -0.22374508308E+03  0.22374508308E+03  0.00000000000E+00 0.  1.
         21    1    1    2  503  505  0.96608579821E+02  0.55990569347E+02 -0.85953032061E+02  0.14091162220E+03  0.00000000000E+00 0.  1.
         21    1    1    2  504  501 -0.22008724868E+02 -0.28417817567E+02  0.11009387437E+03  0.11581285550E+03  0.00000000000E+00 0.  1.
         21    1    1    2  505  504 -0.79662826063E+02 -0.78809884493E+02  0.36043865855E+02  0.11771288806E+03  0.00000000000E+00 0.  1.
         21    1    1    2  506  503  0.50629711103E+01  0.51237132712E+02 -0.56670814415E+02  0.76566694140E+02  0.00000000000E+00 0.  1.
<scales pt_clust_3="14000.00000" pt_clust_4="35.94379" pt_clust_5="122.20089" pt_clust_6="48.86543"></scales>
<clustering>
<clus scale="   35.944">  1  4  2 -1</clus>
<clus scale="   48.865">  2  6  1 -1</clus>
<clus scale="  122.201">  1  5  2 -1</clus>
<clus scale="   35.944">  1  3  2 -1</clus>
</clustering>
</event>
<event>
 6    0  0.7442036E+002  0.4397558E+03  0.7546771E-02  0.1030822E+00
         21   -1    0    0  506  501  0.00000000000E+00  0.00000000000E+00  0.19496430931E+04  0.19496430931E+04  0.00000000000E+00 0. -1.
         21   -1    0    0  503  502 -0.00000000000E+00 -0.00000000000E+00 -0.18144560195E+04  0.18144560195E+04  0.00000000000E+00 0. -1.
         21    1    1    2  503  505  0.37197135033E+02  0.97196540535E+02 -0.11385199677E+04  0.11432665968E+04  0.00000000000E+00 0. -1.
         21    1    1    2  504  501  0.32918632191E+03  0.14107652898E+03  0.61910463823E+03  0.71523197260E+03  0.00000000000E+00 0. -1.
         21    1    1    2  505  504  0.78995679135E+02  0.72062365869E+02 -0.56268882123E+03  0.57275824868E+03  0.00000000000E+00 0. -1.
         21    1    1    2  506  502 -0.44537913607E+03 -0.31033543538E+03  0.12172912243E+04  0.13328422946E+04  0.00000000000E+00 0. -1.
<scales pt_clust_3="90.85209" pt_clust_4="14000.00000" pt_clust_5="225.01095" pt_clust_6="439.75578"></scales>
<clustering>
<clus scale="   90.852">  3  5 -1 -1</clus>
<clus scale="  225.011">  2  3  1 -1</clus>
<clus scale="  439.756">  2  6  1 -1</clus>
<clus scale="  439.756">  1  3  2 -1</clus>
</clustering>
</event>
<event>
 6    0  0.7442036E+002  0.2158086E+03  0.7546771E-02  0.1137047E+00
         21   -1    0    0  502  501  0.00000000000E+00  0.00000000000E+00  0.88654056064E+03  0.88654056064E+03  0.00000000000E+00 0. -1.
         21   -1    0    0  505  502 -0.00000000000E+00 -0.00000000000E+00 -0.13538146942E+04  0.13538146942E+04  0.00000000000E+00 0. -1.
         21    1    1    2  503  501  0.54569869177E+02 -0.13307480504E+02  0.82978419870E+03  0.83168309835E+03  0.00000000000E+00 0. -1.
         21    1    1    2  504  506 -0.81445650986E+02 -0.17490898212E+03 -0.81407740094E+03  0.83662928518E+03  0.00000000000E+00 0. -1.
         21    1    1    2  505  504  0.34859039671E+02 -0.46889966261E+02 -0.17501222896E+03  0.18450772848E+03  0.00000000000E+00 0. -1.
         21    1    1    2  506  503 -0.79832578617E+01  0.23510642888E+03 -0.30796870241E+03  0.38753514288E+03  0.00000000000E+00 0. -1.
<scales pt_clust_3="56.16903" pt_clust_4="215.80863" pt_clust_5="62.18114" pt_clust_6="14000.00000"></scales>
<clustering>
<clus scale="   56.169">  1  3  2 -1</clus>
<clus scale="   62.181">  2  5  1 -1</clus>
<clus scale="  215.809">  2  4  1 -1</clus>
<clus scale="   56.169">  1  3  2 -1</clus>
</clustering>
</event>
<event>
 6    0  0.7442036E+002  0.1849079E+03  0.7546771E-02  0.1163136E+00
         21   -1    0    0  506  501  0.00000000000E+00  0.00000000000E+00  0.12138127591E+03  0.12138127591E+03  0.00000000000E+00 0.  1.
         21   -1    0    0  504  502 -0.00000000000E+00 -0.00000000000E+00 -0.17971580981E+04  0.17971580981E+04  0.00000000000E+00 0.  1.
         21    1    1    2  503  505 -0.23872045533E+02 -0.84365163596E+02 -0.60859331261E+03  0.61487655309E+03  0.00000000000E+00 0.  1.
         21    1    1    2  504  503  0.53638756900E+01 -0.90379628416E+02 -0.96916847661E+03  0.97338830096E+03  0.00000000000E+00 0.  1.
         21    1    1    2  505  501  0.94925714089E+02  0.21032449580E+03 -0.78601414912E+02  0.24377339305E+03  0.00000000000E+00 0.  1.
         21    1    1    2  506  502 -0.76417544246E+02 -0.35579703792E+02 -0.19413618064E+02  0.86501126911E+02  0.00000000000E+00 0.  1.
<scales pt_clust_3="47.95463" pt_clust_4="47.95463" pt_clust_5="178.37109" pt_clust_6="84.29446"></scales>
<clustering>
<clus scale="   47.955">  3  4 -1 -1</clus>
<clus scale="   84.294">  1  6  2 -1</clus>
<clus scale="  178.371">  1  5  2 -1</clus>
<clus scale="   84.294">  1  3  2 -1</clus>
</clustering>
</event>
<event>
 6    0  0.7442036E+002  0.1355869E+03  0.7546771E-02  0.1219394E+00
         21   -1    0    0  503  501  0.00000000000E+00  0.00000000000E+00  0.16366915790E+04  0.16366915790E+04  0.00000000000E+00 0. -1.
         21   -1    0    0  506  502 -0.00000000000E+00 -0.00000000000E+00 -0.63685635232E+02  0.63685635232E+02  0.00000000000E+00 0.  1.
         21    1    1    2  503  502  0.93385117876E+02  0.88517079182E+02  0.53133932080E+03  0.54669692461E+03  0.00000000000E+00 0. -1.
         21    1    1    2  504  505 -0.71574958011E+02 -0.43389795698E+02 -0.39789716914E+01  0.83794279046E+02  0.00000000000E+00 0.  1.
         21    1    1    2  505  501  0.38344622308E+02 -0.50447029641E+01  0.94595958971E+03  0.94674986372E+03  0.00000000000E+00 0. -1.
         21    1    1    2  506  504 -0.60154782173E+02 -0.40082580520E+02  0.99686004918E+02  0.12313614683E+03  0.00000000000E+00 0. -1.
<scales pt_clust_3="14000.00000" pt_clust_4="135.58689" pt_clust_5="38.67504" pt_clust_6="67.71206"></scales>
<clustering>
<clus scale="   38.675">  1  5  2 -1</clus>
<clus scale="   67.712">  2  6  1 -1</clus>
<clus scale="  135.587">  2  4  1 -1</clus>
<clus scale="   38.675">  1  3  2 -1</clus>
</clustering>
</event>
<event>
 6    0  0.7442036E+002  0.1151518E+03  0.7546771E-02  0.1251316E+00
         21   -1    0    0  504  501  0.00000000000E+00  0.00000000000E+00  0.20488925575E+03  0.20488925575E+03  0.00000000000E+00 0.  1.
         21   -1    0    0  506  502 -0.00000000000E+00 -0.00000000000E+00 -0.11802233900E+04  0.11802233900E+04  0.00000000000E+00 0. -1.
         21    1    1    2  503  501  0.71136121401E+02 -0.85096348811E+01  0.11185569000E+03  0.13283243971E+03  0.00000000000E+00 0.  1.
         21    1    1    2  504  502 -0.18706079275E+03  0.22855556492E+02 -0.45341128924E+02  0.19382965361E+03  0.00000000000E+00 0.  1.
         21    1    1    2  505  503  0.49775468777E+02 -0.74336649211E+02 -0.36840175574E+03  0.37910867616E+03  0.00000000000E+00 0. -1.
         21    1    1    2  506  505  0.66149202569E+02  0.59990727600E+02 -0.67344693963E+03  0.67934187630E+03  0.00000000000E+00 0. -1.
<scales pt_clust_3="71.64329" pt_clust_4="115.15177" pt_clust_5="14000.00000" pt_clust_6="90.99857"></scales>
<clustering>
<clus scale="   71.643">  1  3  2 -1</clus>
<clus scale="   90.999">  2  6  1 -1</clus>
<clus scale="  115.152">  1  4  2 -1</clus>
<clus scale="   71.643">  1  3  2 -1</clus>
</clustering>
</event>
<event>
 6    0  0.7442036E+002  0.1123432E+03  0.7546771E-02  0.1256291E+00
         21   -1    0    0  503  501  0.00000000000E+00  0.00000000000E+00  0.14785635092E+03  0.14785635092E+03  0.00000000000E+00 0.  1.
         21   -1    0    0  505  502 -0.00000000000E+00 -0.00000000000E+00 -0.19613139537E+03  0.19613139537E+03  0.00000000000E+00 0.  1.
         21    1    1    2  503  502  0.28083388038E+02 -0.28230953957E+02 -0.16203666072E+02  0.42990955319E+02  0.00000000000E+00 0. -1.
         21    1    1    2  504  506  0.23634620369E+02  0.36138113243E+02 -0.75121947457E+02  0.86647939955E+02  0.00000000000E+00 0.  1.
         21    1    1    2  505  504  0.48526604074E+02  0.33226075613E+02 -0.45544247264E+02  0.74384688360E+02  0.00000000000E+00 0.  1.
         21    1    1    2  506  501 -0.10024461248E+03 -0.41133234899E+02  0.88594816342E+02  0.13996416265E+03  0.00000000000E+00 0.  1.
<scales pt_clust_3="39.82039" pt_clust_4="31.51289" pt_clust_5="31.51289" pt_clust_6="106.15298"></scales>
<clustering>
<clus scale="   31.513">  4  5 -1 -1</clus>
<clus scale="   39.820">  2  3  1 -1</clus>
<clus scale="  106.153">  1  6  2 -1</clus>
<clus scale="  106.153">  1  3  2 -1</clus>
</clustering>
</event>
<event>
 6    0  0.7442036E+002  0.8671712E+02  0.7546771E-02  0.1311002E+00
         21   -1    0    0  504  501  0.00000000000E+00  0.00000000000E+00  0.92066739976E+02  0.92066739976E+02  0.00000000000E+00 0. -1.
         21   -1    0    0  506  502 -0.00000000000E+00 -0.00000000000E+00 -0.41497114882E+03  0.41497114882E+03  0.00000000000E+00 0. -1.
         21    1    1    2  503  502 -0.67552994487E+02 -0.42671552143E+02 -0.19245804154E+03  0.20838513905E+03  0.00000000000E+00 0. -1.
         21    1    1    2  504  503  0.43701411879E+02 -0.13722821443E+02  0.23038051855E+02  0.51272615126E+02  0.00000000000E+00 0. -1.
         21    1    1    2  505  501 -0.99883626579E+01  0.10410428015E+03 -0.26978449267E+02  0.10800604269E+03  0.00000000000E+00 0. -1.
         21    1    1    2  506  505  0.33839945266E+02 -0.47709906562E+02 -0.12650596990E+03  0.13937409192E+03  0.00000000000E+00 0. -1.
<scales pt_clust_3="14000.00000" pt_clust_4="45.80534" pt_clust_5="86.71712" pt_clust_6="62.85038"></scales>
<clustering>
<clus scale="   45.805">  1  4  2 -1</clus>
<clus scale="   62.850">  2  6  1 -1</clus>
<clus scale="   86.717">  1  5  2 -1</clus>
<clus scale="   45.805">  1  3  2 -1</clus>
</clustering>
</event>
<event>
 6    0  0.7442036E+002  0.3140401E+03  0.7546771E-02  0.1078425E+00
         21   -1    0    0  502  501  0.00000000000E+00  0.00000000000E+00  0.41496786747E+03  0.41496786747E+03  0.00000000000E+00 0.  1.
         21   -1    0    0  505  502 -0.00000000000E+00 -0.00000000000E+00 -0.37129924659E+03  0.37129924659E+03  0.00000000000E+00 0.  1.
         21    1    1    2  503  506 -0.19552827983E+03  0.21519968008E+03  0.22906252599E+02  0.29166231661E+03  0.00000000000E+00 0.  1.
         21    1    1    2  504  503  0.38298826012E+02 -0.35255442023E+02  0.69433234610E+01  0.52516245171E+02  0.00000000000E+00 0.  1.
         21    1    1    2  505  504  0.91532447515E+02 -0.25701824660E+03 -0.99225258702E+02  0.29031400241E+03  0.00000000000E+00 0.  1.
         21    1    1    2  506  501  0.65697006304E+02  0.77074008537E+02  0.11304430353E+03  0.15177454987E+03  0.00000000000E+00 0.  1.
<scales pt_clust_3="303.12482" pt_clust_4="35.85126" pt_clust_5="35.85126" pt_clust_6="101.27438"></scales>
<clustering>
<clus scale="   35.851">  4  5 -1 -1</clus>
<clus scale="  101.274">  1  6  2 -1</clus>
<clus scale="  303.125">  1  3  2 -1</clus>
<clus scale="  101.274">  1  3  2 -1</clus>
</clustering>
</event>
<event>
 6    0  0.1126840E+003  0.9220995E+02  0.7546771E-02  0.1297587E+00
         21   -1    0    0  503  501  0.00000000000E+00  0.00000000000E+00  0.43133413953E+03  0.43133413953E+03  0.00000000000E+00 0. -1.
         21   -1    0    0  506  502 -0.00000000000E+00 -0.00000000000E+00 -0.19955893357E+04  0.19955893357E+04  0.00000000000E+00 0.  1.
         21    1    1    2  503  505 -0.54719811155E+02  0.25717260218E+02  0.10494930747E+02  0.61365941510E+02  0.00000000000E+00 0.  1.
         21    1    1    2  504  502  0.28859352620E+01  0.53060904534E+02 -0.23462363465E+03  0.24056607855E+03  0.00000000000E+00 0. -1.
         21    1    1    2  505  504 -0.62196291911E+01 -0.96155479815E+02  0.38597801110E+03  0.39782356031E+03  0.00000000000E+00 0. -1.
         21    1    1    2  506  501  0.58053505084E+02  0.17377315063E+02 -0.17261045033E+04  0.17271678948E+04  0.00000000000E+00 0.  1.
<scales pt_clust_3="60.75478" pt_clust_4="53.13933" pt_clust_5="14000.00000" pt_clust_6="92.20995"></scales>
<clustering>
<clus scale="   53.139">  2  4  1 -1</clus>
<clus scale="   60.755">  1  3  2 -1</clus>
<clus scale="   92.210">  2  6  1 -1</clus>
<clus scale="   60.755">  1  3  2 -1</clus>
</clustering>
</event>
<event>
 6    0  0.7442036E+002  0.1304164E+03  0.7546771E-02  0.1226839E+00
         21   -1    0    0  505  501  0.00000000000E+00  0.00000000000E+00  0.84694126001E+02  0.84694126001E+02  0.00000000000E+00 0.  1.
         21   -1    0    0  506  502 -0.00000000000E+00 -0.00000000000E+00 -0.18146022528E+04  0.18146022528E+04  0.00000000000E+00 0. -1.
         21    1    1    2  503  502  0.10966589990E+02 -0.30355959910E+02 -0.13244327409E+03  0.13631937225E+03  0.00000000000E+00 0.  1.
         21    1    1    2  504  501  0.34925937973E+02  0.31293671552E+02  0.59340336341E+02  0.75633263447E+02  0.00000000000E+00 0.  1.
         21    1    1    2  505  503 -0.53998343403E+02 -0.10897459227E+03 -0.14385113225E+04  0.14436433451E+04  0.00000000000E+00 0. -1.
         21    1    1    2  506  504  0.81058154405E+01  0.10803688063E+03 -0.21829386649E+03  0.24370039796E+03  0.00000000000E+00 0. -1.
<scales pt_clust_3="32.27616" pt_clust_4="46.83633" pt_clust_5="14000.00000" pt_clust_6="130.41638"></scales>
<clustering>
<clus scale="   32.276">  2  3  1 -1</clus>
<clus scale="   46.836">  1  4  2 -1</clus>
<clus scale="  130.416">  1  6  2 -1</clus>
<clus scale="   46.836">  1  3  2 -1</clus>
</clustering>
</event>
<event>
 6    0  0.7442036E+002  0.1214933E+03  0.7546771E-02  0.1240654E+00
         21   -1    0    0  505  501  0.00000000000E+00  0.00000000000E+00  0.13812615390E+03  0.13812615390E+03  0.00000000000E+00 0. -1.
         21   -1    0    0  503  502 -0.00000000000E+00 -0.00000000000E+00 -0.27464094811E+03  0.27464094811E+03  0.00000000000E+00 0.  1.
         21    1    1    2  503  504 -0.25003606106E+02 -0.10550119078E+03 -0.16518993174E+03  0.19759401591E+03  0.00000000000E+00 0.  1.
         21    1    1    2  504  501 -0.64705063465E+02  0.23988746401E+02 -0.21714567943E+02  0.72344506722E+02  0.00000000000E+00 0.  1.
         21    1    1    2  505  506  0.22868268264E+02  0.41904073556E+02  0.43914719126E+02  0.64864563746E+02  0.00000000000E+00 0. -1.
         21    1    1    2  506  502  0.66840401307E+02  0.39608370826E+02  0.64749863409E+01  0.77964015639E+02  0.00000000000E+00 0.  1.
<scales pt_clust_3="107.66459" pt_clust_4="69.00873" pt_clust_5="44.12597" pt_clust_6="44.12597"></scales>
<clustering>
<clus scale="   44.126">  5  6 -1 -1</clus>
<clus scale="   69.009">  1  4  2 -1</clus>
<clus scale="  107.665">  2  3  1 -1</clus>
<clus scale="   69.009">  1  3  2 -1</clus>
</clustering>
</event>
<event>
 6    0  0.7442036E+002  0.8986325E+02  0.7546771E-02  0.1303183E+00
         21   -1    0    0  505  501  0.00000000000E+00  0.00000000000E+00  0.83131181699E+02  0.83131181699E+02  0.00000000000E+00 0. -1.
         21   -1    0    0  503  502 -0.00000000000E+00 -0.00000000000E+00 -0.30716070919E+03  0.30716070919E+03  0.00000000000E+00 0. -1.
         21    1    1    2  503  506  0.37340784310E+02  0.43361493072E+02 -0.92854707004E+02  0.10907130634E+03  0.00000000000E+00 0. -1.
         21    1    1    2  504  502 -0.39125570493E+02  0.55094091748E+02 -0.95083437644E+02  0.11664917199E+03  0.00000000000E+00 0. -1.
         21    1    1    2  505  504 -0.14367837955E+02 -0.12695951322E+03 -0.30060272256E+02  0.13125841966E+03  0.00000000000E+00 0. -1.
         21    1    1    2  506  501  0.16152624138E+02  0.28503928398E+02 -0.60311105855E+01  0.33312992894E+02  0.00000000000E+00 0. -1.
<scales pt_clust_3="60.97831" pt_clust_4="89.86325" pt_clust_5="14000.00000" pt_clust_6="32.76250"></scales>
<clustering>
<clus scale="   32.762">  1  6  2 -1</clus>
<clus scale="   60.978">  2  3  1 -1</clus>
<clus scale="   89.863">  2  4  1 -1</clus>
<clus scale="   32.762">  1  3  2 -1</clus>
</clustering>
</event>
<event>
 6    0  0.7442036E+002  0.1168224E+03  0.7546771E-02  0.1248433E+00
         21   -1    0    0  506  501  0.00000000000E+00  0.00000000000E+00  0.54120122424E+02  0.54120122424E+02  0.00000000000E+00 0.  1.
         21   -1    0    0  503  502 -0.00000000000E+00 -0.00000000000E+00 -0.53468310060E+03  0.53468310060E+03  0.00000000000E+00 0.  1.
         21    1    1    2  503  504  0.25724777488E+02 -0.24201132514E+02 -0.82275583567E+02  0.89536197390E+02  0.00000000000E+00 0.  1.
         21    1    1    2  504  501  0.47021311031E+02  0.13362895417E+03 -0.14936949217E+03  0.20586147351E+03  0.00000000000E+00 0.  1.
         21    1    1    2  505  502 -0.53515061241E+01 -0.32228194766E+02 -0.14038686209E+03  0.14413801095E+03  0.00000000000E+00 0.  1.
         21    1    1    2  506  505 -0.67394582394E+02 -0.77199626887E+02 -0.10853104035E+03  0.14926754117E+03  0.00000000000E+00 0.  1.
<scales pt_clust_3="39.74693" pt_clust_4="116.82239" pt_clust_5="32.66948" pt_clust_6="14000.00000"></scales>
<clustering>
<clus scale="   32.669">  2  5  1 -1</clus>
<clus scale="   39.747">  2  3  1 -1</clus>
<clus scale="  116.822">  2  4  1 -1</clus>
<clus scale="  116.822">  1  3  2 -1</clus>
</clustering>
</event>
<event>
 6    0  0.7442036E+002  0.9150688E+02  0.7546771E-02  0.1299243E+00
         21   -1    0    0  505  501  0.00000000000E+00  0.00000000000E+00  0.36985252666E+03  0.36985252666E+03  0.00000000000E+00 0. -1.
         21   -1    0    0  504  502 -0.00000000000E+00 -0.00000000000E+00 -0.65155655195E+03  0.65155655195E+03  0.00000000000E+00 0.  1.
         21    1    1    2  503  502  0.40134786600E+01 -0.43487304980E+02 -0.13624030870E+03  0.14306877864E+03  0.00000000000E+00 0.  1.
         21    1    1    2  504  506  0.77222304654E+02 -0.13351873104E+01 -0.48309312106E+03  0.48922799457E+03  0.00000000000E+00 0.  1.
         21    1    1    2  505  503  0.29937269074E+02  0.64268511284E+02  0.74727316346E+02  0.10300899684E+03  0.00000000000E+00 0. -1.
         21    1    1    2  506  501 -0.11117305239E+03 -0.19446018994E+02  0.26290208812E+03  0.28610330856E+03  0.00000000000E+00 0. -1.
<scales pt_clust_3="43.67212" pt_clust_4="14000.00000" pt_clust_5="69.85960" pt_clust_6="91.50688"></scales>
<clustering>
<clus scale="   43.672">  2  3  1 -1</clus>
<clus scale="   69.860">  1  5  2 -1</clus>
<clus scale="   91.507">  1  6  2 -1</clus>
<clus scale="   69.860">  1  3  2 -1</clus>
</clustering>
</event>
<event>
 6    0  0.7442036E+002  0.1265596E+03  0.7546771E-02  0.1232652E+00
         21   -1    0    0  503  501  0.00000000000E+00  0.00000000000E+00  0.32179840466E+03  0.32179840466E+03  0.00000000000E+00 0.  1.
         21   -1    0    0  505  502 -0.00000000000E+00 -0.00000000000E+00 -0.57013360103E+03  0.57013360103E+03  0.00000000000E+00 0. -1.
         21    1    1    2  503  504  0.36387021326E+02  0.13192288940E+03  0.20206312601E+02  0.13833278403E+03  0.00000000000E+00 0.  1.
         21    1    1    2  504  502  0.12585433833E+02  0.62582958920E+02 -0.65009887032E+02  0.91111499296E+02  0.00000000000E+00 0.  1.
         21    1    1    2  505  506  0.27393623515E+02 -0.17482860573E+03 -0.40725121682E+03  0.44403716690E+03  0.00000000000E+00 0. -1.
         21    1    1    2  506  501 -0.76366078675E+02 -0.19677242584E+02  0.20371959487E+03  0.21845055547E+03  0.00000000000E+00 0.  1.
<scales pt_clust_3="14000.00000" pt_clust_4="63.83588" pt_clust_5="126.55961" pt_clust_6="78.44901"></scales>
<clustering>
<clus scale="   63.836">  2  4  1 -1</clus>
<clus scale="   78.449">  1  6  2 -1</clus>
<clus scale="  126.560">  2  5  1 -1</clus>
<clus scale="   78.449">  1  3  2 -1</clus>
</clustering>
</event>
<event>
 6    0  0.7442036E+002  0.9737595E+02  0.7546771E-02  0.1285913E+00
         21   -1    0    0  504  501  0.00000000000E+00  0.00000000000E+00  0.14888275073E+04  0.14888275073E+04  0.00000000000E+00 0. -1.
         21   -1    0    0  506  502 -0.00000000000E+00 -0.00000000000E+00 -0.52441654567E+02  0.52441654567E+02  0.00000000000E+00 0. -1.
         21    1    1    2  503  501  0.90867514789E+01 -0.37678755671E+02  0.58746014155E+03  0.58873735706E+03  0.00000000000E+00 0. -1.
         21    1    1    2  504  502 -0.68125208638E+02 -0.42693884540E+01  0.71156449554E+03  0.71483096117E+03  0.00000000000E+00 0. -1.
         21    1    1    2  505  503  0.14220873105E+02 -0.50225819856E+02  0.12374961004E+03  0.13430871973E+03  0.00000000000E+00 0. -1.
         21    1    1    2  506  505  0.44817584054E+02  0.92173963981E+02  0.13611605587E+02  0.10339212389E+03  0.00000000000E+00 0. -1.
<scales pt_clust_3="38.75897" pt_clust_4="97.37595" pt_clust_5="57.74859" pt_clust_6="14000.00000"></scales>
<clustering>
<clus scale="   38.759">  1  3  2 -1</clus>
<clus scale="   57.749">  1  5  2 -1</clus>
<clus scale="   97.376">  1  4  2 -1</clus>
<clus scale="   38.759">  1  3  2 -1</clus>
</clustering>
</event>
<event>
 6    0  0.7442036E+002  0.1503337E+03  0.7546771E-02  0.1200064E+00
         21   -1    0    0  503  501  0.00000000000E+00  0.00000000000E+00  0.54496273574E+03  0.54496273574E+03  0.00000000000E+00 0.  1.
         21   -1    0    0  506  502 -0.00000000000E+00 -0.00000000000E+00 -0.63077215040E+03  0.63077215040E+03  0.00000000000E+00 0. -1.
         21    1    1    2  503  505  0.54006246155E+02  0.29627921738E+02  0.53359149612E+02  0.81496547275E+02  0.00000000000E+00 0.  1.
         21    1    1    2  504  501 -0.14061956914E+03  0.87628846968E+02  0.42260024999E+03  0.45392031166E+03  0.00000000000E+00 0.  1.
         21    1    1    2  505  502  0.17832977079E+02  0.87712069209E+02 -0.19516629587E+03  0.21471214497E+03  0.00000000000E+00 0. -1.
         21    1    1    2  506  504  0.68780345906E+02 -0.20496883792E+03 -0.36660251840E+03  0.42560588224E+03  0.00000000000E+00 0. -1.
<scales pt_clust_3="61.59942" pt_clust_4="14000.00000" pt_clust_5="90.32607" pt_clust_6="150.33371"></scales>
<clustering>
<clus scale="   61.599">  1  3  2 -1</clus>
<clus scale="   90.326">  2  5  1 -1</clus>
<clus scale="  150.334">  2  6  1 -1</clus>
<clus scale="   61.599">  1  3  2 -1</clus>
</clustering>
</event>
<event>
 6    0  0.7442036E+002  0.8412549E+02  0.7546771E-02  0.1317735E+00
         21   -1    0    0  502  501  0.00000000000E+00  0.00000000000E+00  0.78992239384E+03  0.78992239384E+03  0.00000000000E+00 0. -1.
         21   -1    0    0  506  502 -0.00000000000E+00 -0.00000000000E+00 -0.38576237952E+03  0.38576237952E+03  0.00000000000E+00 0. -1.
         21    1    1    2  503  505  0.51911558767E+02  0.23279777653E+02 -0.13036790308E+03  0.14224116189E+03  0.00000000000E+00 0. -1.
         21    1    1    2  504  501  0.63458123148E+02 -0.55272043935E+02  0.75415450689E+03  0.75883526045E+03  0.00000000000E+00 0. -1.
         21    1    1    2  505  504 -0.10625184506E+03  0.31921229339E+01 -0.83509738481E+02  0.13517958666E+03  0.00000000000E+00 0.  1.
         21    1    1    2  506  503 -0.91178368553E+01  0.28800143348E+02 -0.13611685101E+03  0.13942876437E+03  0.00000000000E+00 0. -1.
<scales pt_clust_3="61.06687" pt_clust_4="14000.00000" pt_clust_5="84.12549" pt_clust_6="30.20899"></scales>
<clustering>
<clus scale="   30.209">  2  6  1 -1</clus>
<clus scale="   61.067">  2  3  1 -1</clus>
<clus scale="   84.125">  2  5  1 -1</clus>
<clus scale="   84.125">  1  3  2 -1</clus>
</clustering>
</event>
<event>
 6    0  0.7442036E+002  0.1310172E+03  0.7546771E-02  0.1225954E+00
         21   -1    0    0  503  501  0.00000000000E+00  0.00000000000E+00  0.42577922545E+03  0.42577922545E+03  0.00000000000E+00 0.  1.
         21   -1    0    0  504  502 -0.00000000000E+00 -0.00000000000E+00 -0.40046602328E+03  0.40046602328E+03  0.00000000000E+00 0. -1.
         21    1    1    2  503  506  0.45015748651E+01  0.63581320798E+02 -0.12799283534E+03  0.14298606376E+03  0.00000000000E+00 0. -1.
         21    1    1    2  504  505 -0.28691291493E+02 -0.14262878027E+03  0.36087620459E+03  0.38909869469E+03  0.00000000000E+00 0.  1.
         21    1    1    2  505  501  0.29828972544E+02  0.18917921918E+02  0.31654289678E+02  0.47430469402E+02  0.00000000000E+00 0. -1.
         21    1    1    2  506  502 -0.56392559153E+01  0.60129537553E+02 -0.23922445676E+03  0.24673002089E+03  0.00000000000E+00 0. -1.
<scales pt_clust_3="40.34411" pt_clust_4="124.26215" pt_clust_5="35.32217" pt_clust_6="40.34411"></scales>
<clustering>
<clus scale="   35.322">  1  5  2 -1</clus>
<clus scale="   40.344">  3  6 -1 -1</clus>
<clus scale="  124.262">  1  4  2 -1</clus>
<clus scale="   35.322">  1  3  2 -1</clus>
</clustering>
</event>
<event>
 6    0  0.7442036E+002  0.1880730E+03  0.7546771E-02  0.1160211E+00
         21   -1    0    0  505  501  0.00000000000E+00  0.00000000000E+00  0.16982913379E+03  0.16982913379E+03  0.00000000000E+00 0. -1.
         21   -1    0    0  503  502 -0.00000000000E+00 -0.00000000000E+00 -0.33798893279E+03  0.33798893279E+03  0.00000000000E+00 0. -1.
         21    1    1    2  503  506  0.10572770538E+03 -0.53201643533E+02 -0.44019814396E+02  0.12627947822E+03  0.00000000000E+00 0. -1.
         21    1    1    2  504  502 -0.88078421651E+02  0.18167638916E+03 -0.10026700016E+03  0.22542757165E+03  0.00000000000E+00 0. -1.
         21    1    1    2  505  504 -0.50875684382E+02 -0.81490712792E+02 -0.21894617999E+02  0.98531445894E+02  0.00000000000E+00 0. -1.
         21    1    1    2  506  501  0.33226400655E+02 -0.46984032835E+02 -0.19783664380E+01  0.57579570819E+02  0.00000000000E+00 0. -1.
<scales pt_clust_3="33.75074" pt_clust_4="181.73761" pt_clust_5="96.06806" pt_clust_6="33.75074"></scales>
<clustering>
<clus scale="   33.751">  3  6 -1 -1</clus>
<clus scale="   96.068">  1  5  2 -1</clus>
<clus scale="  181.738">  2  4  1 -1</clus>
<clus scale="   96.068">  1  3  2 -1</clus>
</clustering>
</event>
<event>
 6    0  0.7442036E+002  0.1050746E+03  0.7546771E-02  0.1269973E+00
         21   -1    0    0  506  501  0.00000000000E+00  0.00000000000E+00  0.91236989578E+02  0.91236989578E+02  0.00000000000E+00 0.  1.
         21   -1    0    0  504  502 -0.00000000000E+00 -0.00000000000E+00 -0.92844645277E+03  0.92844645277E+03  0.00000000000E+00 0.  1.
         21    1    1    2  503  502 -0.15813325335E+02  0.40662439853E+02 -0.38683558287E+03  0.38928814963E+03  0.00000000000E+00 0.  1.
         21    1    1    2  504  501 -0.11202717222E+03 -0.59522849553E+02 -0.23067941415E+02  0.12893869417E+03  0.00000000000E+00 0.  1.
         21    1    1    2  505  503  0.48263298670E+02 -0.21067010141E+02 -0.40666839253E+03  0.41006383210E+03  0.00000000000E+00 0.  1.
         21    1    1    2  506  505  0.79577198881E+02  0.39927419841E+02 -0.20637546377E+02  0.91392766439E+02  0.00000000000E+00 0.  1.
<scales pt_clust_3="43.62906" pt_clust_4="105.07461" pt_clust_5="37.57651" pt_clust_6="14000.00000"></scales>
<clustering>
<clus scale="   43.629">  2  3  1 -1</clus>
<clus scale="   37.577">  2  5  1 -1</clus>
<clus scale="  105.075">  2  4  1 -1</clus>
<clus scale="  105.075">  1  3  2 -1</clus>
</clustering>
</event>
<event>
 6    0  0.7442036E+002  0.1444371E+03  0.7546771E-02  0.1207480E+00
         21   -1    0    0  503  501  0.00000000000E+00  0.00000000000E+00  0.48287978661E+02  0.48287978661E+02  0.00000000000E+00 0.  1.
         21   -1    0    0  506  502 -0.00000000000E+00 -0.00000000000E+00 -0.10996243679E+04  0.10996243679E+04  0.00000000000E+00 0.  1.
         21    1    1    2  503  505 -0.15365184065E+03  0.33577081046E+02 -0.16541459039E+03  0.22825050979E+03  0.00000000000E+00 0.  1.
         21    1    1    2  504  501  0.16022241285E+02 -0.26718408982E+02 -0.28994418876E+02  0.42558922922E+02  0.00000000000E+00 0. -1.
         21    1    1    2  505  502 -0.87724326835E+01  0.33388357700E+02 -0.13145709131E+03  0.13591432913E+03  0.00000000000E+00 0. -1.
         21    1    1    2  506  504  0.14640203205E+03 -0.40247029764E+02 -0.72547028866E+03  0.74118858472E+03  0.00000000000E+00 0.  1.
<scales pt_clust_3="144.43713" pt_clust_4="31.15422" pt_clust_5="32.91873" pt_clust_6="14000.00000"></scales>
<clustering>
<clus scale="   31.154">  1  4  2 -1</clus>
<clus scale="   32.919">  2  5  1 -1</clus>
<clus scale="  144.437">  1  3  2 -1</clus>
<clus scale="   31.154">  1  3  2 -1</clus>
</clustering>
</event>
<event>
 6    0  0.7442036E+002  0.2039289E+03  0.7546771E-02  0.1146466E+00
         21   -1    0    0  504  501  0.00000000000E+00  0.00000000000E+00  0.12602334941E+04  0.12602334941E+04  0.00000000000E+00 0.  1.
         21   -1    0    0  503  502 -0.00000000000E+00 -0.00000000000E+00 -0.10881026207E+03  0.10881026207E+03  0.00000000000E+00 0.  1.
         21    1    1    2  503  506 -0.11159137097E+03  0.97019091051E+02  0.10665194672E+02  0.14825344678E+03  0.00000000000E+00 0.  1.
         21    1    1    2  504  502  0.95319632155E+02 -0.24697153798E+03  0.67864517957E+03  0.72845044622E+03  0.00000000000E+00 0.  1.
         21    1    1    2  505  501  0.40470214426E+02  0.64853321693E+02  0.27393734203E+03  0.28440369012E+03  0.00000000000E+00 0.  1.
         21    1    1    2  506  505 -0.24198475610E+02  0.85099125232E+02  0.18817551578E+03  0.20793617308E+03  0.00000000000E+00 0.  1.
<scales pt_clust_3="147.86933" pt_clust_4="188.38057" pt_clust_5="72.59800" pt_clust_6="72.59800"></scales>
<clustering>
<clus scale="   72.598">  5  6 -1 -1</clus>
<clus scale="  147.869">  2  3  1 -1</clus>
<clus scale="  188.381">  2  4  1 -1</clus>
<clus scale="  203.929">  1  3  2 -1</clus>
</clustering>
</event>
<event>
 6    0  0.7442036E+002  0.1634253E+03  0.7546771E-02  0.1184883E+00
         21   -1    0    0  503  501  0.00000000000E+00  0.00000000000E+00  0.53214498659E+03  0.53214498659E+03  0.00000000000E+00 0.  1.
         21   -1    0    0  506  502 -0.00000000000E+00 -0.00000000000E+00 -0.45555297669E+03  0.45555297669E+03  0.00000000000E+00 0.  1.
         21    1    1    2  503  504  0.55157541446E+02 -0.17951341755E+02  0.44046611488E+03  0.44426906646E+03  0.00000000000E+00 0.  1.
         21    1    1    2  504  502 -0.17198411982E+02  0.18001648718E+03 -0.61798425946E+02  0.19110407239E+03  0.00000000000E+00 0.  1.
         21    1    1    2  505  501 -0.80927934937E+01 -0.14817968129E+03 -0.24725650646E+03  0.28837214020E+03  0.00000000000E+00 0.  1.
         21    1    1    2  506  505 -0.29866335971E+02 -0.13885464137E+02 -0.54819172581E+02  0.63952684237E+02  0.00000000000E+00 0. -1.
<scales pt_clust_3="57.88963" pt_clust_4="14000.00000" pt_clust_5="163.42525" pt_clust_6="32.93636"></scales>
<clustering>
<clus scale="   32.936">  2  6  1 -1</clus>
<clus scale="   57.890">  1  3  2 -1</clus>
<clus scale="  163.425">  2  5  1 -1</clus>
<clus scale="   57.890">  1  3  2 -1</clus>
</clustering>
</event>
<event>
 6    0  0.7442036E+002  0.1428482E+03  0.7546771E-02  0.1209547E+00
         21   -1    0    0  503  501  0.00000000000E+00  0.00000000000E+00  0.27245914517E+03  0.27245914517E+03  0.00000000000E+00 0. -1.
         21   -1    0    0  506  502 -0.00000000000E+00 -0.00000000000E+00 -0.45205783867E+03  0.45205783867E+03  0.00000000000E+00 0. -1.
         21    1    1    2  503  504 -0.66555443287E+02  0.21892729746E+02  0.72624052318E+02  0.10091170211E+03  0.00000000000E+00 0. -1.
         21    1    1    2  504  502 -0.25574684014E+02  0.65163422387E+02 -0.19726961558E+02  0.72728873853E+02  0.00000000000E+00 0. -1.
         21    1    1    2  505  501  0.19667921169E+03  0.16003175386E+01  0.77906818692E+02  0.21155317470E+03  0.00000000000E+00 0. -1.
         21    1    1    2  506  505 -0.10454908439E+03 -0.88656469671E+02 -0.31040260295E+03  0.33932323318E+03  0.00000000000E+00 0. -1.
<scales pt_clust_3="71.64464" pt_clust_4="70.00240" pt_clust_5="142.84818" pt_clust_6="14000.00000"></scales>
<clustering>
<clus scale="   70.002">  2  4  1 -1</clus>
<clus scale="   71.645">  1  3  2 -1</clus>
<clus scale="  142.848">  1  5  2 -1</clus>
<clus scale="   71.645">  1  3  2 -1</clus>
</clustering>
</event>
<event>
 6    0  0.7442036E+002  0.1020908E+03  0.7546771E-02  0.1275960E+00
         21   -1    0    0  506  501  0.00000000000E+00  0.00000000000E+00  0.11623998986E+03  0.11623998986E+03  0.00000000000E+00 0. -1.
         21   -1    0    0  505  502 -0.00000000000E+00 -0.00000000000E+00 -0.79367809003E+03  0.79367809003E+03  0.00000000000E+00 0.  1.
         21    1    1    2  503  502 -0.93340874204E+02 -0.82972822825E+02 -0.55548003571E+03  0.56934618484E+03  0.00000000000E+00 0.  1.
         21    1    1    2  504  501  0.37183168898E+02 -0.55468900506E+02  0.64326220030E+02  0.92721354369E+02  0.00000000000E+00 0. -1.
         21    1    1    2  505  504  0.13679621854E+02  0.30161060467E+02 -0.93091008556E+02  0.98806667268E+02  0.00000000000E+00 0.  1.
         21    1    1    2  506  503  0.42478083452E+02  0.10828066286E+03 -0.93193275932E+02  0.14904387342E+03  0.00000000000E+00 0.  1.
<scales pt_clust_3="14000.00000" pt_clust_4="66.42632" pt_clust_5="33.11830" pt_clust_6="102.09081"></scales>
<clustering>
<clus scale="   33.118">  2  5  1 -1</clus>
<clus scale="   66.426">  1  4  2 -1</clus>
<clus scale="  102.091">  1  6  2 -1</clus>
<clus scale="   66.426">  1  3  2 -1</clus>
</clustering>
</event>
<event>
 6    0  0.7442036E+002  0.7581291E+02  0.7546771E-02  0.1341372E+00
         21   -1    0    0  504  501  0.00000000000E+00  0.00000000000E+00  0.29526838274E+03  0.29526838274E+03  0.00000000000E+00 0.  1.
         21   -1    0    0  506  502 -0.00000000000E+00 -0.00000000000E+00 -0.92701659456E+03  0.92701659456E+03  0.00000000000E+00 0.  1.
         21    1    1    2  503  505  0.50300061969E+02 -0.74475389534E+02 -0.30665272461E+02  0.94958089784E+02  0.00000000000E+00 0.  1.
         21    1    1    2  504  503 -0.66217939814E+02  0.36025206412E+02  0.25122016258E+03  0.26228648676E+03  0.00000000000E+00 0.  1.
         21    1    1    2  505  502  0.62408909859E+02  0.63961597648E+02 -0.64026698037E+03  0.64647332827E+03  0.00000000000E+00 0.  1.
         21    1    1    2  506  501 -0.46491032014E+02 -0.25511414526E+02 -0.21203612157E+03  0.21856707249E+03  0.00000000000E+00 0.  1.
<scales pt_clust_3="75.81291" pt_clust_4="14000.00000" pt_clust_5="45.69737" pt_clust_6="53.03064"></scales>
<clustering>
<clus scale="   53.031">  2  6  1 -1</clus>
<clus scale="   45.697">  2  5  1 -1</clus>
<clus scale="   75.813">  2  3  1 -1</clus>
<clus scale="   75.813">  1  3  2 -1</clus>
</clustering>
</event>
<event>
 6    0  0.7442036E+002  0.9671340E+02  0.7546771E-02  0.1287363E+00
         21   -1    0    0  506  501  0.00000000000E+00  0.00000000000E+00  0.31453435343E+02  0.31453435343E+02  0.00000000000E+00 0.  1.
         21   -1    0    0  505  502 -0.00000000000E+00 -0.00000000000E+00 -0.13658823491E+04  0.13658823491E+04  0.00000000000E+00 0.  1.
         21    1    1    2  503  502  0.33730478238E+02  0.10521877028E+03 -0.96730114425E+03  0.97359141247E+03  0.00000000000E+00 0.  1.
         21    1    1    2  504  501 -0.47826688556E+02 -0.14267056905E+02 -0.36709534079E+02  0.61955879005E+02  0.00000000000E+00 0.  1.
         21    1    1    2  505  504 -0.30648279150E+02 -0.66522176261E+01 -0.18638585470E+03  0.18900596776E+03  0.00000000000E+00 0.  1.
         21    1    1    2  506  503  0.44744489468E+02 -0.84299495748E+02 -0.14403238077E+03  0.17278252524E+03  0.00000000000E+00 0.  1.
<scales pt_clust_3="96.71340" pt_clust_4="51.21880" pt_clust_5="31.36190" pt_clust_6="14000.00000"></scales>
<clustering>
<clus scale="   31.362">  2  5  1 -1</clus>
<clus scale="   51.219">  1  4  2 -1</clus>
<clus scale="   96.713">  2  3  1 -1</clus>
<clus scale="   51.219">  1  3  2 -1</clus>
</clustering>
</event>
<event>
 6    0  0.7442036E+002  0.5529384E+02  0.7546771E-02  0.1418714E+00
         21   -1    0    0  505  501  0.00000000000E+00  0.00000000000E+00  0.12884136016E+03  0.12884136016E+03  0.00000000000E+00 0.  1.
         21   -1    0    0  504  502 -0.00000000000E+00 -0.00000000000E+00 -0.64544269332E+03  0.64544269332E+03  0.00000000000E+00 0.  1.
         21    1    1    2  503  501 -0.40023588867E+02  0.45053789091E+02  0.61473977792E+02  0.86085896190E+02  0.00000000000E+00 0.  1.
         21    1    1    2  504  503 -0.46547949295E+02  0.20568514526E+02 -0.78026715884E+02  0.93155481670E+02  0.00000000000E+00 0. -1.
         21    1    1    2  505  506  0.65244477256E+02  0.10024304320E+02  0.20089977059E+02  0.68999533823E+02  0.00000000000E+00 0.  1.
         21    1    1    2  506  502  0.21327060906E+02 -0.75646607938E+02 -0.52013857212E+03  0.52604314179E+03  0.00000000000E+00 0.  1.
<scales pt_clust_3="14000.00000" pt_clust_4="50.88984" pt_clust_5="55.29384" pt_clust_6="60.62555"></scales>
<clustering>
<clus scale="   50.890">  2  4  1 -1</clus>
<clus scale="   60.626">  2  6  1 -1</clus>
<clus scale="   55.294">  2  5  1 -1</clus>
<clus scale="   55.294">  1  3  2 -1</clus>
</clustering>
</event>
<event>
 6    0  0.7442036E+002  0.8594649E+02  0.7546771E-02  0.1312976E+00
         21   -1    0    0  506  501  0.00000000000E+00  0.00000000000E+00  0.73875174850E+03  0.73875174850E+03  0.00000000000E+00 0. -1.
         21   -1    0    0  503  502 -0.00000000000E+00 -0.00000000000E+00 -0.51566290038E+02  0.51566290038E+02  0.00000000000E+00 0. -1.
         21    1    1    2  503  501  0.77079007895E+02 -0.59767500637E+02  0.24454882609E+03  0.26328208433E+03  0.00000000000E+00 0.  1.
         21    1    1    2  504  505 -0.40054237653E+02 -0.43582615942E+02  0.53776648484E+01  0.59436568251E+02  0.00000000000E+00 0. -1.
         21    1    1    2  505  502 -0.28880962869E+02  0.13033579201E+02  0.13836289377E+02  0.34574949122E+02  0.00000000000E+00 0. -1.
         21    1    1    2  506  504 -0.81438073726E+01  0.90316537377E+02  0.42342267815E+03  0.43302443684E+03  0.00000000000E+00 0. -1.
<scales pt_clust_3="14000.00000" pt_clust_4="68.61893" pt_clust_5="31.68571" pt_clust_6="85.94649"></scales>
<clustering>
<clus scale="   31.686">  2  5  1 -1</clus>
<clus scale="   68.619">  2  4  1 -1</clus>
<clus scale="   85.946">  1  6  2 -1</clus>
<clus scale="   85.946">  1  3  2 -1</clus>
</clustering>
</event>
<event>
 6    0  0.7442036E+002  0.1164097E+03  0.7546771E-02  0.1249140E+00
         21   -1    0    0  504  501  0.00000000000E+00  0.00000000000E+00  0.84958931529E+03  0.84958931529E+03  0.00000000000E+00 0. -1.
         21   -1    0    0  505  502 -0.00000000000E+00 -0.00000000000E+00 -0.18560254529E+03  0.18560254529E+03  0.00000000000E+00 0. -1.
         21    1    1    2  503  506  0.26986844213E+02 -0.29701110732E+02  0.19506951459E+02  0.44620252066E+02  0.00000000000E+00 0. -1.
         21    1    1    2  504  503 -0.14792334246E+03  0.62807973010E+02  0.45066602282E+03  0.47846214149E+03  0.00000000000E+00 0. -1.
         21    1    1    2  505  501  0.96988456374E+02 -0.71647804307E+01  0.34417884912E+03  0.35765510612E+03  0.00000000000E+00 0. -1.
         21    1    1    2  506  502  0.23948041876E+02 -0.25942081848E+02 -0.15036505340E+03  0.15445436091E+03  0.00000000000E+00 0. -1.
<scales pt_clust_3="53.48602" pt_clust_4="14000.00000" pt_clust_5="116.40971" pt_clust_6="35.30581"></scales>
<clustering>
<clus scale="   35.306">  2  6  1 -1</clus>
<clus scale="   53.486">  2  3  1 -1</clus>
<clus scale="  116.410">  1  5  2 -1</clus>
<clus scale="  116.410">  1  3  2 -1</clus>
</clustering>
</event>
<event>
 6    0  0.7442036E+002  0.1080081E+03  0.7546771E-02  0.1264304E+00
         21   -1    0    0  503  501  0.00000000000E+00  0.00000000000E+00  0.10187533375E+04  0.10187533375E+04  0.00000000000E+00 0. -1.
         21   -1    0    0  504  502 -0.00000000000E+00 -0.00000000000E+00 -0.31794586463E+02  0.31794586463E+02  0.00000000000E+00 0. -1.
         21    1    1    2  503  505 -0.42794224253E+02  0.30307530618E+00  0.59814867333E+03  0.59967764081E+03  0.00000000000E+00 0. -1.
         21    1    1    2  504  501  0.41014956150E+02  0.97941353433E+02  0.27292783406E+03  0.29285548986E+03  0.00000000000E+00 0. -1.
         21    1    1    2  505  506 -0.18122817216E+02 -0.67831663083E+02  0.85568401030E+02  0.11068659483E+03  0.00000000000E+00 0. -1.
         21    1    1    2  506  502  0.19902085318E+02 -0.30412765656E+02  0.30313842629E+02  0.47328198464E+02  0.00000000000E+00 0. -1.
<scales pt_clust_3="42.79530" pt_clust_4="98.89844" pt_clust_5="31.23661" pt_clust_6="31.23661"></scales>
<clustering>
<clus scale="   31.237">  5  6 -1 -1</clus>
<clus scale="   42.795">  1  3  2 -1</clus>
<clus scale="   98.898">  1  4  2 -1</clus>
<clus scale="   42.795">  1  3  2 -1</clus>
</clustering>
</event>
<event>
 6    0  0.7442036E+002  0.9255788E+02  0.7546771E-02  0.1296773E+00
         21   -1    0    0  504  501  0.00000000000E+00  0.00000000000E+00  0.38977778046E+03  0.38977778046E+03  0.00000000000E+00 0.  1.
         21   -1    0    0  503  502 -0.00000000000E+00 -0.00000000000E+00 -0.35967886742E+03  0.35967886742E+03  0.00000000000E+00 0.  1.
         21    1    1    2  503  501 -0.83400052458E+02 -0.29720597429E+02 -0.27476419849E+03  0.28867671786E+03  0.00000000000E+00 0.  1.
         21    1    1    2  504  506 -0.18113003578E+02  0.24700830892E+02  0.21179486914E+03  0.21399831434E+03  0.00000000000E+00 0.  1.
         21    1    1    2  505  502  0.13862499523E+03 -0.43469323059E+01 -0.77829641668E+01  0.13891133739E+03  0.00000000000E+00 0.  1.
         21    1    1    2  506  505 -0.37111939195E+02  0.93666988434E+01  0.10085120655E+03  0.10787027830E+03  0.00000000000E+00 0.  1.
<scales pt_clust_3="92.55788" pt_clust_4="30.63025" pt_clust_5="14000.00000" pt_clust_6="53.45890"></scales>
<clustering>
<clus scale="   30.630">  1  4  2 -1</clus>
<clus scale="   53.459">  1  6  2 -1</clus>
<clus scale="   92.558">  2  3  1 -1</clus>
<clus scale="   30.630">  1  3  2 -1</clus>
</clustering>
</event>
<event>
 6    0  0.7442036E+002  0.1227899E+03  0.7546771E-02  0.1238564E+00
         21   -1    0    0  506  501  0.00000000000E+00  0.00000000000E+00  0.15280928321E+03  0.15280928321E+03  0.00000000000E+00 0.  1.
         21   -1    0    0  505  502 -0.00000000000E+00 -0.00000000000E+00 -0.33104538894E+03  0.33104538894E+03  0.00000000000E+00 0. -1.
         21    1    1    2  503  502  0.20667768768E+02 -0.23415385377E+02 -0.40399222791E+02  0.51064020018E+02  0.00000000000E+00 0.  1.
         21    1    1    2  504  503  0.24196145127E+02 -0.48864901091E+02 -0.97362511410E+01  0.55389769669E+02  0.00000000000E+00 0.  1.
         21    1    1    2  505  501 -0.92280319143E+02  0.10309493254E+03 -0.22562270935E+03  0.26466928305E+03  0.00000000000E+00 0. -1.
         21    1    1    2  506  504  0.47416405247E+02 -0.30814646067E+02  0.97522077542E+02  0.11273159942E+03  0.00000000000E+00 0.  1.
<scales pt_clust_3="30.09854" pt_clust_4="30.09854" pt_clust_5="116.17112" pt_clust_6="56.54961"></scales>
<clustering>
<clus scale="   30.099">  3  4 -1 -1</clus>
<clus scale="   56.550">  1  6  2 -1</clus>
<clus scale="  116.171">  2  5  1 -1</clus>
<clus scale="   56.550">  1  3  2 -1</clus>
</clustering>
</event>
<event>
 6    0  0.7442036E+002  0.1253059E+03  0.7546771E-02  0.1234592E+00
         21   -1    0    0  505  501  0.00000000000E+00  0.00000000000E+00  0.31361233603E+03  0.31361233603E+03  0.00000000000E+00 0. -1.
         21   -1    0    0  506  502 -0.00000000000E+00 -0.00000000000E+00 -0.14376971019E+03  0.14376971019E+03  0.00000000000E+00 0.  1.
         21    1    1    2  503  502  0.67568956516E+02 -0.21489699194E+02 -0.63143368598E+02  0.94944489329E+02  0.00000000000E+00 0.  1.
         21    1    1    2  504  501 -0.51045815219E+02  0.11087668623E+03  0.22283276230E+03  0.25407430952E+03  0.00000000000E+00 0. -1.
         21    1    1    2  505  503  0.20968145042E+02 -0.26729523554E+02 -0.32434154379E+01  0.34126972905E+02  0.00000000000E+00 0.  1.
         21    1    1    2  506  504 -0.37491286339E+02 -0.62657463479E+02  0.13396647564E+02  0.74236274468E+02  0.00000000000E+00 0.  1.
<scales pt_clust_3="31.63207" pt_clust_4="116.67579" pt_clust_5="31.63207" pt_clust_6="73.01749"></scales>
<clustering>
<clus scale="   31.632">  3  5 -1 -1</clus>
<clus scale="   73.017">  2  6  1 -1</clus>
<clus scale="  116.676">  1  4  2 -1</clus>
<clus scale="  116.676">  1  3  2 -1</clus>
</clustering>
</event>
<event>
 6    0  0.7442036E+002  0.1083014E+03  0.7546771E-02  0.1263748E+00
         21   -1    0    0  503  501  0.00000000000E+00  0.00000000000E+00  0.27000388519E+03  0.27000388519E+03  0.00000000000E+00 0. -1.
         21   -1    0    0  505  502 -0.00000000000E+00 -0.00000000000E+00 -0.21737895834E+03  0.21737895834E+03  0.00000000000E+00 0. -1.
         21    1    1    2  503  502  0.57309041968E+02  0.44161310005E+02 -0.14154800853E+03  0.15896662012E+03  0.00000000000E+00 0. -1.
         21    1    1    2  504  501 -0.10165691144E+03  0.31614012531E+02  0.20367423105E+03  0.22981898491E+03  0.00000000000E+00 0. -1.
         21    1    1    2  505  506  0.52611540708E+01 -0.44031258056E+02 -0.17384871756E+02  0.47630506969E+02  0.00000000000E+00 0. -1.
         21    1    1    2  506  504  0.39086715401E+02 -0.31744064479E+02  0.78835760922E+01  0.50966731527E+02  0.00000000000E+00 0. -1.
<scales pt_clust_3="72.35017" pt_clust_4="99.02867" pt_clust_5="41.14714" pt_clust_6="41.14714"></scales>
<clustering>
<clus scale="   41.147">  5  6 -1 -1</clus>
<clus scale="   72.350">  2  3  1 -1</clus>
<clus scale="   99.029">  1  4  2 -1</clus>
<clus scale="   99.029">  1  3  2 -1</clus>
</clustering>
</event>
<event>
 6    0  0.7442036E+002  0.1621770E+03  0.7546771E-02  0.1186261E+00
         21   -1    0    0  503  501  0.00000000000E+00  0.00000000000E+00  0.12780200510E+04  0.12780200510E+04  0.00000000000E+00 0.  1.
         21   -1    0    0  505  502 -0.00000000000E+00 -0.00000000000E+00 -0.14665569367E+03  0.14665569367E+03  0.00000000000E+00 0. -1.
         21    1    1    2  503  506 -0.18110540370E+03 -0.21689683399E+02  0.98649613548E+03  0.10032169431E+04  0.00000000000E+00 0.  1.
         21    1    1    2  504  501  0.12396411870E+03 -0.13172190111E+02  0.21931775521E+03  0.25227145512E+03  0.00000000000E+00 0. -1.
         21    1    1    2  505  504  0.97796886853E+02  0.36804378799E+02 -0.74762203421E+02  0.12848416415E+03  0.00000000000E+00 0. -1.
         21    1    1    2  506  502 -0.40655601856E+02 -0.19425052894E+01  0.31267009550E+00  0.40703182328E+02  0.00000000000E+00 0.  1.
<scales pt_clust_3="162.17704" pt_clust_4="14000.00000" pt_clust_5="74.05077" pt_clust_6="40.70198"></scales>
<clustering>
<clus scale="   40.702">  2  6  1 -1</clus>
<clus scale="   74.051">  2  5  1 -1</clus>
<clus scale="  162.177">  1  3  2 -1</clus>
<clus scale="  162.177">  1  3  2 -1</clus>
</clustering>
</event>
<event>
 6    0  0.7442036E+002  0.1517619E+03  0.7546771E-02  0.1198325E+00
         21   -1    0    0  505  501  0.00000000000E+00  0.00000000000E+00  0.85772883887E+03  0.85772883887E+03  0.00000000000E+00 0. -1.
         21   -1    0    0  504  502 -0.00000000000E+00 -0.00000000000E+00 -0.13736556204E+03  0.13736556204E+03  0.00000000000E+00 0. -1.
         21    1    1    2  503  506  0.27187802827E+02 -0.52004849165E+02 -0.57724894716E+01  0.58966113946E+02  0.00000000000E+00 0. -1.
         21    1    1    2  504  503  0.31001840974E+02 -0.33575045865E+00 -0.22842225700E+02  0.38509663035E+02  0.00000000000E+00 0. -1.
         21    1    1    2  505  502 -0.20315676768E+03  0.34406732831E+02  0.93872751520E+02  0.22642568096E+03  0.00000000000E+00 0. -1.
         21    1    1    2  506  501  0.14496712388E+03  0.17933866793E+02  0.65510524049E+03  0.67119294298E+03  0.00000000000E+00 0. -1.
<scales pt_clust_3="63.67265" pt_clust_4="31.00366" pt_clust_5="14000.00000" pt_clust_6="151.76186"></scales>
<clustering>
<clus scale="   31.004">  2  4  1 -1</clus>
<clus scale="   63.673">  2  3  1 -1</clus>
<clus scale="  151.762">  1  6  2 -1</clus>
<clus scale="  151.762">  1  3  2 -1</clus>
</clustering>
</event>
<event>
 6    0  0.7442036E+002  0.1576122E+03  0.7546771E-02  0.1191419E+00
         21   -1    0    0  503  501  0.00000000000E+00  0.00000000000E+00  0.16533068436E+03  0.16533068436E+03  0.00000000000E+00 0.  1.
         21   -1    0    0  506  502 -0.00000000000E+00 -0.00000000000E+00 -0.24880554093E+03  0.24880554093E+03  0.00000000000E+00 0. -1.
         21    1    1    2  503  504 -0.14954563416E+02 -0.33795371517E+02  0.57947158944E+02  0.68728737313E+02  0.00000000000E+00 0. -1.
         21    1    1    2  504  502 -0.13959674196E+03  0.27125251282E+00 -0.22500892001E+02  0.14139877682E+03  0.00000000000E+00 0.  1.
         21    1    1    2  505  501  0.49657271768E+02  0.24289396431E+02 -0.17949193485E+02  0.58120503827E+02  0.00000000000E+00 0. -1.
         21    1    1    2  506  505  0.10489403361E+03  0.92347225727E+01 -0.10097193002E+03  0.14588820734E+03  0.00000000000E+00 0. -1.
<scales pt_clust_3="36.95627" pt_clust_4="149.58032" pt_clust_5="35.99013" pt_clust_6="35.99013"></scales>
<clustering>
<clus scale="   35.990">  5  6 -1 -1</clus>
<clus scale="   36.956">  1  3  2 -1</clus>
<clus scale="  149.580">  1  4  2 -1</clus>
<clus scale="   36.956">  1  3  2 -1</clus>
</clustering>
</event>
<event>
 6    0  0.7442036E+002  0.1001657E+03  0.7546771E-02  0.1279948E+00
         21   -1    0    0  506  501  0.00000000000E+00  0.00000000000E+00  0.29680934550E+03  0.29680934550E+03  0.00000000000E+00 0.  1.
         21   -1    0    0  503  502 -0.00000000000E+00 -0.00000000000E+00 -0.50358156198E+03  0.50358156198E+03  0.00000000000E+00 0. -1.
         21    1    1    2  503  505 -0.50764594166E+02 -0.13045532751E+03 -0.17301839848E+03  0.22255561711E+03  0.00000000000E+00 0. -1.
         21    1    1    2  504  502 -0.19553403511E+01  0.50984463559E+02 -0.27473863265E+03  0.27943613788E+03  0.00000000000E+00 0. -1.
         21    1    1    2  505  501 -0.23099892004E+02  0.20075373123E+02 -0.78328372634E+01  0.31590804931E+02  0.00000000000E+00 0. -1.
         21    1    1    2  506  504  0.75819826521E+02  0.59395490831E+02  0.24881765192E+03  0.26680834756E+03  0.00000000000E+00 0.  1.
<scales pt_clust_3="100.16571" pt_clust_4="51.19494" pt_clust_5="30.60434" pt_clust_6="14000.00000"></scales>
<clustering>
<clus scale="   30.604">  1  5  2 -1</clus>
<clus scale="   51.195">  2  4  1 -1</clus>
<clus scale="  100.166">  2  3  1 -1</clus>
<clus scale="   30.604">  1  3  2 -1</clus>
</clustering>
</event>
<event>
 6    0  0.7442036E+002  0.1237520E+03  0.7546771E-02  0.1237033E+00
         21   -1    0    0  503  501  0.00000000000E+00  0.00000000000E+00  0.56598978075E+03  0.56598978075E+03  0.00000000000E+00 0.  1.
         21   -1    0    0  504  502 -0.00000000000E+00 -0.00000000000E+00 -0.50796583581E+02  0.50796583581E+02  0.00000000000E+00 0.  1.
         21    1    1    2  503  502  0.32497064601E+02  0.17060528555E+02  0.19150968021E+03  0.19499507290E+03  0.00000000000E+00 0.  1.
         21    1    1    2  504  505 -0.69012232680E+01  0.70358491545E+02  0.73066733035E+02  0.10166952194E+03  0.00000000000E+00 0.  1.
         21    1    1    2  505  506 -0.94060928515E+01  0.36576369128E+02 -0.24498835909E+01  0.37845835847E+02  0.00000000000E+00 0.  1.
         21    1    1    2  506  501 -0.16189748481E+02 -0.12399538923E+03  0.25306666751E+03  0.28227593364E+03  0.00000000000E+00 0.  1.
<scales pt_clust_3="36.70314" pt_clust_4="37.77085" pt_clust_5="37.77085" pt_clust_6="111.97216"></scales>
<clustering>
<clus scale="   36.703">  1  3  2 -1</clus>
<clus scale="   37.771">  4  5 -1 -1</clus>
<clus scale="  111.972">  1  6  2 -1</clus>
<clus scale="   36.703">  1  3  2 -1</clus>
</clustering>
</event>
<event>
 6    0  0.7442036E+002  0.1553294E+03  0.7546771E-02  0.1194073E+00
         21   -1    0    0  506  501  0.00000000000E+00  0.00000000000E+00  0.93093446244E+02  0.93093446244E+02  0.00000000000E+00 0. -1.
         21   -1    0    0  505  502 -0.00000000000E+00 -0.00000000000E+00 -0.33493520267E+04  0.33493520267E+04  0.00000000000E+00 0.  1.
         21    1    1    2  503  502  0.74347179171E+02  0.33728062985E+02 -0.24441286338E+04  0.24454917428E+04  0.00000000000E+00 0.  1.
         21    1    1    2  504  501  0.27399383220E+02 -0.19218333698E+03 -0.19645026183E+03  0.27618447926E+03  0.00000000000E+00 0. -1.
         21    1    1    2  505  504 -0.47653604379E+02  0.28236329486E+02 -0.56979981116E+03  0.57248579119E+03  0.00000000000E+00 0. -1.
         21    1    1    2  506  503 -0.54092958011E+02  0.13021894451E+03 -0.45879873612E+02  0.14828345969E+03  0.00000000000E+00 0. -1.
<scales pt_clust_3="66.94542" pt_clust_4="155.32944" pt_clust_5="55.39094" pt_clust_6="14000.00000"></scales>
<clustering>
<clus scale="   55.391">  2  5  1 -1</clus>
<clus scale="   66.945">  2  3  1 -1</clus>
<clus scale="  155.329">  2  4  1 -1</clus>
<clus scale="  155.329">  1  3  2 -1</clus>
</clustering>
</event>
<event>
 6    0  0.7442036E+002  0.1697575E+03  0.7546771E-02  0.1178101E+00
         21   -1    0    0  506  501  0.00000000000E+00  0.00000000000E+00  0.19925384648E+03  0.19925384648E+03  0.00000000000E+00 0. -1.
         21   -1    0    0  503  502 -0.00000000000E+00 -0.00000000000E+00 -0.18619368155E+03  0.18619368155E+03  0.00000000000E+00 0. -1.
         21    1    1    2  503  504 -0.47758322399E+02  0.21646751403E+02 -0.10317466448E+02  0.53440521317E+02  0.00000000000E+00 0. -1.
         21    1    1    2  504  505 -0.53255826455E+02  0.95455071797E+02 -0.24504724097E+02  0.11201935228E+03  0.00000000000E+00 0. -1.
         21    1    1    2  505  501  0.37062257411E+01  0.29826299801E+02  0.30634672155E+02  0.42916516717E+02  0.00000000000E+00 0. -1.
         21    1    1    2  506  502  0.97307923113E+02 -0.14692812300E+03  0.17247683322E+02  0.17707113771E+03  0.00000000000E+00 0. -1.
<scales pt_clust_3="32.28331" pt_clust_4="32.28331" pt_clust_5="30.05569" pt_clust_6="163.00285"></scales>
<clustering>
<clus scale="   30.056">  1  5  2 -1</clus>
<clus scale="   32.283">  3  4 -1 -1</clus>
<clus scale="  163.003">  1  6  2 -1</clus>
<clus scale="   30.056">  1  3  2 -1</clus>
</clustering>
</event>
<event>
 6    0  0.7442036E+002  0.1347742E+03  0.7546771E-02  0.1220539E+00
         21   -1    0    0  505  501  0.00000000000E+00  0.00000000000E+00  0.35358977572E+03  0.35358977572E+03  0.00000000000E+00 0.  1.
         21   -1    0    0  503  502 -0.00000000000E+00 -0.00000000000E+00 -0.67833553706E+03  0.67833553706E+03  0.00000000000E+00 0.  1.
         21    1    1    2  503  506 -0.35995057893E+02  0.97345484339E+02 -0.20572389028E+03  0.23042158438E+03  0.00000000000E+00 0.  1.
         21    1    1    2  504  502 -0.41621582074E+02  0.21439450849E+02 -0.43770216243E+03  0.44019903355E+03  0.00000000000E+00 0.  1.
         21    1    1    2  505  504  0.85730801097E+02 -0.63992945255E+02  0.25715136602E+03  0.27851695163E+03  0.00000000000E+00 0.  1.
         21    1    1    2  506  501 -0.81141611298E+01 -0.54791989933E+02  0.61528925349E+02  0.82787743213E+02  0.00000000000E+00 0.  1.
<scales pt_clust_3="14000.00000" pt_clust_4="46.81887" pt_clust_5="134.77422" pt_clust_6="54.75394"></scales>
<clustering>
<clus scale="   46.819">  2  4  1 -1</clus>
<clus scale="   54.754">  1  6  2 -1</clus>
<clus scale="  134.774">  1  5  2 -1</clus>
<clus scale="   54.754">  1  3  2 -1</clus>
</clustering>
</event>
<event>
 6    0  0.7442036E+002  0.1335836E+03  0.7546771E-02  0.1222233E+00
         21   -1    0    0  504  501  0.00000000000E+00  0.00000000000E+00  0.12632020519E+04  0.12632020519E+04  0.00000000000E+00 0. -1.
         21   -1    0    0  506  502 -0.00000000000E+00 -0.00000000000E+00 -0.33211380741E+02  0.33211380741E+02  0.00000000000E+00 0.  1.
         21    1    1    2  503  501 -0.21167346157E+02 -0.79501527183E+02  0.77963372247E+02  0.11334388726E+03  0.00000000000E+00 0.  1.
         21    1    1    2  504  505 -0.32098746359E+02 -0.15752811381E+01  0.29804201360E+03  0.29976966641E+03  0.00000000000E+00 0.  1.
         21    1    1    2  505  502  0.31225871493E+02  0.12664434530E+03  0.79475240540E+03  0.80538514460E+03  0.00000000000E+00 0. -1.
         21    1    1    2  506  503  0.22040221023E+02 -0.45567536979E+02  0.59232879900E+02  0.77914734360E+02  0.00000000000E+00 0.  1.
<scales pt_clust_3="35.54028" pt_clust_4="32.13738" pt_clust_5="125.42150" pt_clust_6="35.54028"></scales>
<clustering>
<clus scale="   32.137">  1  4  2 -1</clus>
<clus scale="   35.540">  3  6 -1 -1</clus>
<clus scale="  125.422">  1  5  2 -1</clus>
<clus scale="   32.137">  1  3  2 -1</clus>
</clustering>
</event>
<event>
 6    0  0.7442036E+002  0.8763143E+02  0.7546771E-02  0.1308691E+00
         21   -1    0    0  506  501  0.00000000000E+00  0.00000000000E+00  0.49949174930E+02  0.49949174930E+02  0.00000000000E+00 0. -1.
         21   -1    0    0  504  502 -0.00000000000E+00 -0.00000000000E+00 -0.18630810956E+04  0.18630810956E+04  0.00000000000E+00 0.  1.
         21    1    1    2  503  502 -0.52312825889E+02 -0.81958388562E+02 -0.21025264278E+02  0.99477992271E+02  0.00000000000E+00 0. -1.
         21    1    1    2  504  505  0.53908478623E+02 -0.19552130098E+02 -0.54563839731E+03  0.54864348212E+03  0.00000000000E+00 0.  1.
         21    1    1    2  505  501  0.32152730839E+02  0.55142890179E+02 -0.11562189767E+04  0.11579796452E+04  0.00000000000E+00 0.  1.
         21    1    1    2  506  503 -0.33748383573E+02  0.46367628481E+02 -0.90249282353E+02  0.10692915098E+03  0.00000000000E+00 0.  1.
<scales pt_clust_3="14000.00000" pt_clust_4="57.34466" pt_clust_5="87.63143" pt_clust_6="53.84164"></scales>
<clustering>
<clus scale="   57.345">  2  4  1 -1</clus>
<clus scale="   53.842">  1  6  2 -1</clus>
<clus scale="   87.631">  2  5  1 -1</clus>
<clus scale="   53.842">  1  3  2 -1</clus>
</clustering>
</event>
<event>
 6    0  0.7442036E+002  0.1391401E+03  0.7546771E-02  0.1214491E+00
         21   -1    0    0  506  501  0.00000000000E+00  0.00000000000E+00  0.40916654288E+03  0.40916654288E+03  0.00000000000E+00 0. -1.
         21   -1    0    0  503  502 -0.00000000000E+00 -0.00000000000E+00 -0.24544489555E+03  0.24544489555E+03  0.00000000000E+00 0.  1.
         21    1    1    2  503  505 -0.21131725737E+02  0.87533477446E+02 -0.15983854093E+03  0.18345849306E+03  0.00000000000E+00 0.  1.
         21    1    1    2  504  501  0.38726609732E+02 -0.68771533404E+02  0.32611358005E+03  0.33552845066E+03  0.00000000000E+00 0. -1.
         21    1    1    2  505  504 -0.27288755186E+01  0.46980504997E+02 -0.37062239043E+02  0.59901787738E+02  0.00000000000E+00 0.  1.
         21    1    1    2  506  502 -0.14866008477E+02 -0.65742449038E+02  0.34508847255E+02  0.75722706980E+02  0.00000000000E+00 0.  1.
<scales pt_clust_3="30.59365" pt_clust_4="132.54812" pt_clust_5="30.59365" pt_clust_6="67.40228"></scales>
<clustering>
<clus scale="   30.594">  3  5 -1 -1</clus>
<clus scale="   67.402">  1  6  2 -1</clus>
<clus scale="  132.548">  1  4  2 -1</clus>
<clus scale="   67.402">  1  3  2 -1</clus>
</clustering>
</event>
<event>
 6    0  0.7442036E+002  0.1206451E+03  0.7546771E-02  0.1242037E+00
         21   -1    0    0  506  501  0.00000000000E+00  0.00000000000E+00  0.78741798490E+02  0.78741798490E+02  0.00000000000E+00 0.  1.
         21   -1    0    0  503  502 -0.00000000000E+00 -0.00000000000E+00 -0.15402521787E+04  0.15402521787E+04  0.00000000000E+00 0. -1.
         21    1    1    2  503  501  0.20399463832E+02  0.25701957410E+02 -0.61581543375E+02  0.69778329184E+02  0.00000000000E+00 0.  1.
         21    1    1    2  504  502 -0.29059469710E+02 -0.44977071417E+02 -0.20577336280E+03  0.21262658952E+03  0.00000000000E+00 0. -1.
         21    1    1    2  505  504 -0.52857407508E+02 -0.52362426120E+02 -0.12324494559E+04  0.12346932374E+04  0.00000000000E+00 0. -1.
         21    1    1    2  506  505  0.61517413386E+02  0.71637540127E+02  0.38293981854E+02  0.10189582107E+03  0.00000000000E+00 0.  1.
<scales pt_clust_3="32.81355" pt_clust_4="52.04898" pt_clust_5="120.64511" pt_clust_6="14000.00000"></scales>
<clustering>
<clus scale="   32.814">  1  3  2 -1</clus>
<clus scale="   52.049">  2  4  1 -1</clus>
<clus scale="  120.645">  2  5  1 -1</clus>
<clus scale="   32.814">  1  3  2 -1</clus>
</clustering>
</event>
<event>
 6    0  0.7442036E+002  0.1592097E+03  0.7546771E-02  0.1189592E+00
         21   -1    0    0  503  501  0.00000000000E+00  0.00000000000E+00  0.94430341146E+03  0.94430341146E+03  0.00000000000E+00 0.  1.
         21   -1    0    0  504  502 -0.00000000000E+00 -0.00000000000E+00 -0.19898072241E+03  0.19898072241E+03  0.00000000000E+00 0.  1.
         21    1    1    2  503  502  0.58655213103E+02  0.12218774550E+03 -0.12121074889E+03  0.18183048375E+03  0.00000000000E+00 0.  1.
         21    1    1    2  504  505  0.42935447824E+02 -0.28142019792E+01  0.27319310982E+00  0.43028444628E+02  0.00000000000E+00 0.  1.
         21    1    1    2  505  506 -0.15957313244E+03 -0.13915662490E+03  0.44578626410E+03  0.49351144274E+03  0.00000000000E+00 0.  1.
         21    1    1    2  506  501  0.57982471513E+02  0.19783081380E+02  0.42047398073E+03  0.42491376276E+03  0.00000000000E+00 0.  1.
<scales pt_clust_3="14000.00000" pt_clust_4="43.02758" pt_clust_5="159.20967" pt_clust_6="61.76138"></scales>
<clustering>
<clus scale="   43.028">  2  4  1 -1</clus>
<clus scale="   61.761">  1  6  2 -1</clus>
<clus scale="  159.210">  1  5  2 -1</clus>
<clus scale="   61.761">  1  3  2 -1</clus>
</clustering>
</event>
<event>
 6    0  0.7442036E+002  0.9597026E+02  0.7546771E-02  0.1289006E+00
         21   -1    0    0  504  501  0.00000000000E+00  0.00000000000E+00  0.10338195427E+03  0.10338195427E+03  0.00000000000E+00 0. -1.
         21   -1    0    0  505  502 -0.00000000000E+00 -0.00000000000E+00 -0.80438585945E+03  0.80438585945E+03  0.00000000000E+00 0.  1.
         21    1    1    2  503  502  0.13625381044E+03 -0.32366650454E+02 -0.57110459989E+03  0.58802479960E+03  0.00000000000E+00 0.  1.
         21    1    1    2  504  503  0.13145512490E+02  0.31521029434E+02  0.51846656989E+02  0.62084262386E+02  0.00000000000E+00 0. -1.
         21    1    1    2  505  506 -0.63651042662E+02 -0.27053243279E+02 -0.14430359402E+03  0.16002143747E+03  0.00000000000E+00 0.  1.
         21    1    1    2  506  501 -0.85748280265E+02  0.27898864300E+02 -0.37442368255E+02  0.97637314272E+02  0.00000000000E+00 0.  1.
<scales pt_clust_3="95.97026" pt_clust_4="34.15230" pt_clust_5="65.15113" pt_clust_6="14000.00000"></scales>
<clustering>
<clus scale="   34.152">  1  4  2 -1</clus>
<clus scale="   65.151">  2  5  1 -1</clus>
<clus scale="   95.970">  2  3  1 -1</clus>
<clus scale="   34.152">  1  3  2 -1</clus>
</clustering>
</event>
<event>
 6    0  0.7442036E+002  0.1157763E+03  0.7546771E-02  0.1250232E+00
         21   -1    0    0  505  501  0.00000000000E+00  0.00000000000E+00  0.15798479494E+04  0.15798479494E+04  0.00000000000E+00 0.  1.
         21   -1    0    0  503  502 -0.00000000000E+00 -0.00000000000E+00 -0.34578522380E+02  0.34578522380E+02  0.00000000000E+00 0. -1.
         21    1    1    2  503  504 -0.19292574356E+02 -0.91060844268E+02  0.69980148608E+02  0.11645386204E+03  0.00000000000E+00 0. -1.
         21    1    1    2  504  506 -0.43514480664E+02  0.12468118357E+03  0.67175589425E+03  0.68461294833E+03  0.00000000000E+00 0.  1.
         21    1    1    2  505  502  0.24525648276E+02 -0.30262231569E+02  0.81769722304E+02  0.90573713452E+02  0.00000000000E+00 0. -1.
         21    1    1    2  506  501  0.38281406745E+02 -0.33581077341E+01  0.72176366189E+03  0.72278594799E+03  0.00000000000E+00 0.  1.
<scales pt_clust_3="115.77633" pt_clust_4="14000.00000" pt_clust_5="41.72920" pt_clust_6="38.42841"></scales>
<clustering>
<clus scale="   38.428">  1  6  2 -1</clus>
<clus scale="   41.729">  2  5  1 -1</clus>
<clus scale="  115.776">  2  3  1 -1</clus>
<clus scale="   38.428">  1  3  2 -1</clus>
</clustering>
</event>
<event>
 6    0  0.7442036E+002  0.2078328E+03  0.7546771E-02  0.1143294E+00
         21   -1    0    0  505  501  0.00000000000E+00  0.00000000000E+00  0.22533432870E+03  0.22533432870E+03  0.00000000000E+00 0.  1.
         21   -1    0    0  503  502 -0.00000000000E+00 -0.00000000000E+00 -0.42682539580E+03  0.42682539580E+03  0.00000000000E+00 0. -1.
         21    1    1    2  503  501 -0.10052578653E+03 -0.15293413619E+02 -0.18081439011E+02  0.10327759048E+03  0.00000000000E+00 0. -1.
         21    1    1    2  504  506  0.10022617174E+03 -0.13225367836E+02 -0.11494854891E+03  0.15307960267E+03  0.00000000000E+00 0. -1.
         21    1    1    2  505  504 -0.82827586861E+02 -0.60136345883E+02  0.12854968982E+03  0.16432228089E+03  0.00000000000E+00 0.  1.
         21    1    1    2  506  502  0.83127201648E+02  0.88655127338E+02 -0.19701076899E+03  0.23148025047E+03  0.00000000000E+00 0. -1.
<scales pt_clust_3="101.68246" pt_clust_4="96.77904" pt_clust_5="178.70345" pt_clust_6="96.77904"></scales>
<clustering>
<clus scale="   96.779">  4  6 -1 -1</clus>
<clus scale="  101.682">  1  3  2 -1</clus>
<clus scale="  178.703">  1  5  2 -1</clus>
<clus scale="  101.682">  1  3  2 -1</clus>
</clustering>
</event>
<event>
 6    0  0.7442036E+002  0.1029963E+03  0.7546771E-02  0.1274118E+00
         21   -1    0    0  506  501  0.00000000000E+00  0.00000000000E+00  0.42420017737E+03  0.42420017737E+03  0.00000000000E+00 0. -1.
         21   -1    0    0  504  502 -0.00000000000E+00 -0.00000000000E+00 -0.12731853333E+03  0.12731853333E+03  0.00000000000E+00 0.  1.
         21    1    1    2  503  501  0.29084659729E+02 -0.23097902906E+02  0.92077883130E+02  0.99286288640E+02  0.00000000000E+00 0. -1.
         21    1    1    2  504  503 -0.58669747920E+02 -0.44845769492E+02 -0.83127304940E+02  0.11119096721E+03  0.00000000000E+00 0.  1.
         21    1    1    2  505  502 -0.94787895108E+01 -0.38304193281E+02  0.96581008215E+01  0.40624347194E+02  0.00000000000E+00 0.  1.
         21    1    1    2  506  505  0.39063877702E+02  0.10624786568E+03  0.27827296503E+03  0.30041710765E+03  0.00000000000E+00 0. -1.
<scales pt_clust_3="37.14069" pt_clust_4="102.99631" pt_clust_5="40.72296" pt_clust_6="14000.00000"></scales>
<clustering>
<clus scale="   37.141">  1  3  2 -1</clus>
<clus scale="   40.723">  2  5  1 -1</clus>
<clus scale="  102.996">  2  4  1 -1</clus>
<clus scale="   37.141">  1  3  2 -1</clus>
</clustering>
</event>
<event>
 6    0  0.7442036E+002  0.1658116E+03  0.7546771E-02  0.1182287E+00
         21   -1    0    0  503  501  0.00000000000E+00  0.00000000000E+00  0.12301998818E+03  0.12301998818E+03  0.00000000000E+00 0. -1.
         21   -1    0    0  506  502 -0.00000000000E+00 -0.00000000000E+00 -0.16858862955E+04  0.16858862955E+04  0.00000000000E+00 0.  1.
         21    1    1    2  503  504 -0.65456979330E+02 -0.56056678137E+02 -0.84683012823E+02  0.12082292815E+03  0.00000000000E+00 0. -1.
         21    1    1    2  504  505 -0.35814869929E+02  0.40457591735E+02 -0.36646120492E+03  0.37042318549E+03  0.00000000000E+00 0. -1.
         21    1    1    2  505  502 -0.98078543429E+02  0.44047147810E+02 -0.11110994889E+04  0.11162892215E+04  0.00000000000E+00 0.  1.
         21    1    1    2  506  501  0.19935039269E+03 -0.28448061408E+02 -0.62260068476E+00  0.20137094849E+03  0.00000000000E+00 0. -1.
<scales pt_clust_3="86.17985" pt_clust_4="32.17307" pt_clust_5="32.17307" pt_clust_6="159.47975"></scales>
<clustering>
<clus scale="   32.173">  4  5 -1 -1</clus>
<clus scale="   86.180">  1  3  2 -1</clus>
<clus scale="  159.480">  1  6  2 -1</clus>
<clus scale="   86.180">  1  3  2 -1</clus>
</clustering>
</event>
<event>
 6    0  0.7442036E+002  0.9668667E+02  0.7546771E-02  0.1287422E+00
         21   -1    0    0  505  501  0.00000000000E+00  0.00000000000E+00  0.57030355094E+02  0.57030355094E+02  0.00000000000E+00 0.  1.
         21   -1    0    0  504  502 -0.00000000000E+00 -0.00000000000E+00 -0.52230014226E+03  0.52230014226E+03  0.00000000000E+00 0.  1.
         21    1    1    2  503  506 -0.43317735916E+02  0.10231040865E+03 -0.27436497382E+03  0.29600673105E+03  0.00000000000E+00 0.  1.
         21    1    1    2  504  501  0.25857305198E+02 -0.74826809871E+02 -0.47885931153E+02  0.92524127178E+02  0.00000000000E+00 0.  1.
         21    1    1    2  505  503 -0.13994331150E+02 -0.28086782681E+02  0.11265009871E+02  0.33340802526E+02  0.00000000000E+00 0.  1.
         21    1    1    2  506  502  0.31454761868E+02  0.60318389748E+00 -0.15428389206E+03  0.15745883660E+03  0.00000000000E+00 0.  1.
<scales pt_clust_3="14000.00000" pt_clust_4="96.68667" pt_clust_5="31.38007" pt_clust_6="30.82257"></scales>
<clustering>
<clus scale="   31.380">  1  5  2 -1</clus>
<clus scale="   30.823">  2  6  1 -1</clus>
<clus scale="   96.687">  1  4  2 -1</clus>
<clus scale="   31.380">  1  3  2 -1</clus>
</clustering>
</event>
<event>
 6    0  0.7442036E+002  0.7707325E+02  0.7546771E-02  0.1337568E+00
         21   -1    0    0  506  501  0.00000000000E+00  0.00000000000E+00  0.32771064103E+03  0.32771064103E+03  0.00000000000E+00 0.  1.
         21   -1    0    0  503  502 -0.00000000000E+00 -0.00000000000E+00 -0.22122469029E+03  0.22122469029E+03  0.00000000000E+00 0.  1.
         21    1    1    2  503  504 -0.98593710943E+02 -0.19780787062E+02 -0.16576049095E+03  0.19387764114E+03  0.00000000000E+00 0.  1.
         21    1    1    2  504  501  0.37131874456E+02 -0.37991485808E+02  0.23505170581E+03  0.24098015167E+03  0.00000000000E+00 0.  1.
         21    1    1    2  505  502  0.24452185900E+02  0.54120736857E+02 -0.28126908694E+01  0.59454812952E+02  0.00000000000E+00 0.  1.
         21    1    1    2  506  505  0.37009650587E+02  0.36515360127E+01  0.40007426749E+02  0.54622725554E+02  0.00000000000E+00 0. -1.
<scales pt_clust_3="77.07325" pt_clust_4="14000.00000" pt_clust_5="61.34986" pt_clust_6="37.18935"></scales>
<clustering>
<clus scale="   37.189">  1  6  2 -1</clus>
<clus scale="   61.350">  2  5  1 -1</clus>
<clus scale="   77.073">  2  3  1 -1</clus>
<clus scale="   37.189">  1  3  2 -1</clus>
</clustering>
</event>
<event>
 6    0  0.7442036E+002  0.1101213E+03  0.7546771E-02  0.1260345E+00
         21   -1    0    0  505  501  0.00000000000E+00  0.00000000000E+00  0.19223499483E+03  0.19223499483E+03  0.00000000000E+00 0. -1.
         21   -1    0    0  504  502 -0.00000000000E+00 -0.00000000000E+00 -0.12310724048E+03  0.12310724048E+03  0.00000000000E+00 0. -1.
         21    1    1    2  503  501 -0.54067489396E+02 -0.11803033375E+03  0.50243566919E+02  0.13920800664E+03  0.00000000000E+00 0. -1.
         21    1    1    2  504  506  0.30095307048E+02  0.25497568571E+02  0.62654147960E+01  0.39938814854E+02  0.00000000000E+00 0. -1.
         21    1    1    2  505  502 -0.11467965011E+02  0.98565045592E+02  0.14035484944E+02  0.10021764950E+03  0.00000000000E+00 0. -1.
         21    1    1    2  506  503  0.35440147359E+02 -0.60322804094E+01 -0.14167123114E+01  0.35977764321E+02  0.00000000000E+00 0. -1.
<scales pt_clust_3="14000.00000" pt_clust_4="75.76158" pt_clust_5="110.12131" pt_clust_6="31.17022"></scales>
<clustering>
<clus scale="   31.170">  4  6 -1 -1</clus>
<clus scale="   75.762">  2  4  1 -1</clus>
<clus scale="  110.121">  1  5  2 -1</clus>
<clus scale="  110.121">  1  3  2 -1</clus>
</clustering>
</event>
<event>
 6    0  0.7442036E+002  0.1460758E+03  0.7546771E-02  0.1205380E+00
         21   -1    0    0  503  501  0.00000000000E+00  0.00000000000E+00  0.54984709358E+03  0.54984709358E+03  0.00000000000E+00 0.  1.
         21   -1    0    0  505  502 -0.00000000000E+00 -0.00000000000E+00 -0.24989752483E+03  0.24989752483E+03  0.00000000000E+00 0.  1.
         21    1    1    2  503  504  0.31720334196E+02  0.15836697176E+02  0.87212134768E+02  0.94143173038E+02  0.00000000000E+00 0.  1.
         21    1    1    2  504  502 -0.59428106007E+01  0.39079947707E+02 -0.47023511705E+01  0.39807931586E+02  0.00000000000E+00 0. -1.
         21    1    1    2  505  506 -0.40392183367E+01  0.10863739471E+03 -0.19406721332E+03  0.22244208707E+03  0.00000000000E+00 0.  1.
         21    1    1    2  506  501 -0.21738305259E+02 -0.16355403960E+03  0.41150699847E+03  0.44335142672E+03  0.00000000000E+00 0.  1.
<scales pt_clust_3="35.45392" pt_clust_4="39.96625" pt_clust_5="146.07584" pt_clust_6="14000.00000"></scales>
<clustering>
<clus scale="   35.454">  1  3  2 -1</clus>
<clus scale="   39.966">  2  4  1 -1</clus>
<clus scale="  146.076">  2  5  1 -1</clus>
<clus scale="   35.454">  1  3  2 -1</clus>
</clustering>
</event>
<event>
 6    0  0.7442036E+002  0.9396709E+02  0.7546771E-02  0.1293520E+00
         21   -1    0    0  503  501  0.00000000000E+00  0.00000000000E+00  0.58147567180E+03  0.58147567180E+03  0.00000000000E+00 0. -1.
         21   -1    0    0  504  502 -0.00000000000E+00 -0.00000000000E+00 -0.14877261126E+03  0.14877261126E+03  0.00000000000E+00 0. -1.
         21    1    1    2  503  506  0.37069884329E+01  0.56283700682E+02  0.46086670719E+03  0.46430563051E+03  0.00000000000E+00 0. -1.
         21    1    1    2  504  505 -0.17965262398E+02  0.43478729103E+02 -0.22517492263E+02  0.52155421533E+02  0.00000000000E+00 0. -1.
         21    1    1    2  505  501  0.96327440196E+02 -0.88584915077E+02 -0.20880876578E+01  0.13088400599E+03  0.00000000000E+00 0. -1.
         21    1    1    2  506  502 -0.82069166230E+02 -0.11177514708E+02 -0.35580667218E+01  0.82903225025E+02  0.00000000000E+00 0. -1.
<scales pt_clust_3="57.05775" pt_clust_4="47.04413" pt_clust_5="93.96709" pt_clust_6="14000.00000"></scales>
<clustering>
<clus scale="   47.044">  2  4  1 -1</clus>
<clus scale="   57.058">  1  3  2 -1</clus>
<clus scale="   93.967">  2  5  1 -1</clus>
<clus scale="   57.058">  1  3  2 -1</clus>
</clustering>
</event>
<event>
 6    0  0.7442036E+002  0.1368836E+03  0.7546771E-02  0.1217585E+00
         21   -1    0    0  502  501  0.00000000000E+00  0.00000000000E+00  0.73362587670E+02  0.73362587670E+02  0.00000000000E+00 0. -1.
         21   -1    0    0  503  502 -0.00000000000E+00 -0.00000000000E+00 -0.10098831994E+04  0.10098831994E+04  0.00000000000E+00 0. -1.
         21    1    1    2  503  504  0.36118214504E+02 -0.44119006681E+02 -0.31390072091E+03  0.31903710561E+03  0.00000000000E+00 0. -1.
         21    1    1    2  504  505  0.10458231208E+01 -0.74287657832E+02 -0.46434712694E+03  0.47025312774E+03  0.00000000000E+00 0.  1.
         21    1    1    2  505  506 -0.86127457131E+02  0.14641655837E+03 -0.16540668680E+03  0.23709727851E+03  0.00000000000E+00 0. -1.
         21    1    1    2  506  501  0.48963419506E+02 -0.28009893859E+02  0.71339229212E+01  0.56858275211E+02  0.00000000000E+00 0. -1.
<scales pt_clust_3="38.26664" pt_clust_4="38.26664" pt_clust_5="129.72686" pt_clust_6="56.40896"></scales>
<clustering>
<clus scale="   38.267">  3  4 -1 -1</clus>
<clus scale="   56.409">  1  6  2 -1</clus>
<clus scale="  129.727">  1  5  2 -1</clus>
<clus scale="   56.409">  1  3  2 -1</clus>
</clustering>
</event>
<event>
 6    0  0.7442036E+002  0.7645044E+02  0.7546771E-02  0.1339437E+00
         21   -1    0    0  505  501  0.00000000000E+00  0.00000000000E+00  0.32584555111E+03  0.32584555111E+03  0.00000000000E+00 0. -1.
         21   -1    0    0  501  502 -0.00000000000E+00 -0.00000000000E+00 -0.19996974526E+04  0.19996974526E+04  0.00000000000E+00 0.  1.
         21    1    1    2  503  506  0.97826308450E+02  0.30311656565E+02 -0.48102735399E+02  0.11314882369E+03  0.00000000000E+00 0.  1.
         21    1    1    2  504  502 -0.43543509132E+02 -0.10236095744E+02 -0.11284239168E+04  0.11293101216E+04  0.00000000000E+00 0.  1.
         21    1    1    2  505  503 -0.25387856594E+02 -0.64682701285E+02  0.28784687059E+03  0.29611520733E+03  0.00000000000E+00 0. -1.
         21    1    1    2  506  504 -0.28894942724E+02  0.44607140464E+02 -0.78517211991E+03  0.78696885108E+03  0.00000000000E+00 0.  1.
<scales pt_clust_3="14000.00000" pt_clust_4="44.73047" pt_clust_5="69.60764" pt_clust_6="76.45044"></scales>
<clustering>
<clus scale="   44.730">  2  4  1 -1</clus>
<clus scale="   69.608">  1  5  2 -1</clus>
<clus scale="   76.450">  2  6  1 -1</clus>
<clus scale="   69.608">  1  3  2 -1</clus>
</clustering>
</event>
<event>
 6    0  0.7442036E+002  0.8086212E+02  0.7546771E-02  0.1326623E+00
         21   -1    0    0  506  501  0.00000000000E+00  0.00000000000E+00  0.28071837710E+03  0.28071837710E+03  0.00000000000E+00 0.  1.
         21   -1    0    0  503  502 -0.00000000000E+00 -0.00000000000E+00 -0.15023351898E+03  0.15023351898E+03  0.00000000000E+00 0. -1.
         21    1    1    2  503  504  0.82446657416E+02  0.95301838406E+02 -0.74976102089E+02  0.14663324182E+03  0.00000000000E+00 0. -1.
         21    1    1    2  504  501 -0.28142286460E+01 -0.31207396752E+02  0.21279133724E+02  0.37876417821E+02  0.00000000000E+00 0.  1.
         21    1    1    2  505  502 -0.64208612504E+02 -0.11270217586E+02  0.12790502756E+02  0.66433129422E+02  0.00000000000E+00 0.  1.
         21    1    1    2  506  505 -0.15423816266E+02 -0.52824224067E+02  0.17139132374E+03  0.18000910702E+03  0.00000000000E+00 0.  1.
<scales pt_clust_3="14000.00000" pt_clust_4="31.33403" pt_clust_5="66.64939" pt_clust_6="80.86212"></scales>
<clustering>
<clus scale="   31.334">  1  4  2 -1</clus>
<clus scale="   66.649">  2  5  1 -1</clus>
<clus scale="   80.862">  1  6  2 -1</clus>
<clus scale="   31.334">  1  3  2 -1</clus>
</clustering>
</event>
<event>
 6    0  0.7442036E+002  0.1354261E+03  0.7546771E-02  0.1219619E+00
         21   -1    0    0  503  501  0.00000000000E+00  0.00000000000E+00  0.66307331504E+03  0.66307331504E+03  0.00000000000E+00 0. -1.
         21   -1    0    0  506  502 -0.00000000000E+00 -0.00000000000E+00 -0.26570101562E+03  0.26570101562E+03  0.00000000000E+00 0. -1.
         21    1    1    2  503  505 -0.12774944284E+03  0.35578687792E+02  0.62289049339E+03  0.63685031988E+03  0.00000000000E+00 0. -1.
         21    1    1    2  504  502  0.43758694880E+02 -0.94195115393E+01 -0.16316837690E+03  0.16919654191E+03  0.00000000000E+00 0. -1.
         21    1    1    2  505  504  0.38733560028E+02 -0.10251718987E+02 -0.63104579248E+02  0.74750079175E+02  0.00000000000E+00 0. -1.
         21    1    1    2  506  501  0.45257187935E+02 -0.15907457265E+02  0.75476216868E+00  0.47977389699E+02  0.00000000000E+00 0. -1.
<scales pt_clust_3="131.23129" pt_clust_4="31.64296" pt_clust_5="31.64296" pt_clust_6="47.97145"></scales>
<clustering>
<clus scale="   31.643">  4  5 -1 -1</clus>
<clus scale="   47.971">  2  6  1 -1</clus>
<clus scale="  131.231">  1  3  2 -1</clus>
<clus scale="  131.231">  1  3  2 -1</clus>
</clustering>
</event>
<event>
 6    0  0.7442036E+002  0.8285650E+02  0.7546771E-02  0.1321135E+00
         21   -1    0    0  504  501  0.00000000000E+00  0.00000000000E+00  0.55113967502E+02  0.55113967502E+02  0.00000000000E+00 0.  1.
         21   -1    0    0  505  502 -0.00000000000E+00 -0.00000000000E+00 -0.85073127050E+03  0.85073127050E+03  0.00000000000E+00 0. -1.
         21    1    1    2  503  502 -0.14575641130E+02  0.31034318217E+02 -0.18387156929E+03  0.18704099073E+03  0.00000000000E+00 0.  1.
         21    1    1    2  504  506  0.64952564384E+02 -0.10937446725E+03 -0.70903360912E+02  0.14563274458E+03  0.00000000000E+00 0.  1.
         21    1    1    2  505  501 -0.31449193846E+02  0.45077103272E+02 -0.33458850205E+02  0.64346652516E+02  0.00000000000E+00 0.  1.
         21    1    1    2  506  503 -0.18927729408E+02  0.33263045761E+02 -0.50738352259E+03  0.50882485017E+03  0.00000000000E+00 0. -1.
<scales pt_clust_3="31.94449" pt_clust_4="75.67139" pt_clust_5="54.96360" pt_clust_6="31.94449"></scales>
<clustering>
<clus scale="   31.944">  3  6 -1 -1</clus>
<clus scale="   54.964">  1  5  2 -1</clus>
<clus scale="   75.671">  1  4  2 -1</clus>
<clus scale="   54.964">  1  3  2 -1</clus>
</clustering>
</event>
<event>
 6    0  0.7442036E+002  0.1309322E+03  0.7546771E-02  0.1226079E+00
         21   -1    0    0  503  501  0.00000000000E+00  0.00000000000E+00  0.33326017830E+03  0.33326017830E+03  0.00000000000E+00 0.  1.
         21   -1    0    0  506  502 -0.00000000000E+00 -0.00000000000E+00 -0.31629016414E+03  0.31629016414E+03  0.00000000000E+00 0.  1.
         21    1    1    2  503  502  0.70786993078E+01 -0.95152887601E+02  0.24001758111E+03  0.25828786120E+03  0.00000000000E+00 0.  1.
         21    1    1    2  504  505  0.73019049136E+02  0.80733841986E+02 -0.15210698923E+03  0.18704617331E+03  0.00000000000E+00 0.  1.
         21    1    1    2  505  501 -0.60055106045E+02 -0.39728651131E+02  0.37630953755E+02  0.81246970179E+02  0.00000000000E+00 0.  1.
         21    1    1    2  506  504 -0.20042642398E+02  0.54147696745E+02 -0.10857153148E+03  0.12296933775E+03  0.00000000000E+00 0.  1.
<scales pt_clust_3="14000.00000" pt_clust_4="130.93225" pt_clust_5="70.84000" pt_clust_6="57.73803"></scales>
<clustering>
<clus scale="   57.738">  2  6  1 -1</clus>
<clus scale="   70.840">  1  5  2 -1</clus>
<clus scale="  130.932">  2  4  1 -1</clus>
<clus scale="   70.840">  1  3  2 -1</clus>
</clustering>
</event>
<event>
 6    0  0.7442036E+002  0.1846948E+03  0.7546771E-02  0.1163335E+00
         21   -1    0    0  503  501  0.00000000000E+00  0.00000000000E+00  0.46821867468E+03  0.46821867468E+03  0.00000000000E+00 0.  1.
         21   -1    0    0  504  502 -0.00000000000E+00 -0.00000000000E+00 -0.18587048711E+03  0.18587048711E+03  0.00000000000E+00 0.  1.
         21    1    1    2  503  506 -0.33843771122E+02  0.36639852311E+02  0.43580543582E+02  0.66235514643E+02  0.00000000000E+00 0.  1.
         21    1    1    2  504  505  0.73197558113E+02 -0.63083480678E+02 -0.93754302062E+02  0.13463757723E+03  0.00000000000E+00 0.  1.
         21    1    1    2  505  501  0.81242233412E+02 -0.16482735399E+02 -0.13759846220E+02  0.84031627522E+02  0.00000000000E+00 0.  1.
         21    1    1    2  506  502 -0.12059602040E+03  0.42926363766E+02  0.34628179227E+03  0.36918444239E+03  0.00000000000E+00 0.  1.
<scales pt_clust_3="49.87865" pt_clust_4="71.60648" pt_clust_5="71.60648" pt_clust_6="167.44459"></scales>
<clustering>
<clus scale="   49.879">  1  3  2 -1</clus>
<clus scale="   71.606">  4  5 -1 -1</clus>
<clus scale="  167.445">  1  6  2 -1</clus>
<clus scale="   49.879">  1  3  2 -1</clus>
</clustering>
</event>
<event>
 6    0  0.7442036E+002  0.1337910E+03  0.7546771E-02  0.1221937E+00
         21   -1    0    0  503  501  0.00000000000E+00  0.00000000000E+00  0.25582143360E+03  0.25582143360E+03  0.00000000000E+00 0. -1.
         21   -1    0    0  505  502 -0.00000000000E+00 -0.00000000000E+00 -0.14548862040E+04  0.14548862040E+04  0.00000000000E+00 0.  1.
         21    1    1    2  503  506  0.12950201013E+03  0.50457732729E+02 -0.15156962021E+03  0.20564557663E+03  0.00000000000E+00 0. -1.
         21    1    1    2  504  501 -0.22049857094E+02  0.34438421457E+02  0.21966809390E+03  0.22344187734E+03  0.00000000000E+00 0. -1.
         21    1    1    2  505  504 -0.35563210474E+02  0.16770682323E+02 -0.94341954048E+02  0.10220764168E+03  0.00000000000E+00 0.  1.
         21    1    1    2  506  502 -0.71888942559E+02 -0.10166683651E+03 -0.11728212901E+04  0.11794125420E+04  0.00000000000E+00 0.  1.
<scales pt_clust_3="14000.00000" pt_clust_4="40.93888" pt_clust_5="39.31918" pt_clust_6="133.79097"></scales>
<clustering>
<clus scale="   39.319">  2  5  1 -1</clus>
<clus scale="   40.939">  1  4  2 -1</clus>
<clus scale="  133.791">  2  6  1 -1</clus>
<clus scale="   40.939">  1  3  2 -1</clus>
</clustering>
</event>
<event>
 6    0  0.7442036E+002  0.1151327E+03  0.7546771E-02  0.1251350E+00
         21   -1    0    0  503  501  0.00000000000E+00  0.00000000000E+00  0.13565733127E+04  0.13565733127E+04  0.00000000000E+00 0. -1.
         21   -1    0    0  506  502 -0.00000000000E+00 -0.00000000000E+00 -0.20609339472E+02  0.20609339472E+02  0.00000000000E+00 0. -1.
         21    1    1    2  503  502  0.45655143517E+02  0.51303744630E+02  0.23622013642E+03  0.24600085201E+03  0.00000000000E+00 0. -1.
         21    1    1    2  504  505  0.49851916784E+01 -0.76581161726E+02  0.47557205383E+03  0.48172430377E+03  0.00000000000E+00 0. -1.
         21    1    1    2  505  501  0.26769475074E+02 -0.34205846458E+02  0.42937993652E+03  0.43157128567E+03  0.00000000000E+00 0. -1.
         21    1    1    2  506  504 -0.77409810269E+02  0.59483263554E+02  0.19479184643E+03  0.21788621068E+03  0.00000000000E+00 0. -1.
<scales pt_clust_3="68.67653" pt_clust_4="32.69441" pt_clust_5="32.69441" pt_clust_6="106.61576"></scales>
<clustering>
<clus scale="   32.694">  4  5 -1 -1</clus>
<clus scale="   68.677">  2  3  1 -1</clus>
<clus scale="  106.616">  2  6  1 -1</clus>
<clus scale="  115.133">  1  3  2 -1</clus>
</clustering>
</event>
<event>
 6    0  0.7442036E+002  0.9181676E+02  0.7546771E-02  0.1298511E+00
         21   -1    0    0  504  501  0.00000000000E+00  0.00000000000E+00  0.59793599127E+03  0.59793599127E+03  0.00000000000E+00 0.  1.
         21   -1    0    0  505  502 -0.00000000000E+00 -0.00000000000E+00 -0.21952757071E+03  0.21952757071E+03  0.00000000000E+00 0. -1.
         21    1    1    2  503  506  0.11670856197E+03  0.39632703957E+02 -0.10454326374E+03  0.16161971926E+03  0.00000000000E+00 0. -1.
         21    1    1    2  504  502 -0.51763290160E+02 -0.35251640533E+02  0.28120826885E+03  0.28809756479E+03  0.00000000000E+00 0.  1.
         21    1    1    2  505  503 -0.22873269427E+02 -0.35674247017E+02 -0.74964979704E+02  0.86113799919E+02  0.00000000000E+00 0. -1.
         21    1    1    2  506  501 -0.42072002388E+02  0.31293183593E+02  0.27670839515E+03  0.28163247801E+03  0.00000000000E+00 0. -1.
<scales pt_clust_3="91.81676" pt_clust_4="14000.00000" pt_clust_5="42.37733" pt_clust_6="52.38724"></scales>
<clustering>
<clus scale="   42.377">  2  5  1 -1</clus>
<clus scale="   52.387">  1  6  2 -1</clus>
<clus scale="   91.817">  2  3  1 -1</clus>
<clus scale="   52.387">  1  3  2 -1</clus>
</clustering>
</event>
<event>
 6    0  0.7442036E+002  0.1309501E+03  0.7546771E-02  0.1226053E+00
         21   -1    0    0  505  501  0.00000000000E+00  0.00000000000E+00  0.10530206147E+04  0.10530206147E+04  0.00000000000E+00 0. -1.
         21   -1    0    0  503  502 -0.00000000000E+00 -0.00000000000E+00 -0.33560995300E+02  0.33560995300E+02  0.00000000000E+00 0. -1.
         21    1    1    2  503  501 -0.73839808880E+02 -0.82575836241E+02  0.57442973419E+03  0.58501333799E+03  0.00000000000E+00 0. -1.
         21    1    1    2  504  502  0.26907529474E+01 -0.61367314748E+02  0.13749962340E+03  0.15059659328E+03  0.00000000000E+00 0. -1.
         21    1    1    2  505  506  0.85721180477E+01  0.77038505761E+02  0.13891635219E+03  0.15907911706E+03  0.00000000000E+00 0. -1.
         21    1    1    2  506  504  0.62576937885E+02  0.66904645228E+02  0.16861390958E+03  0.19189256164E+03  0.00000000000E+00 0. -1.
<scales pt_clust_3="119.68081" pt_clust_4="61.42628" pt_clust_5="48.88642" pt_clust_6="48.88642"></scales>
<clustering>
<clus scale="   48.886">  5  6 -1 -1</clus>
<clus scale="   61.426">  2  4  1 -1</clus>
<clus scale="  119.681">  1  3  2 -1</clus>
<clus scale="  119.681">  1  3  2 -1</clus>
</clustering>
</event>
<event>
 6    0  0.7442036E+002  0.6556336E+02  0.7546771E-02  0.1375865E+00
         21   -1    0    0  504  501  0.00000000000E+00  0.00000000000E+00  0.53602185792E+03  0.53602185792E+03  0.00000000000E+00 0.  1.
         21   -1    0    0  505  502 -0.00000000000E+00 -0.00000000000E+00 -0.10958574590E+04  0.10958574590E+04  0.00000000000E+00 0. -1.
         21    1    1    2  503  506 -0.43388443159E+02  0.24537791290E+02 -0.59606942253E+03  0.59814999513E+03  0.00000000000E+00 0. -1.
         21    1    1    2  504  502  0.19046933090E+02 -0.11699220072E+03  0.46309196446E+03  0.47802105418E+03  0.00000000000E+00 0.  1.
         21    1    1    2  505  503  0.19225505324E+02  0.36959600671E+02 -0.47815342730E+03  0.47996492807E+03  0.00000000000E+00 0. -1.
         21    1    1    2  506  501  0.51160047447E+01  0.55494808763E+02  0.51295284251E+02  0.75743339579E+02  0.00000000000E+00 0. -1.
<scales pt_clust_3="65.56336" pt_clust_4="14000.00000" pt_clust_5="41.66092" pt_clust_6="56.49536"></scales>
<clustering>
<clus scale="   41.661">  2  5  1 -1</clus>
<clus scale="   56.495">  1  6  2 -1</clus>
<clus scale="   65.563">  2  3  1 -1</clus>
<clus scale="   56.495">  1  3  2 -1</clus>
</clustering>
</event>
<event>
 6    0  0.7442036E+002  0.9669052E+02  0.7546771E-02  0.1287413E+00
         21   -1    0    0  506  501  0.00000000000E+00  0.00000000000E+00  0.12739419592E+04  0.12739419592E+04  0.00000000000E+00 0.  1.
         21   -1    0    0  505  502 -0.00000000000E+00 -0.00000000000E+00 -0.23888578382E+02  0.23888578382E+02  0.00000000000E+00 0.  1.
         21    1    1    2  503  504 -0.98097475498E+02 -0.90332360326E+02  0.42811246190E+03  0.44840085867E+03  0.00000000000E+00 0.  1.
         21    1    1    2  504  501  0.71233537459E+02  0.49958980095E+02  0.68759951307E+03  0.69308239548E+03  0.00000000000E+00 0.  1.
         21    1    1    2  505  503 -0.71165239905E+01  0.38958761252E+02  0.41003602183E+02  0.57006362663E+02  0.00000000000E+00 0.  1.
         21    1    1    2  506  502  0.33980462030E+02  0.14146189794E+01  0.93337803684E+02  0.99340920789E+02  0.00000000000E+00 0.  1.
<scales pt_clust_3="14000.00000" pt_clust_4="96.69052" pt_clust_5="39.93897" pt_clust_6="34.00989"></scales>
<clustering>
<clus scale="   34.010">  2  6  1 -1</clus>
<clus scale="   39.939">  2  5  1 -1</clus>
<clus scale="   96.691">  1  4  2 -1</clus>
<clus scale="   96.691">  1  3  2 -1</clus>
</clustering>
</event>
<event>
 6    0  0.7442036E+002  0.1211218E+03  0.7546771E-02  0.1241258E+00
         21   -1    0    0  504  501  0.00000000000E+00  0.00000000000E+00  0.29681096398E+03  0.29681096398E+03  0.00000000000E+00 0.  1.
         21   -1    0    0  506  502 -0.00000000000E+00 -0.00000000000E+00 -0.40136414860E+03  0.40136414860E+03  0.00000000000E+00 0.  1.
         21    1    1    2  503  502  0.75298874919E+02 -0.75810251402E+00 -0.20723086602E+03  0.22048838318E+03  0.00000000000E+00 0.  1.
         21    1    1    2  504  503 -0.17603580726E+02 -0.10513357060E+03  0.13229453216E+03  0.16989643010E+03  0.00000000000E+00 0.  1.
         21    1    1    2  505  501 -0.26782633737E+02 -0.14660972782E+02  0.11384580730E+03  0.11786908600E+03  0.00000000000E+00 0.  1.
         21    1    1    2  506  505 -0.30912660457E+02  0.12055264590E+03 -0.14346265805E+03  0.18992121331E+03  0.00000000000E+00 0.  1.
<scales pt_clust_3="74.32905" pt_clust_4="14000.00000" pt_clust_5="30.53283" pt_clust_6="121.12179"></scales>
<clustering>
<clus scale="   30.533">  1  5  2 -1</clus>
<clus scale="   74.329">  2  3  1 -1</clus>
<clus scale="  121.122">  2  6  1 -1</clus>
<clus scale="   30.533">  1  3  2 -1</clus>
</clustering>
</event>
<event>
 6    0  0.7442036E+002  0.7686940E+02  0.7546771E-02  0.1338178E+00
         21   -1    0    0  505  501  0.00000000000E+00  0.00000000000E+00  0.31688720662E+03  0.31688720662E+03  0.00000000000E+00 0.  1.
         21   -1    0    0  503  502 -0.00000000000E+00 -0.00000000000E+00 -0.99489984234E+03  0.99489984234E+03  0.00000000000E+00 0. -1.
         21    1    1    2  503  506  0.79275720384E+02 -0.68290277667E+01 -0.72831829431E+02  0.10786913757E+03  0.00000000000E+00 0. -1.
         21    1    1    2  504  502 -0.73899260358E+02 -0.22105714156E+02 -0.73394678352E+03  0.73798891883E+03  0.00000000000E+00 0. -1.
         21    1    1    2  505  504 -0.46776244578E+02  0.20612964508E+02 -0.16315219313E+03  0.17097236468E+03  0.00000000000E+00 0. -1.
         21    1    1    2  506  501  0.41399784552E+02  0.83217774143E+01  0.29191817036E+03  0.29495662787E+03  0.00000000000E+00 0.  1.
<scales pt_clust_3="14000.00000" pt_clust_4="76.86940" pt_clust_5="45.54000" pt_clust_6="42.22788"></scales>
<clustering>
<clus scale="   42.228">  1  6  2 -1</clus>
<clus scale="   45.540">  1  5  2 -1</clus>
<clus scale="   76.869">  2  4  1 -1</clus>
<clus scale="   42.228">  1  3  2 -1</clus>
</clustering>
</event>
<event>
 6    0  0.7442036E+002  0.9148642E+02  0.7546771E-02  0.1299292E+00
         21   -1    0    0  503  501  0.00000000000E+00  0.00000000000E+00  0.70056466221E+03  0.70056466221E+03  0.00000000000E+00 0.  1.
         21   -1    0    0  505  502 -0.00000000000E+00 -0.00000000000E+00 -0.39529007919E+03  0.39529007919E+03  0.00000000000E+00 0.  1.
         21    1    1    2  503  502 -0.15844537555E+02  0.46223712295E+02  0.52569846254E+02  0.71772346233E+02  0.00000000000E+00 0.  1.
         21    1    1    2  504  501  0.68352499967E+02 -0.65699905971E+02  0.60036648509E+03  0.60780626709E+03  0.00000000000E+00 0.  1.
         21    1    1    2  505  506  0.25162905044E+02  0.30219762187E+02 -0.33445792217E+03  0.33676179641E+03  0.00000000000E+00 0.  1.
         21    1    1    2  506  504 -0.77670867456E+02 -0.10743568511E+02 -0.13203826153E+02  0.79514331669E+02  0.00000000000E+00 0.  1.
<scales pt_clust_3="52.42971" pt_clust_4="14000.00000" pt_clust_5="39.32437" pt_clust_6="91.48642"></scales>
<clustering>
<clus scale="   39.324">  2  5  1 -1</clus>
<clus scale="   52.430">  2  3  1 -1</clus>
<clus scale="   91.486">  2  6  1 -1</clus>
<clus scale="   91.486">  1  3  2 -1</clus>
</clustering>
</event>
<event>
 6    0  0.7442036E+002  0.8888264E+02  0.7546771E-02  0.1305580E+00
         21   -1    0    0  504  501  0.00000000000E+00  0.00000000000E+00  0.57400481461E+03  0.57400481461E+03  0.00000000000E+00 0. -1.
         21   -1    0    0  503  502 -0.00000000000E+00 -0.00000000000E+00 -0.45196158868E+02  0.45196158868E+02  0.00000000000E+00 0.  1.
         21    1    1    2  503  505 -0.14149747766E-01 -0.54358877893E+02  0.24190326676E+02  0.59498400909E+02  0.00000000000E+00 0.  1.
         21    1    1    2  504  502 -0.26234994713E+01  0.33338639385E+02  0.19644966327E+02  0.38784949755E+02  0.00000000000E+00 0.  1.
         21    1    1    2  505  506 -0.26888416597E+02 -0.70062615653E+02  0.10496784775E+03  0.12903490272E+03  0.00000000000E+00 0.  1.
         21    1    1    2  506  501  0.29526065816E+02  0.91082854160E+02  0.38000551499E+03  0.39188272009E+03  0.00000000000E+00 0. -1.
<scales pt_clust_3="37.86121" pt_clust_4="33.44170" pt_clust_5="88.88264" pt_clust_6="14000.00000"></scales>
<clustering>
<clus scale="   33.442">  2  4  1 -1</clus>
<clus scale="   37.861">  2  3  1 -1</clus>
<clus scale="   88.883">  2  5  1 -1</clus>
<clus scale="   88.883">  1  3  2 -1</clus>
</clustering>
</event>
<event>
 6    0  0.7442036E+002  0.1000611E+03  0.7546771E-02  0.1280168E+00
         21   -1    0    0  503  501  0.00000000000E+00  0.00000000000E+00  0.34797106751E+03  0.34797106751E+03  0.00000000000E+00 0. -1.
         21   -1    0    0  506  502 -0.00000000000E+00 -0.00000000000E+00 -0.16617782820E+03  0.16617782820E+03  0.00000000000E+00 0. -1.
         21    1    1    2  503  502  0.49256842104E+02 -0.56368742918E+02  0.85835392162E+02  0.11389199366E+03  0.00000000000E+00 0.  1.
         21    1    1    2  504  501 -0.96850179774E+02 -0.24963446002E+02  0.21898000025E+03  0.24073921880E+03  0.00000000000E+00 0. -1.
         21    1    1    2  505  504  0.17696978299E+02  0.47008020536E+02 -0.90737700685E+02  0.10371242626E+03  0.00000000000E+00 0. -1.
         21    1    1    2  506  505  0.29896359371E+02  0.34324168384E+02 -0.32284452421E+02  0.55805256984E+02  0.00000000000E+00 0. -1.
<scales pt_clust_3="74.85768" pt_clust_4="92.63274" pt_clust_5="36.01611" pt_clust_6="36.01611"></scales>
<clustering>
<clus scale="   36.016">  5  6 -1 -1</clus>
<clus scale="   74.858">  1  3  2 -1</clus>
<clus scale="   92.633">  1  4  2 -1</clus>
<clus scale="   74.858">  1  3  2 -1</clus>
</clustering>
</event>
<event>
 6    0  0.7442036E+002  0.2475338E+03  0.7546771E-02  0.1114873E+00
         21   -1    0    0  502  501  0.00000000000E+00  0.00000000000E+00  0.10128621702E+04  0.10128621702E+04  0.00000000000E+00 0.  1.
         21   -1    0    0  504  502 -0.00000000000E+00 -0.00000000000E+00 -0.91030780922E+02  0.91030780922E+02  0.00000000000E+00 0. -1.
         21    1    1    2  503  506 -0.16023913540E+02  0.83190229145E+02  0.47285079024E+02  0.97021949726E+02  0.00000000000E+00 0. -1.
         21    1    1    2  504  505  0.19046764908E+02  0.11328938452E+03  0.38899508654E+02  0.12128658488E+03  0.00000000000E+00 0. -1.
         21    1    1    2  505  503  0.20012259429E+02  0.36603689830E+02  0.46769609530E+02  0.62671500797E+02  0.00000000000E+00 0. -1.
         21    1    1    2  506  501 -0.23035110797E+02 -0.23308330349E+03  0.78887719209E+03  0.82291291574E+03  0.00000000000E+00 0.  1.
<scales pt_clust_3="37.73375" pt_clust_4="37.73375" pt_clust_5="30.17770" pt_clust_6="234.21879"></scales>
<clustering>
<clus scale="   30.178">  4  5 -1 -1</clus>
<clus scale="   37.734">  3  4 -1 -1</clus>
<clus scale="  234.219">  1  6  2 -1</clus>
<clus scale="  234.219">  1  3  2 -1</clus>
</clustering>
</event>
<event>
 6    0  0.9267266E+002  0.1552150E+03  0.7546771E-02  0.1194207E+00
         21   -1    0    0  505  501  0.00000000000E+00  0.00000000000E+00  0.22937467357E+03  0.22937467357E+03  0.00000000000E+00 0.  1.
         21   -1    0    0  504  502 -0.00000000000E+00 -0.00000000000E+00 -0.11539684928E+04  0.11539684928E+04  0.00000000000E+00 0. -1.
         21    1    1    2  503  506  0.65968783079E+02  0.34338267536E+02 -0.46118487383E+03  0.46714289549E+03  0.00000000000E+00 0. -1.
         21    1    1    2  504  501  0.35251701560E+02 -0.17994105276E+02 -0.82994230998E+02  0.91948423948E+02  0.00000000000E+00 0.  1.
         21    1    1    2  505  503 -0.14396360798E+03 -0.47148169250E+02  0.19472108525E+03  0.24670786637E+03  0.00000000000E+00 0.  1.
         21    1    1    2  506  502  0.42743123341E+02  0.30804006990E+02 -0.57513579961E+03  0.57754398052E+03  0.00000000000E+00 0.  1.
<scales pt_clust_3="30.90635" pt_clust_4="39.57866" pt_clust_5="150.80907" pt_clust_6="30.90635"></scales>
<clustering>
<clus scale="   30.906">  3  6 -1 -1</clus>
<clus scale="   39.579">  2  4  1 -1</clus>
<clus scale="  150.809">  1  5  2 -1</clus>
<clus scale="  150.809">  1  3  2 -1</clus>
</clustering>
</event>
<event>
 6    0  0.7442036E+002  0.1064131E+03  0.7546771E-02  0.1267360E+00
         21   -1    0    0  504  501  0.00000000000E+00  0.00000000000E+00  0.11014045857E+04  0.11014045857E+04  0.00000000000E+00 0.  1.
         21   -1    0    0  506  502 -0.00000000000E+00 -0.00000000000E+00 -0.10990458953E+03  0.10990458953E+03  0.00000000000E+00 0.  1.
         21    1    1    2  503  501  0.34353858300E+02 -0.14969582748E+02  0.17514869573E+03  0.17911265060E+03  0.00000000000E+00 0.  1.
         21    1    1    2  504  505 -0.99106516707E+02 -0.54696193829E+01  0.67337754474E+03  0.68065360952E+03  0.00000000000E+00 0.  1.
         21    1    1    2  505  502  0.51297782348E+02  0.12403281223E+03  0.19350537838E+03  0.23549932579E+03  0.00000000000E+00 0.  1.
         21    1    1    2  506  503  0.13454876060E+02 -0.10359361010E+03 -0.50531622657E+02  0.11604358936E+03  0.00000000000E+00 0.  1.
<scales pt_clust_3="37.47367" pt_clust_4="75.74724" pt_clust_5="106.41313" pt_clust_6="14000.00000"></scales>
<clustering>
<clus scale="   37.474">  1  3  2 -1</clus>
<clus scale="   75.747">  1  4  2 -1</clus>
<clus scale="  106.413">  1  5  2 -1</clus>
<clus scale="   37.474">  1  3  2 -1</clus>
</clustering>
</event>
<event>
 6    0  0.7442036E+002  0.2169694E+03  0.7546771E-02  0.1136163E+00
         21   -1    0    0  504  501  0.00000000000E+00  0.00000000000E+00  0.67752588158E+03  0.67752588158E+03  0.00000000000E+00 0. -1.
         21   -1    0    0  506  502 -0.00000000000E+00 -0.00000000000E+00 -0.23212290697E+03  0.23212290697E+03  0.00000000000E+00 0.  1.
         21    1    1    2  503  501  0.60231202834E+02 -0.78955217443E+00  0.14762664748E+03  0.15944293096E+03  0.00000000000E+00 0. -1.
         21    1    1    2  504  505  0.60106258061E+02  0.14721161351E+03 -0.73967972672E+02  0.17537184036E+03  0.00000000000E+00 0.  1.
         21    1    1    2  505  502  0.34705033165E+02  0.31206256949E+02 -0.64107488042E+02  0.79297161506E+02  0.00000000000E+00 0.  1.
         21    1    1    2  506  503 -0.15504249406E+03 -0.17762831828E+03  0.43585178785E+03  0.49553685573E+03  0.00000000000E+00 0. -1.
<scales pt_clust_3="60.23638" pt_clust_4="38.19145" pt_clust_5="38.19145" pt_clust_6="205.19832"></scales>
<clustering>
<clus scale="   38.191">  4  5 -1 -1</clus>
<clus scale="   60.236">  1  3  2 -1</clus>
<clus scale="  205.198">  1  6  2 -1</clus>
<clus scale="   60.236">  1  3  2 -1</clus>
</clustering>
</event>
<event>
 6    0  0.7442036E+002  0.1542699E+03  0.7546771E-02  0.1195322E+00
         21   -1    0    0  506  501  0.00000000000E+00  0.00000000000E+00  0.90728656754E+03  0.90728656754E+03  0.00000000000E+00 0. -1.
         21   -1    0    0  504  502 -0.00000000000E+00 -0.00000000000E+00 -0.83850728567E+02  0.83850728567E+02  0.00000000000E+00 0. -1.
         21    1    1    2  503  501 -0.17154822988E+03 -0.64080095009E+02  0.70403416651E+03  0.72746076276E+03  0.00000000000E+00 0. -1.
         21    1    1    2  504  503  0.10728949268E+03  0.59244884206E+02  0.13251890838E+02  0.12327450732E+03  0.00000000000E+00 0. -1.
         21    1    1    2  505  502  0.46885851104E+02 -0.24163138512E+02  0.40289773618E+02  0.66373233722E+02  0.00000000000E+00 0. -1.
         21    1    1    2  506  505  0.17372886096E+02  0.28998349316E+02  0.65860008009E+02  0.74028792299E+02  0.00000000000E+00 0. -1.
<scales pt_clust_3="14000.00000" pt_clust_4="154.26989" pt_clust_5="52.92711" pt_clust_6="33.80416"></scales>
<clustering>
<clus scale="   33.804">  1  6  2 -1</clus>
<clus scale="   52.927">  2  5  1 -1</clus>
<clus scale="  154.270">  2  4  1 -1</clus>
<clus scale="   33.804">  1  3  2 -1</clus>
</clustering>
</event>
<event>
 6    0  0.7442036E+002  0.1474386E+03  0.7546771E-02  0.1203656E+00
         21   -1    0    0  504  501  0.00000000000E+00  0.00000000000E+00  0.64983176725E+02  0.64983176725E+02  0.00000000000E+00 0.  1.
         21   -1    0    0  503  502 -0.00000000000E+00 -0.00000000000E+00 -0.11217636043E+04  0.11217636043E+04  0.00000000000E+00 0.  1.
         21    1    1    2  503  506  0.31287578520E+02 -0.11661356233E+02 -0.12963600206E+03  0.13386707149E+03  0.00000000000E+00 0.  1.
         21    1    1    2  504  505 -0.11512059858E+03 -0.73258219603E+02 -0.15078077954E+03  0.20335772038E+03  0.00000000000E+00 0.  1.
         21    1    1    2  505  502 -0.90260819473E+01 -0.52892278277E+02 -0.61683741179E+03  0.61916674317E+03  0.00000000000E+00 0.  1.
         21    1    1    2  506  501  0.92859102011E+02  0.13781185411E+03 -0.15952623416E+03  0.23035524597E+03  0.00000000000E+00 0.  1.
<scales pt_clust_3="33.39012" pt_clust_4="14000.00000" pt_clust_5="61.08181" pt_clust_6="147.43864"></scales>
<clustering>
<clus scale="   33.390">  2  3  1 -1</clus>
<clus scale="   61.082">  2  5  1 -1</clus>
<clus scale="  147.439">  2  6  1 -1</clus>
<clus scale="  147.439">  1  3  2 -1</clus>
</clustering>
</event>
<event>
 6    0  0.7442036E+002  0.7148051E+02  0.7546771E-02  0.1355130E+00
         21   -1    0    0  506  501  0.00000000000E+00  0.00000000000E+00  0.69969795653E+03  0.69969795653E+03  0.00000000000E+00 0.  1.
         21   -1    0    0  505  502 -0.00000000000E+00 -0.00000000000E+00 -0.11569149129E+03  0.11569149129E+03  0.00000000000E+00 0. -1.
         21    1    1    2  503  502  0.20533192369E+02  0.37879113597E+02 -0.39350462068E+02  0.58351504700E+02  0.00000000000E+00 0. -1.
         21    1    1    2  504  501  0.66420666734E+02  0.30717269710E+02  0.33153638162E+03  0.33951675653E+03  0.00000000000E+00 0.  1.
         21    1    1    2  505  504 -0.65035021921E+02 -0.90207655630E+02 -0.12265433806E+02  0.11188125883E+03  0.00000000000E+00 0. -1.
         21    1    1    2  506  503 -0.21918837183E+02  0.21611272322E+02  0.30408597950E+03  0.30563992776E+03  0.00000000000E+00 0.  1.
<scales pt_clust_3="43.29808" pt_clust_4="71.48051" pt_clust_5="14000.00000" pt_clust_6="30.78120"></scales>
<clustering>
<clus scale="   30.781">  1  6  2 -1</clus>
<clus scale="   43.298">  2  3  1 -1</clus>
<clus scale="   71.481">  1  4  2 -1</clus>
<clus scale="   30.781">  1  3  2 -1</clus>
</clustering>
</event>
<event>
 6    0  0.7442036E+002  0.1831356E+03  0.7546771E-02  0.1164802E+00
         21   -1    0    0  506  501  0.00000000000E+00  0.00000000000E+00  0.38615940225E+02  0.38615940225E+02  0.00000000000E+00 0.  1.
         21   -1    0    0  505  502 -0.00000000000E+00 -0.00000000000E+00 -0.21978734686E+04  0.21978734686E+04  0.00000000000E+00 0.  1.
         21    1    1    2  503  504  0.22048201936E+02  0.36227571581E+02 -0.53192959634E+03  0.53361751809E+03  0.00000000000E+00 0. -1.
         21    1    1    2  504  502  0.19755461102E+02  0.12136868068E+03 -0.68338441462E+03  0.69435933999E+03  0.00000000000E+00 0.  1.
         21    1    1    2  505  501 -0.20722816558E+02  0.23642729650E+02  0.13225698687E+02  0.34107666252E+02  0.00000000000E+00 0.  1.
         21    1    1    2  506  503 -0.21080846480E+02 -0.18123898192E+03 -0.95716921610E+03  0.97440488448E+03  0.00000000000E+00 0.  1.
<scales pt_clust_3="37.85311" pt_clust_4="37.85311" pt_clust_5="31.43905" pt_clust_6="170.83255"></scales>
<clustering>
<clus scale="   31.439">  1  5  2 -1</clus>
<clus scale="   37.853">  3  4 -1 -1</clus>
<clus scale="  170.833">  1  6  2 -1</clus>
<clus scale="   31.439">  1  3  2 -1</clus>
</clustering>
</event>
<event>
 6    0  0.7442036E+002  0.9105921E+02  0.7546771E-02  0.1300307E+00
         21   -1    0    0  503  501  0.00000000000E+00  0.00000000000E+00  0.14198073851E+04  0.14198073851E+04  0.00000000000E+00 0. -1.
         21   -1    0    0  505  502 -0.00000000000E+00 -0.00000000000E+00 -0.35676487661E+02  0.35676487661E+02  0.00000000000E+00 0. -1.
         21    1    1    2  503  504  0.44385263985E+02 -0.21973939240E+02  0.18047025908E+03  0.18714277992E+03  0.00000000000E+00 0. -1.
         21    1    1    2  504  506  0.22011126685E+02 -0.41327718310E+02  0.79134963839E+02  0.91950054380E+02  0.00000000000E+00 0. -1.
         21    1    1    2  505  501  0.85920719713E+01  0.81215583341E+02  0.10880302338E+04  0.10910910064E+04  0.00000000000E+00 0. -1.
         21    1    1    2  506  502 -0.74988462642E+02 -0.17913925792E+02  0.36495440701E+02  0.85300031997E+02  0.00000000000E+00 0. -1.
<scales pt_clust_3="44.37015" pt_clust_4="44.37015" pt_clust_5="78.79989" pt_clust_6="77.09850"></scales>
<clustering>
<clus scale="   44.370">  3  4 -1 -1</clus>
<clus scale="   77.098">  2  6  1 -1</clus>
<clus scale="   78.800">  1  5  2 -1</clus>
<clus scale="   78.800">  1  3  2 -1</clus>
</clustering>
</event>
<event>
 6    0  0.7442036E+002  0.1248475E+03  0.7546771E-02  0.1235308E+00
         21   -1    0    0  503  501  0.00000000000E+00  0.00000000000E+00  0.55136302216E+03  0.55136302216E+03  0.00000000000E+00 0. -1.
         21   -1    0    0  506  502 -0.00000000000E+00 -0.00000000000E+00 -0.44831021060E+03  0.44831021060E+03  0.00000000000E+00 0.  1.
         21    1    1    2  503  505  0.61758826296E+02 -0.79376675028E+02  0.28112893141E+03  0.29857710100E+03  0.00000000000E+00 0. -1.
         21    1    1    2  504  501  0.63960611959E+02  0.10474694246E+03  0.23199017512E+03  0.26245442117E+03  0.00000000000E+00 0. -1.
         21    1    1    2  505  502 -0.10525200445E+03 -0.52100030708E+02 -0.35677396344E+03  0.37560625478E+03  0.00000000000E+00 0.  1.
         21    1    1    2  506  504 -0.20467433802E+02  0.26729763271E+02 -0.53292331524E+02  0.63035455818E+02  0.00000000000E+00 0.  1.
<scales pt_clust_3="99.81962" pt_clust_4="124.84750" pt_clust_5="14000.00000" pt_clust_6="33.66595"></scales>
<clustering>
<clus scale="   33.666">  2  6  1 -1</clus>
<clus scale="   99.820">  1  3  2 -1</clus>
<clus scale="  124.848">  1  4  2 -1</clus>
<clus scale="   99.820">  1  3  2 -1</clus>
</clustering>
</event>
<event>
 6    0  0.7442036E+002  0.2389759E+03  0.7546771E-02  0.1120477E+00
         21   -1    0    0  504  501  0.00000000000E+00  0.00000000000E+00  0.15077716280E+04  0.15077716280E+04  0.00000000000E+00 0. -1.
         21   -1    0    0  506  502 -0.00000000000E+00 -0.00000000000E+00 -0.38056736650E+03  0.38056736650E+03  0.00000000000E+00 0. -1.
         21    1    1    2  503  502  0.76147607917E+02  0.23190291168E+02  0.55386679512E+02  0.96973873096E+02  0.00000000000E+00 0. -1.
         21    1    1    2  504  503 -0.40818113079E+02  0.21262458838E+03  0.13754430074E+04  0.13923788280E+04  0.00000000000E+00 0. -1.
         21    1    1    2  505  501 -0.69170073243E+02 -0.18661892132E+03 -0.22858024324E+03  0.30308422663E+03  0.00000000000E+00 0. -1.
         21    1    1    2  506  505  0.33840578405E+02 -0.49195958220E+02 -0.75045182174E+02  0.95902066816E+02  0.00000000000E+00 0. -1.
<scales pt_clust_3="79.60055" pt_clust_4="216.71327" pt_clust_5="55.16912" pt_clust_6="55.16912"></scales>
<clustering>
<clus scale="   55.169">  5  6 -1 -1</clus>
<clus scale="   79.601">  2  3  1 -1</clus>
<clus scale="  216.713">  1  4  2 -1</clus>
<clus scale="  216.713">  1  3  2 -1</clus>
</clustering>
</event>
<event>
 6    0  0.7442036E+002  0.8831481E+02  0.7546771E-02  0.1306985E+00
         21   -1    0    0  503  501  0.00000000000E+00  0.00000000000E+00  0.74658952679E+03  0.74658952679E+03  0.00000000000E+00 0.  1.
         21   -1    0    0  505  502 -0.00000000000E+00 -0.00000000000E+00 -0.58229872639E+03  0.58229872639E+03  0.00000000000E+00 0.  1.
         21    1    1    2  503  504 -0.42436603071E+02  0.12774707393E+03  0.23841491466E+03  0.27379162096E+03  0.00000000000E+00 0.  1.
         21    1    1    2  504  502 -0.20995237752E+02 -0.35641882385E+02 -0.71082928680E+02  0.82243094165E+02  0.00000000000E+00 0.  1.
         21    1    1    2  505  506  0.21580797481E+02 -0.52455890779E+02 -0.48457374067E+03  0.48788222087E+03  0.00000000000E+00 0.  1.
         21    1    1    2  506  501  0.41851043341E+02 -0.39649300765E+02  0.48153255509E+03  0.48497131718E+03  0.00000000000E+00 0.  1.
<scales pt_clust_3="88.31481" pt_clust_4="41.36597" pt_clust_5="14000.00000" pt_clust_6="57.68216"></scales>
<clustering>
<clus scale="   41.366">  2  4  1 -1</clus>
<clus scale="   57.682">  1  6  2 -1</clus>
<clus scale="   88.315">  1  3  2 -1</clus>
<clus scale="   57.682">  1  3  2 -1</clus>
</clustering>
</event>
<event>
 6    0  0.7442036E+002  0.1028688E+03  0.7546771E-02  0.1274376E+00
         21   -1    0    0  506  501  0.00000000000E+00  0.00000000000E+00  0.86287024619E+02  0.86287024619E+02  0.00000000000E+00 0.  1.
         21   -1    0    0  503  502 -0.00000000000E+00 -0.00000000000E+00 -0.87950685478E+03  0.87950685478E+03  0.00000000000E+00 0. -1.
         21    1    1    2  503  504  0.11575690992E+03  0.17596708196E+02 -0.51952747258E+03  0.53255807298E+03  0.00000000000E+00 0. -1.
         21    1    1    2  504  501 -0.56475987310E+02 -0.57696456558E+02  0.13272781711E+02  0.81820443511E+02  0.00000000000E+00 0.  1.
         21    1    1    2  505  502 -0.88926574765E+02  0.26584810165E+02 -0.30170230981E+03  0.31565641380E+03  0.00000000000E+00 0.  1.
         21    1    1    2  506  505  0.29645652156E+02  0.13514938197E+02  0.14737170516E+02  0.35758949104E+02  0.00000000000E+00 0.  1.
<scales pt_clust_3="102.86879" pt_clust_4="57.78716" pt_clust_5="14000.00000" pt_clust_6="32.58095"></scales>
<clustering>
<clus scale="   32.581">  1  6  2 -1</clus>
<clus scale="   57.787">  1  4  2 -1</clus>
<clus scale="  102.869">  2  3  1 -1</clus>
<clus scale="   32.581">  1  3  2 -1</clus>
</clustering>
</event>
<event>
 6    0  0.7442036E+002  0.4110376E+03  0.7546771E-02  0.1040023E+00
         21   -1    0    0  505  501  0.00000000000E+00  0.00000000000E+00  0.33073805219E+03  0.33073805219E+03  0.00000000000E+00 0. -1.
         21   -1    0    0  503  502 -0.00000000000E+00 -0.00000000000E+00 -0.67168906729E+03  0.67168906729E+03  0.00000000000E+00 0. -1.
         21    1    1    2  503  506 -0.10072689708E+03 -0.10457011151E+03 -0.15592901548E+03  0.21306025881E+03  0.00000000000E+00 0. -1.
         21    1    1    2  504  501 -0.40829928586E+02  0.12611072173E+02  0.22048621487E+02  0.48086005439E+02  0.00000000000E+00 0.  1.
         21    1    1    2  505  502  0.39248786606E+03  0.13445784516E+03 -0.27204679511E+01  0.41488918771E+03  0.00000000000E+00 0. -1.
         21    1    1    2  506  504 -0.25093104040E+03 -0.42498805819E+02 -0.20435015316E+03  0.32639166752E+03  0.00000000000E+00 0. -1.
<scales pt_clust_3="94.45259" pt_clust_4="42.73315" pt_clust_5="391.19965" pt_clust_6="94.45259"></scales>
<clustering>
<clus scale="   42.733">  1  4  2 -1</clus>
<clus scale="   94.453">  3  6 -1 -1</clus>
<clus scale="  391.200">  1  5  2 -1</clus>
<clus scale="   42.733">  1  3  2 -1</clus>
</clustering>
</event>
<event>
 6    0  0.7442036E+002  0.2227987E+03  0.7546771E-02  0.1131814E+00
         21   -1    0    0  503  501  0.00000000000E+00  0.00000000000E+00  0.90091435783E+02  0.90091435783E+02  0.00000000000E+00 0.  1.
         21   -1    0    0  506  502 -0.00000000000E+00 -0.00000000000E+00 -0.21463973001E+04  0.21463973001E+04  0.00000000000E+00 0.  1.
         21    1    1    2  503  502 -0.20372752474E+03 -0.36537404593E+02 -0.11056206808E+04  0.11248275317E+04  0.00000000000E+00 0. -1.
         21    1    1    2  504  501 -0.14471868458E+02  0.70300474762E+02  0.47860356068E+02  0.86268217852E+02  0.00000000000E+00 0.  1.
         21    1    1    2  505  504  0.31266499292E+02  0.11779526828E+02 -0.76351305383E+02  0.83341904609E+02  0.00000000000E+00 0.  1.
         21    1    1    2  506  505  0.18693289390E+03 -0.45542596996E+02 -0.92219423418E+03  0.94205108170E+03  0.00000000000E+00 0.  1.
<scales pt_clust_3="209.88716" pt_clust_4="71.77459" pt_clust_5="31.14749" pt_clust_6="31.14749"></scales>
<clustering>
<clus scale="   31.147">  5  6 -1 -1</clus>
<clus scale="   71.775">  1  4  2 -1</clus>
<clus scale="  209.887">  2  3  1 -1</clus>
<clus scale="   71.775">  1  3  2 -1</clus>
</clustering>
</event>
<event>
 6    0  0.7442036E+002  0.2352502E+03  0.7546771E-02  0.1122998E+00
         21   -1    0    0  505  501  0.00000000000E+00  0.00000000000E+00  0.12661699618E+03  0.12661699618E+03  0.00000000000E+00 0. -1.
         21   -1    0    0  503  502 -0.00000000000E+00 -0.00000000000E+00 -0.12384652156E+04  0.12384652156E+04  0.00000000000E+00 0.  1.
         21    1    1    2  503  504  0.77416702642E+02 -0.28205855010E+02 -0.59355838278E+03  0.59924992271E+03  0.00000000000E+00 0.  1.
         21    1    1    2  504  501  0.11937316772E+03 -0.50635608595E+02 -0.51446126375E+03  0.53055094942E+03  0.00000000000E+00 0.  1.
         21    1    1    2  505  506 -0.81917636902E+02  0.72658452114E+02  0.33216862640E+02  0.11442512776E+03  0.00000000000E+00 0. -1.
         21    1    1    2  506  502 -0.11487223346E+03  0.61830114901E+01 -0.37045435489E+02  0.12085621185E+03  0.00000000000E+00 0. -1.
<scales pt_clust_3="49.14039" pt_clust_4="220.77698" pt_clust_5="99.49617" pt_clust_6="99.49617"></scales>
<clustering>
<clus scale="   49.140">  3  4 -1 -1</clus>
<clus scale="   99.496">  5  6 -1 -1</clus>
<clus scale="  220.777">  2  3  1 -1</clus>
<clus scale="  235.250">  1  3  2 -1</clus>
</clustering>
</event>
<event>
 6    0  0.7442036E+002  0.3036526E+03  0.7546771E-02  0.1083429E+00
         21   -1    0    0  503  501  0.00000000000E+00  0.00000000000E+00  0.72450473871E+02  0.72450473871E+02  0.00000000000E+00 0. -1.
         21   -1    0    0  504  502 -0.00000000000E+00 -0.00000000000E+00 -0.19018052085E+04  0.19018052085E+04  0.00000000000E+00 0. -1.
         21    1    1    2  503  502  0.19783749831E+03  0.23813586338E+03 -0.10119242268E+04  0.10582244591E+04  0.00000000000E+00 0. -1.
         21    1    1    2  504  505 -0.12945395846E+03 -0.28744080574E+01 -0.17632528647E+03  0.21876287672E+03  0.00000000000E+00 0. -1.
         21    1    1    2  505  506 -0.93303307050E+02 -0.10060012767E+03 -0.32401962000E+03  0.35187299831E+03  0.00000000000E+00 0. -1.
         21    1    1    2  506  501  0.24919767200E+02 -0.13466132765E+03 -0.31708560138E+03  0.34539534821E+03  0.00000000000E+00 0. -1.
<scales pt_clust_3="277.94320" pt_clust_4="118.78980" pt_clust_5="118.78980" pt_clust_6="136.94768"></scales>
<clustering>
<clus scale="  118.790">  4  5 -1 -1</clus>
<clus scale="  136.948">  1  6  2 -1</clus>
<clus scale="  277.943">  2  3  1 -1</clus>
<clus scale="  136.948">  1  3  2 -1</clus>
</clustering>
</event>
<event>
 6    0  0.7442036E+002  0.8389117E+02  0.7546771E-02  0.1318358E+00
         21   -1    0    0  505  501  0.00000000000E+00  0.00000000000E+00  0.40634637319E+03  0.40634637319E+03  0.00000000000E+00 0. -1.
         21   -1    0    0  504  502 -0.00000000000E+00 -0.00000000000E+00 -0.14434694243E+03  0.14434694243E+03  0.00000000000E+00 0. -1.
         21    1    1    2  503  501 -0.42268249240E+02  0.55506630980E+02  0.17939801178E+03  0.19248698036E+03  0.00000000000E+00 0. -1.
         21    1    1    2  504  506 -0.27593869816E+02  0.22119511093E+02 -0.76529241119E+02  0.84305510904E+02  0.00000000000E+00 0. -1.
         21    1    1    2  505  502  0.11881708361E+03 -0.93318751361E+02  0.16312001571E+03  0.22233764467E+03  0.00000000000E+00 0. -1.
         21    1    1    2  506  503 -0.48954964556E+02  0.15692609288E+02 -0.39893556070E+01  0.51563179684E+02  0.00000000000E+00 0. -1.
<scales pt_clust_3="14000.00000" pt_clust_4="35.36516" pt_clust_5="83.89117" pt_clust_6="65.98804"></scales>
<clustering>
<clus scale="   35.365">  2  4  1 -1</clus>
<clus scale="   65.988">  2  6  1 -1</clus>
<clus scale="   83.891">  2  5  1 -1</clus>
<clus scale="   83.891">  1  3  2 -1</clus>
</clustering>
</event>
<event>
 6    0  0.7442036E+002  0.1622526E+03  0.7546771E-02  0.1186177E+00
         21   -1    0    0  504  501  0.00000000000E+00  0.00000000000E+00  0.29311515860E+03  0.29311515860E+03  0.00000000000E+00 0. -1.
         21   -1    0    0  505  502 -0.00000000000E+00 -0.00000000000E+00 -0.12996738363E+03  0.12996738363E+03  0.00000000000E+00 0. -1.
         21    1    1    2  503  506 -0.72282754040E+02 -0.11625424676E+03  0.37247615725E+01  0.13694422321E+03  0.00000000000E+00 0. -1.
         21    1    1    2  504  503  0.78616465734E+01 -0.44406076415E+02  0.15120260860E+02  0.47563929588E+02  0.00000000000E+00 0. -1.
         21    1    1    2  505  501  0.73650341181E+02  0.12210356996E+03  0.13798611707E+03  0.19842838269E+03  0.00000000000E+00 0. -1.
         21    1    1    2  506  502 -0.92292337148E+01  0.38556753211E+02  0.63166354710E+01  0.40146006735E+02  0.00000000000E+00 0. -1.
<scales pt_clust_3="35.03642" pt_clust_4="35.03642" pt_clust_5="150.33161" pt_clust_6="39.64596"></scales>
<clustering>
<clus scale="   35.036">  3  4 -1 -1</clus>
<clus scale="   39.646">  2  6  1 -1</clus>
<clus scale="  150.332">  1  5  2 -1</clus>
<clus scale="  150.332">  1  3  2 -1</clus>
</clustering>
</event>
<event>
 6    0  0.7442036E+002  0.1163413E+03  0.7546771E-02  0.1249258E+00
         21   -1    0    0  505  501  0.00000000000E+00  0.00000000000E+00  0.16943913083E+03  0.16943913083E+03  0.00000000000E+00 0. -1.
         21   -1    0    0  501  502 -0.00000000000E+00 -0.00000000000E+00 -0.17432741244E+03  0.17432741244E+03  0.00000000000E+00 0. -1.
         21    1    1    2  503  504  0.18236463580E+02  0.65619279907E+02 -0.39987477641E+02  0.78977571927E+02  0.00000000000E+00 0. -1.
         21    1    1    2  504  502  0.61430659910E+02 -0.43280393047E+02 -0.11926754899E+02  0.76086568339E+02  0.00000000000E+00 0. -1.
         21    1    1    2  505  506 -0.64890795298E+02 -0.85858221293E+02  0.58487195955E+02  0.12248755679E+03  0.00000000000E+00 0. -1.
         21    1    1    2  506  503 -0.14776328191E+02  0.63519334433E+02 -0.11461245027E+02  0.66214846214E+02  0.00000000000E+00 0. -1.
<scales pt_clust_3="40.87835" pt_clust_4="75.14598" pt_clust_5="108.58260" pt_clust_6="40.87835"></scales>
<clustering>
<clus scale="   40.878">  3  6 -1 -1</clus>
<clus scale="   75.146">  2  4  1 -1</clus>
<clus scale="  108.583">  1  5  2 -1</clus>
<clus scale="  108.583">  1  3  2 -1</clus>
</clustering>
</event>
<event>
 6    0  0.7442036E+002  0.1606728E+03  0.7546771E-02  0.1187939E+00
         21   -1    0    0  505  501  0.00000000000E+00  0.00000000000E+00  0.61503125867E+02  0.61503125867E+02  0.00000000000E+00 0.  1.
         21   -1    0    0  503  502 -0.00000000000E+00 -0.00000000000E+00 -0.80336371069E+03  0.80336371069E+03  0.00000000000E+00 0.  1.
         21    1    1    2  503  501 -0.16951346939E+02 -0.15677489686E+03 -0.41659259472E+03  0.44543810617E+03  0.00000000000E+00 0.  1.
         21    1    1    2  504  502 -0.45075091834E+02  0.16707704871E+03 -0.27739866804E+03  0.32695034048E+03  0.00000000000E+00 0.  1.
         21    1    1    2  505  506  0.29677208503E+02  0.17554223508E+02 -0.11353446932E+02  0.36301352933E+02  0.00000000000E+00 0.  1.
         21    1    1    2  506  504  0.32349230270E+02 -0.27856375355E+02 -0.36515875124E+02  0.56177036973E+02  0.00000000000E+00 0. -1.
<scales pt_clust_3="14000.00000" pt_clust_4="160.67277" pt_clust_5="34.48025" pt_clust_6="45.37771"></scales>
<clustering>
<clus scale="   34.480">  1  5  2 -1</clus>
<clus scale="   45.378">  1  6  2 -1</clus>
<clus scale="  160.673">  1  4  2 -1</clus>
<clus scale="   34.480">  1  3  2 -1</clus>
</clustering>
</event>
<event>
 6    0  0.7442036E+002  0.1231879E+03  0.7546771E-02  0.1237929E+00
         21   -1    0    0  505  501  0.00000000000E+00  0.00000000000E+00  0.50288618055E+03  0.50288618055E+03  0.00000000000E+00 0.  1.
         21   -1    0    0  503  502 -0.00000000000E+00 -0.00000000000E+00 -0.69092930395E+03  0.69092930395E+03  0.00000000000E+00 0. -1.
         21    1    1    2  503  504 -0.31057607299E+02 -0.14836358301E+03 -0.31234899174E+03  0.34718614657E+03  0.00000000000E+00 0. -1.
         21    1    1    2  504  506  0.52363853144E+02  0.57746837598E+02  0.27057429182E+03  0.28157968279E+03  0.00000000000E+00 0.  1.
         21    1    1    2  505  502 -0.60172749377E+02  0.10388666449E+03 -0.34335019392E+03  0.36373418109E+03  0.00000000000E+00 0. -1.
         21    1    1    2  506  501  0.38866503532E+02 -0.13269919085E+02  0.19708177045E+03  0.20131547405E+03  0.00000000000E+00 0.  1.
<scales pt_clust_3="123.18792" pt_clust_4="98.88217" pt_clust_5="14000.00000" pt_clust_6="41.06940"></scales>
<clustering>
<clus scale="   41.069">  1  6  2 -1</clus>
<clus scale="   98.882">  1  4  2 -1</clus>
<clus scale="  123.188">  1  3  2 -1</clus>
<clus scale="   41.069">  1  3  2 -1</clus>
</clustering>
</event>
<event>
 6    0  0.7442036E+002  0.9952803E+02  0.7546771E-02  0.1281292E+00
         21   -1    0    0  502  501  0.00000000000E+00  0.00000000000E+00  0.75803894703E+03  0.75803894703E+03  0.00000000000E+00 0.  1.
         21   -1    0    0  506  502 -0.00000000000E+00 -0.00000000000E+00 -0.57312312168E+02  0.57312312168E+02  0.00000000000E+00 0.  1.
         21    1    1    2  503  501 -0.35057670668E+02 -0.36447967583E+02  0.33808610709E+03  0.34184749585E+03  0.00000000000E+00 0.  1.
         21    1    1    2  504  505  0.11622453650E+03 -0.59602667419E+02  0.12374580025E+03  0.17992677380E+03  0.00000000000E+00 0.  1.
         21    1    1    2  505  503 -0.52909221892E+02  0.68197367924E+01  0.16769468149E+03  0.17597556868E+03  0.00000000000E+00 0. -1.
         21    1    1    2  506  504 -0.28257643943E+02  0.89230898209E+02  0.71200046029E+02  0.11760142087E+03  0.00000000000E+00 0.  1.
<scales pt_clust_3="50.57168" pt_clust_4="99.52803" pt_clust_5="67.81143" pt_clust_6="14000.00000"></scales>
<clustering>
<clus scale="   50.572">  1  3  2 -1</clus>
<clus scale="   67.811">  1  5  2 -1</clus>
<clus scale="   99.528">  1  4  2 -1</clus>
<clus scale="   50.572">  1  3  2 -1</clus>
</clustering>
</event>
<event>
 6    0  0.7442036E+002  0.1375406E+03  0.7546771E-02  0.1216677E+00
         21   -1    0    0  506  501  0.00000000000E+00  0.00000000000E+00  0.73209320037E+03  0.73209320037E+03  0.00000000000E+00 0.  1.
         21   -1    0    0  503  502 -0.00000000000E+00 -0.00000000000E+00 -0.46390950790E+03  0.46390950790E+03  0.00000000000E+00 0.  1.
         21    1    1    2  503  501 -0.94934321963E+02 -0.11107218560E+02  0.35638281578E+03  0.36897778683E+03  0.00000000000E+00 0.  1.
         21    1    1    2  504  505  0.55471318650E+02 -0.30800923249E+01 -0.11276679708E+03  0.12570960459E+03  0.00000000000E+00 0.  1.
         21    1    1    2  505  502  0.70870051361E+02 -0.20691097966E+02 -0.33279385573E+03  0.34088478424E+03  0.00000000000E+00 0.  1.
         21    1    1    2  506  504 -0.31407048047E+02  0.34878408852E+02  0.35736152951E+03  0.36043053262E+03  0.00000000000E+00 0.  1.
<scales pt_clust_3="127.50918" pt_clust_4="44.73011" pt_clust_5="44.73011" pt_clust_6="46.93513"></scales>
<clustering>
<clus scale="   44.730">  4  5 -1 -1</clus>
<clus scale="   46.935">  1  6  2 -1</clus>
<clus scale="  127.509">  1  3  2 -1</clus>
<clus scale="   46.935">  1  3  2 -1</clus>
</clustering>
</event>
<event>
 6    0  0.7442036E+002  0.2166761E+03  0.7546771E-02  0.1136386E+00
         21   -1    0    0  503  501  0.00000000000E+00  0.00000000000E+00  0.23158410360E+03  0.23158410360E+03  0.00000000000E+00 0.  1.
         21   -1    0    0  505  502 -0.00000000000E+00 -0.00000000000E+00 -0.11809721895E+04  0.11809721895E+04  0.00000000000E+00 0.  1.
         21    1    1    2  503  502 -0.18200933848E+03  0.47508484361E+02  0.81725367967E+02  0.20509385937E+03  0.00000000000E+00 0.  1.
         21    1    1    2  504  501  0.62113943014E+02  0.13414777999E+03  0.48682734652E+01  0.14791034067E+03  0.00000000000E+00 0.  1.
         21    1    1    2  505  506  0.34926543034E+02 -0.67557298580E+02 -0.46110346309E+03  0.46733313137E+03  0.00000000000E+00 0.  1.
         21    1    1    2  506  504  0.84968852436E+02 -0.11409896577E+03 -0.57487826422E+03  0.59221896166E+03  0.00000000000E+00 0.  1.
<scales pt_clust_3="211.96684" pt_clust_4="147.83020" pt_clust_5="32.85000" pt_clust_6="32.85000"></scales>
<clustering>
<clus scale="   32.850">  5  6 -1 -1</clus>
<clus scale="  147.830">  1  4  2 -1</clus>
<clus scale="  211.967">  1  3  2 -1</clus>
<clus scale="  147.830">  1  3  2 -1</clus>
</clustering>
</event>
<event>
 6    0  0.7442036E+002  0.1095311E+03  0.7546771E-02  0.1261441E+00
         21   -1    0    0  504  501  0.00000000000E+00  0.00000000000E+00  0.16519674178E+03  0.16519674178E+03  0.00000000000E+00 0. -1.
         21   -1    0    0  506  502 -0.00000000000E+00 -0.00000000000E+00 -0.20802521761E+03  0.20802521761E+03  0.00000000000E+00 0. -1.
         21    1    1    2  503  502  0.64360378195E+02 -0.12294256399E+03  0.25478163457E+02  0.14108957841E+03  0.00000000000E+00 0. -1.
         21    1    1    2  504  503 -0.29432806164E+02  0.16556899839E+02  0.50406068994E+02  0.60672834138E+02  0.00000000000E+00 0. -1.
         21    1    1    2  505  501 -0.34431946010E+02  0.73935218632E+02 -0.11161457510E+03  0.13823815984E+03  0.00000000000E+00 0. -1.
         21    1    1    2  506  505 -0.49562602079E+00  0.32450445521E+02 -0.70981331771E+01  0.33221387001E+02  0.00000000000E+00 0. -1.
<scales pt_clust_3="109.53109" pt_clust_4="34.22523" pt_clust_5="14000.00000" pt_clust_6="32.45423"></scales>
<clustering>
<clus scale="   32.454">  2  6  1 -1</clus>
<clus scale="   34.225">  1  4  2 -1</clus>
<clus scale="  109.531">  1  3  2 -1</clus>
<clus scale="   34.225">  1  3  2 -1</clus>
</clustering>
</event>
<event>
 6    0  0.7442036E+002  0.1320885E+03  0.7546771E-02  0.1224389E+00
         21   -1    0    0  506  501  0.00000000000E+00  0.00000000000E+00  0.12721581586E+03  0.12721581586E+03  0.00000000000E+00 0.  1.
         21   -1    0    0  503  502 -0.00000000000E+00 -0.00000000000E+00 -0.38044126863E+03  0.38044126863E+03  0.00000000000E+00 0.  1.
         21    1    1    2  503  505  0.32680276647E+02  0.51446420290E+02 -0.14654779524E+03  0.15871670023E+03  0.00000000000E+00 0.  1.
         21    1    1    2  504  502 -0.10035636215E+03 -0.42196748981E+02  0.48872162974E+02  0.11933337070E+03  0.00000000000E+00 0.  1.
         21    1    1    2  505  501  0.65494192230E+02  0.36496631411E+02 -0.16642579116E+03  0.18253503029E+03  0.00000000000E+00 0.  1.
         21    1    1    2  506  504  0.21818932710E+01 -0.45746302720E+02  0.10875970659E+02  0.47071983266E+02  0.00000000000E+00 0.  1.
<scales pt_clust_3="30.28219" pt_clust_4="127.74702" pt_clust_5="30.28219" pt_clust_6="45.79831"></scales>
<clustering>
<clus scale="   30.282">  3  5 -1 -1</clus>
<clus scale="   45.798">  1  6  2 -1</clus>
<clus scale="  127.747">  1  4  2 -1</clus>
<clus scale="   45.798">  1  3  2 -1</clus>
</clustering>
</event>
<event>
 6    0  0.1895623E+003  0.1163330E+03  0.7546771E-02  0.1249272E+00
         21   -1    0    0  503  501  0.00000000000E+00  0.00000000000E+00  0.31103941068E+03  0.31103941068E+03  0.00000000000E+00 0. -1.
         21   -1    0    0  506  502 -0.00000000000E+00 -0.00000000000E+00 -0.66109442220E+03  0.66109442220E+03  0.00000000000E+00 0.  1.
         21    1    1    2  503  504 -0.35910669707E+00  0.36930592710E+02  0.75911467598E+01  0.37704418105E+02  0.00000000000E+00 0. -1.
         21    1    1    2  504  502 -0.18535815066E+02 -0.97590867641E+02 -0.61144040581E+03  0.61945695875E+03  0.00000000000E+00 0.  1.
         21    1    1    2  505  501  0.46444133805E+02  0.72581588058E+02  0.26818130772E+03  0.28168485636E+03  0.00000000000E+00 0. -1.
         21    1    1    2  506  505 -0.27549212041E+02 -0.11921313126E+02 -0.14387060201E+02  0.33287599673E+02  0.00000000000E+00 0. -1.
<scales pt_clust_3="36.66284" pt_clust_4="116.33299" pt_clust_5="14000.00000" pt_clust_6="30.01794"></scales>
<clustering>
<clus scale="   30.018">  2  6  1 -1</clus>
<clus scale="   36.663">  1  3  2 -1</clus>
<clus scale="  116.333">  2  4  1 -1</clus>
<clus scale="   36.663">  1  3  2 -1</clus>
</clustering>
</event>
<event>
 6    0  0.7442036E+002  0.8633737E+02  0.7546771E-02  0.1311972E+00
         21   -1    0    0  506  501  0.00000000000E+00  0.00000000000E+00  0.14493881044E+03  0.14493881044E+03  0.00000000000E+00 0. -1.
         21   -1    0    0  503  502 -0.00000000000E+00 -0.00000000000E+00 -0.23392827027E+03  0.23392827027E+03  0.00000000000E+00 0. -1.
         21    1    1    2  503  505  0.72583100341E+02  0.60729858943E+02 -0.12608098041E+03  0.15764782220E+03  0.00000000000E+00 0. -1.
         21    1    1    2  504  502 -0.37982793217E+02 -0.68427582939E+02 -0.49335331502E+02  0.92514872436E+02  0.00000000000E+00 0. -1.
         21    1    1    2  505  501  0.47154917725E+01  0.34749128068E+02  0.69895067596E+02  0.78198837832E+02  0.00000000000E+00 0. -1.
         21    1    1    2  506  504 -0.39315798896E+02 -0.27051404072E+02  0.16531784486E+02  0.50505548244E+02  0.00000000000E+00 0. -1.
<scales pt_clust_3="86.33737" pt_clust_4="14000.00000" pt_clust_5="35.06762" pt_clust_6="38.57728"></scales>
<clustering>
<clus scale="   35.068">  1  5  2 -1</clus>
<clus scale="   38.577">  1  6  2 -1</clus>
<clus scale="   86.337">  2  3  1 -1</clus>
<clus scale="   35.068">  1  3  2 -1</clus>
</clustering>
</event>
<event>
 6    0  0.7442036E+002  0.8289347E+02  0.7546771E-02  0.1321035E+00
         21   -1    0    0  503  501  0.00000000000E+00  0.00000000000E+00  0.25011590506E+03  0.25011590506E+03  0.00000000000E+00 0. -1.
         21   -1    0    0  505  502 -0.00000000000E+00 -0.00000000000E+00 -0.72478190087E+03  0.72478190087E+03  0.00000000000E+00 0.  1.
         21    1    1    2  503  506 -0.57997591146E+02 -0.19818226913E+02 -0.47283514400E+02  0.77409388518E+02  0.00000000000E+00 0.  1.
         21    1    1    2  504  501  0.85919864346E+02  0.38441754243E+01  0.21927412136E+03  0.23553798223E+03  0.00000000000E+00 0. -1.
         21    1    1    2  505  504 -0.73521830281E+02 -0.22337598688E+02 -0.44858073631E+03  0.45511438653E+03  0.00000000000E+00 0.  1.
         21    1    1    2  506  502  0.45599557081E+02  0.38311650176E+02 -0.19807586646E+03  0.20683604865E+03  0.00000000000E+00 0. -1.
<scales pt_clust_3="14000.00000" pt_clust_4="82.89347" pt_clust_5="35.74705" pt_clust_6="59.55755"></scales>
<clustering>
<clus scale="   59.558">  2  6  1 -1</clus>
<clus scale="   35.747">  2  5  1 -1</clus>
<clus scale="   82.893">  1  4  2 -1</clus>
<clus scale="   82.893">  1  3  2 -1</clus>
</clustering>
</event>
<event>
 6    0  0.7442036E+002  0.1046710E+03  0.7546771E-02  0.1270769E+00
         21   -1    0    0  503  501  0.00000000000E+00  0.00000000000E+00  0.16824319154E+03  0.16824319154E+03  0.00000000000E+00 0. -1.
         21   -1    0    0  505  502 -0.00000000000E+00 -0.00000000000E+00 -0.38621131392E+03  0.38621131392E+03  0.00000000000E+00 0. -1.
         21    1    1    2  503  504  0.47701304259E+02  0.98776906402E+02  0.12241698378E+03  0.16437216791E+03  0.00000000000E+00 0. -1.
         21    1    1    2  504  502  0.33241424241E+02 -0.35350847808E+02 -0.11635571667E+03  0.12606874128E+03  0.00000000000E+00 0.  1.
         21    1    1    2  505  506 -0.54423532961E+02 -0.11697172103E+02 -0.33854331401E+02  0.65152594191E+02  0.00000000000E+00 0.  1.
         21    1    1    2  506  501 -0.26519195539E+02 -0.51728886491E+02 -0.19017505809E+03  0.19886100208E+03  0.00000000000E+00 0. -1.
<scales pt_clust_3="104.67100" pt_clust_4="48.52499" pt_clust_5="51.57031" pt_clust_6="14000.00000"></scales>
<clustering>
<clus scale="   48.525">  2  4  1 -1</clus>
<clus scale="   51.570">  2  5  1 -1</clus>
<clus scale="  104.671">  1  3  2 -1</clus>
<clus scale="  104.671">  1  3  2 -1</clus>
</clustering>
</event>
<event>
 6    0  0.7442036E+002  0.7950786E+02  0.7546771E-02  0.1330454E+00
         21   -1    0    0  503  501  0.00000000000E+00  0.00000000000E+00  0.11730959190E+04  0.11730959190E+04  0.00000000000E+00 0.  1.
         21   -1    0    0  505  502 -0.00000000000E+00 -0.00000000000E+00 -0.21385529284E+03  0.21385529284E+03  0.00000000000E+00 0. -1.
         21    1    1    2  503  506  0.32352436861E+02 -0.32681850013E+02  0.13037785997E+03  0.13825038829E+03  0.00000000000E+00 0.  1.
         21    1    1    2  504  501 -0.10295728713E+03  0.70537653321E+02  0.10149322434E+04  0.10225767561E+04  0.00000000000E+00 0.  1.
         21    1    1    2  505  504  0.52969805956E+02  0.14336417067E+02 -0.34417989666E+02  0.64776007981E+02  0.00000000000E+00 0.  1.
         21    1    1    2  506  502  0.17635044318E+02 -0.52192220376E+02 -0.15165148747E+03  0.16134805951E+03  0.00000000000E+00 0. -1.
<scales pt_clust_3="45.98678" pt_clust_4="79.50786" pt_clust_5="55.21027" pt_clust_6="14000.00000"></scales>
<clustering>
<clus scale="   45.987">  1  3  2 -1</clus>
<clus scale="   55.210">  2  5  1 -1</clus>
<clus scale="   79.508">  1  4  2 -1</clus>
<clus scale="   45.987">  1  3  2 -1</clus>
</clustering>
</event>
<event>
 6    0  0.7442036E+002  0.8721474E+02  0.7546771E-02  0.1309740E+00
         21   -1    0    0  503  501  0.00000000000E+00  0.00000000000E+00  0.12825830764E+04  0.12825830764E+04  0.00000000000E+00 0. -1.
         21   -1    0    0  505  502 -0.00000000000E+00 -0.00000000000E+00 -0.38178787953E+02  0.38178787953E+02  0.00000000000E+00 0. -1.
         21    1    1    2  503  502 -0.76783890964E+02 -0.72639887300E+02  0.16934374633E+03  0.19962370491E+03  0.00000000000E+00 0. -1.
         21    1    1    2  504  501 -0.21856391217E+02 -0.20665067083E+02  0.75530589309E+03  0.75590458324E+03  0.00000000000E+00 0. -1.
         21    1    1    2  505  506  0.80746413979E+02  0.15502329588E+02  0.89512248523E+02  0.12154319491E+03  0.00000000000E+00 0. -1.
         21    1    1    2  506  504  0.17893868202E+02  0.77802624795E+02  0.23024240047E+03  0.24369038126E+03  0.00000000000E+00 0. -1.
<scales pt_clust_3="14000.00000" pt_clust_4="30.07901" pt_clust_5="87.21474" pt_clust_6="68.98331"></scales>
<clustering>
<clus scale="   30.079">  1  4  2 -1</clus>
<clus scale="   68.983">  1  6  2 -1</clus>
<clus scale="   87.215">  2  5  1 -1</clus>
<clus scale="   30.079">  1  3  2 -1</clus>
</clustering>
</event>
<event>
 6    0  0.7442036E+002  0.6715859E+02  0.7546771E-02  0.1370031E+00
         21   -1    0    0  503  501  0.00000000000E+00  0.00000000000E+00  0.48289332463E+03  0.48289332463E+03  0.00000000000E+00 0.  1.
         21   -1    0    0  504  502 -0.00000000000E+00 -0.00000000000E+00 -0.45095749473E+03  0.45095749473E+03  0.00000000000E+00 0. -1.
         21    1    1    2  503  506  0.10281038031E+02 -0.65500159633E+02  0.44194270138E+03  0.44688848940E+03  0.00000000000E+00 0.  1.
         21    1    1    2  504  501 -0.53504607592E+02 -0.14843494521E+02 -0.31355317187E+03  0.31843156871E+03  0.00000000000E+00 0. -1.
         21    1    1    2  505  502  0.24019200202E+02 -0.20566875016E+02 -0.41060062071E+02  0.51825158211E+02  0.00000000000E+00 0. -1.
         21    1    1    2  506  505  0.19204369359E+02  0.10091052917E+03 -0.55393637544E+02  0.11670560304E+03  0.00000000000E+00 0. -1.
<scales pt_clust_3="14000.00000" pt_clust_4="46.50147" pt_clust_5="31.62149" pt_clust_6="67.15859"></scales>
<clustering>
<clus scale="   31.621">  2  5  1 -1</clus>
<clus scale="   46.501">  2  4  1 -1</clus>
<clus scale="   67.159">  2  6  1 -1</clus>
<clus scale="   67.159">  1  3  2 -1</clus>
</clustering>
</event>
<event>
 6    0  0.7442036E+002  0.7696528E+02  0.7546771E-02  0.1337891E+00
         21   -1    0    0  504  501  0.00000000000E+00  0.00000000000E+00  0.10322206895E+03  0.10322206895E+03  0.00000000000E+00 0. -1.
         21   -1    0    0  505  502 -0.00000000000E+00 -0.00000000000E+00 -0.94152349695E+03  0.94152349695E+03  0.00000000000E+00 0. -1.
         21    1    1    2  503  502 -0.35106549959E+02 -0.22004112629E+02 -0.10622003739E+03  0.11401467961E+03  0.00000000000E+00 0. -1.
         21    1    1    2  504  503 -0.51431122401E+02  0.10644255835E+03  0.45980926316E+02  0.12684409393E+03  0.00000000000E+00 0. -1.
         21    1    1    2  505  506  0.36329073346E+02 -0.55495389319E+02 -0.71564893841E+03  0.71871617684E+03  0.00000000000E+00 0. -1.
         21    1    1    2  506  501  0.50208599014E+02 -0.28943056406E+02 -0.62413378519E+02  0.85170615515E+02  0.00000000000E+00 0. -1.
<scales pt_clust_3="41.43249" pt_clust_4="14000.00000" pt_clust_5="76.96528" pt_clust_6="56.32306"></scales>
<clustering>
<clus scale="   41.432">  2  3  1 -1</clus>
<clus scale="   56.323">  1  6  2 -1</clus>
<clus scale="   76.965">  2  5  1 -1</clus>
<clus scale="   56.323">  1  3  2 -1</clus>
</clustering>
</event>
<event>
 6    0  0.7442036E+002  0.1352507E+03  0.7546771E-02  0.1219866E+00
         21   -1    0    0  504  501  0.00000000000E+00  0.00000000000E+00  0.46454636863E+03  0.46454636863E+03  0.00000000000E+00 0.  1.
         21   -1    0    0  505  502 -0.00000000000E+00 -0.00000000000E+00 -0.36462116956E+03  0.36462116956E+03  0.00000000000E+00 0.  1.
         21    1    1    2  503  502 -0.90832522178E+02 -0.83346633000E+02  0.17675771684E+03  0.21550057722E+03  0.00000000000E+00 0.  1.
         21    1    1    2  504  503 -0.31398428649E+02  0.90974274249E+01  0.19894830131E+03  0.20161609832E+03  0.00000000000E+00 0.  1.
         21    1    1    2  505  506  0.41561713718E+02 -0.40675616080E+02 -0.26491192256E+03  0.27121985272E+03  0.00000000000E+00 0.  1.
         21    1    1    2  506  501  0.80669237109E+02  0.11492482166E+03 -0.10868896522E+02  0.14083100994E+03  0.00000000000E+00 0.  1.
<scales pt_clust_3="135.25066" pt_clust_4="32.68982" pt_clust_5="57.81048" pt_clust_6="14000.00000"></scales>
<clustering>
<clus scale="   32.690">  1  4  2 -1</clus>
<clus scale="   57.810">  2  5  1 -1</clus>
<clus scale="  135.251">  1  3  2 -1</clus>
<clus scale="   32.690">  1  3  2 -1</clus>
</clustering>
</event>
<event>
 6    0  0.7442036E+002  0.7251935E+02  0.7546771E-02  0.1351730E+00
         21   -1    0    0  506  501  0.00000000000E+00  0.00000000000E+00  0.21571870725E+03  0.21571870725E+03  0.00000000000E+00 0.  1.
         21   -1    0    0  504  502 -0.00000000000E+00 -0.00000000000E+00 -0.41468090264E+03  0.41468090264E+03  0.00000000000E+00 0. -1.
         21    1    1    2  503  501  0.29121464923E+02  0.16250463660E+02  0.36572327494E+02  0.49494165583E+02  0.00000000000E+00 0.  1.
         21    1    1    2  504  503 -0.64620900633E+02 -0.19199276045E+02 -0.44525399980E+02  0.80789753328E+02  0.00000000000E+00 0. -1.
         21    1    1    2  505  502  0.15010582299E+02  0.74642569087E+02 -0.33200202456E+03  0.34062027981E+03  0.00000000000E+00 0. -1.
         21    1    1    2  506  505  0.20488853411E+02 -0.71693756702E+02  0.14099290167E+03  0.15949541117E+03  0.00000000000E+00 0.  1.
<scales pt_clust_3="33.34872" pt_clust_4="64.00016" pt_clust_5="72.51935" pt_clust_6="14000.00000"></scales>
<clustering>
<clus scale="   33.349">  1  3  2 -1</clus>
<clus scale="   64.000">  2  4  1 -1</clus>
<clus scale="   72.519">  2  5  1 -1</clus>
<clus scale="   33.349">  1  3  2 -1</clus>
</clustering>
</event>
<event>
 6    0  0.7442036E+002  0.1391131E+03  0.7546771E-02  0.1214527E+00
         21   -1    0    0  505  501  0.00000000000E+00  0.00000000000E+00  0.10842065536E+03  0.10842065536E+03  0.00000000000E+00 0. -1.
         21   -1    0    0  506  502 -0.00000000000E+00 -0.00000000000E+00 -0.17103039477E+04  0.17103039477E+04  0.00000000000E+00 0. -1.
         21    1    1    2  503  502 -0.84975023405E+02  0.10140351176E+03 -0.11896838400E+04  0.11970175713E+04  0.00000000000E+00 0. -1.
         21    1    1    2  504  503  0.17103416633E+03  0.37429625149E+02 -0.39211185246E+03  0.42942446103E+03  0.00000000000E+00 0. -1.
         21    1    1    2  505  504 -0.44438704431E+02 -0.79318810751E+02  0.38733572131E+02  0.98825916643E+02  0.00000000000E+00 0. -1.
         21    1    1    2  506  501 -0.41620438497E+02 -0.59514326154E+02 -0.58821172004E+02  0.93456654093E+02  0.00000000000E+00 0. -1.
<scales pt_clust_3="131.57075" pt_clust_4="139.11310" pt_clust_5="14000.00000" pt_clust_6="72.62380"></scales>
<clustering>
<clus scale="   72.624">  1  6  2 -1</clus>
<clus scale="  131.571">  2  3  1 -1</clus>
<clus scale="  139.113">  2  4  1 -1</clus>
<clus scale="   72.624">  1  3  2 -1</clus>
</clustering>
</event>
<event>
 6    0  0.7442036E+002  0.3093475E+03  0.7546771E-02  0.1080659E+00
         21   -1    0    0  506  501  0.00000000000E+00  0.00000000000E+00  0.10348112431E+04  0.10348112431E+04  0.00000000000E+00 0.  1.
         21   -1    0    0  505  502 -0.00000000000E+00 -0.00000000000E+00 -0.16769449394E+03  0.16769449394E+03  0.00000000000E+00 0.  1.
         21    1    1    2  503  501 -0.54434742139E+02 -0.20933361390E+02  0.44751896091E+03  0.45130318761E+03  0.00000000000E+00 0.  1.
         21    1    1    2  504  503 -0.11753116009E+03  0.68443635769E+02  0.95882752104E+02  0.16640795360E+03  0.00000000000E+00 0.  1.
         21    1    1    2  505  504 -0.11250540586E+03  0.11116042643E+03  0.75419587200E+02  0.17522049219E+03  0.00000000000E+00 0.  1.
         21    1    1    2  506  502  0.28447130808E+03 -0.15867070081E+03  0.24829544895E+03  0.40957410366E+03  0.00000000000E+00 0.  1.
<scales pt_clust_3="58.32107" pt_clust_4="43.40732" pt_clust_5="43.40732" pt_clust_6="305.78558"></scales>
<clustering>
<clus scale="   43.407">  4  5 -1 -1</clus>
<clus scale="   58.321">  1  3  2 -1</clus>
<clus scale="  305.786">  1  6  2 -1</clus>
<clus scale="   58.321">  1  3  2 -1</clus>
</clustering>
</event>
<event>
 6    0  0.7442036E+002  0.1306254E+03  0.7546771E-02  0.1226531E+00
         21   -1    0    0  503  501  0.00000000000E+00  0.00000000000E+00  0.78343942720E+03  0.78343942720E+03  0.00000000000E+00 0.  1.
         21   -1    0    0  505  502 -0.00000000000E+00 -0.00000000000E+00 -0.11859719485E+03  0.11859719485E+03  0.00000000000E+00 0.  1.
         21    1    1    2  503  502 -0.26109860405E+02 -0.18880711201E+03  0.21922444507E+03  0.29049820597E+03  0.00000000000E+00 0.  1.
         21    1    1    2  504  501  0.53365192408E+02  0.10743368955E+03  0.48922488758E+03  0.50371701583E+03  0.00000000000E+00 0.  1.
         21    1    1    2  505  506  0.10809260508E+02  0.40717392918E+02 -0.25564730336E+02  0.49277800640E+02  0.00000000000E+00 0.  1.
         21    1    1    2  506  504 -0.38064592510E+02  0.40656029542E+02 -0.18042369959E+02  0.58543599606E+02  0.00000000000E+00 0.  1.
<scales pt_clust_3="130.62535" pt_clust_4="14000.00000" pt_clust_5="42.12774" pt_clust_6="68.34015"></scales>
<clustering>
<clus scale="   42.128">  2  5  1 -1</clus>
<clus scale="   68.340">  2  6  1 -1</clus>
<clus scale="  130.625">  2  3  1 -1</clus>
<clus scale="  130.625">  1  3  2 -1</clus>
</clustering>
</event>
<event>
 6    0  0.7442036E+002  0.1021862E+03  0.7546771E-02  0.1275765E+00
         21   -1    0    0  505  501  0.00000000000E+00  0.00000000000E+00  0.66863557619E+03  0.66863557619E+03  0.00000000000E+00 0.  1.
         21   -1    0    0  506  502 -0.00000000000E+00 -0.00000000000E+00 -0.13387864417E+03  0.13387864417E+03  0.00000000000E+00 0. -1.
         21    1    1    2  503  501  0.18514541115E+02 -0.89124984657E+02  0.49167392037E+03  0.50002929424E+03  0.00000000000E+00 0.  1.
         21    1    1    2  504  502  0.42780256970E+02  0.79881811995E+02 -0.98020476395E+02  0.13348883124E+03  0.00000000000E+00 0. -1.
         21    1    1    2  505  504 -0.35367092717E+02 -0.14714196616E+02  0.12397601346E+03  0.12975897172E+03  0.00000000000E+00 0.  1.
         21    1    1    2  506  503 -0.25927705368E+02  0.23957369278E+02  0.17127474588E+02  0.39237123164E+02  0.00000000000E+00 0. -1.
<scales pt_clust_3="14000.00000" pt_clust_4="102.18619" pt_clust_5="38.66015" pt_clust_6="35.30158"></scales>
<clustering>
<clus scale="   35.302">  2  6  1 -1</clus>
<clus scale="   38.660">  1  5  2 -1</clus>
<clus scale="  102.186">  2  4  1 -1</clus>
<clus scale="   38.660">  1  3  2 -1</clus>
</clustering>
</event>
<event>
 6    0  0.7442036E+002  0.1101970E+03  0.7546771E-02  0.1260205E+00
         21   -1    0    0  505  501  0.00000000000E+00  0.00000000000E+00  0.60355476941E+03  0.60355476941E+03  0.00000000000E+00 0.  1.
         21   -1    0    0  506  502 -0.00000000000E+00 -0.00000000000E+00 -0.24519448087E+03  0.24519448087E+03  0.00000000000E+00 0.  1.
         21    1    1    2  503  502  0.50056888900E+02 -0.13890531442E+02 -0.13828541590E+03  0.14772100474E+03  0.00000000000E+00 0.  1.
         21    1    1    2  504  503  0.45430987107E+02 -0.28552655011E+02 -0.79961721182E+02  0.96296965436E+02  0.00000000000E+00 0. -1.
         21    1    1    2  505  504 -0.12150989002E+03  0.65763833917E+02  0.36532622149E+03  0.39058006008E+03  0.00000000000E+00 0.  1.
         21    1    1    2  506  501  0.26022014016E+02 -0.23320647464E+02  0.21128120414E+03  0.21415122002E+03  0.00000000000E+00 0.  1.
<scales pt_clust_3="31.01506" pt_clust_4="31.01506" pt_clust_5="105.59257" pt_clust_6="34.94278"></scales>
<clustering>
<clus scale="   31.015">  3  4 -1 -1</clus>
<clus scale="   34.943">  1  6  2 -1</clus>
<clus scale="  105.593">  1  5  2 -1</clus>
<clus scale="   34.943">  1  3  2 -1</clus>
</clustering>
</event>
<event>
 6    0  0.7442036E+002  0.8386149E+02  0.7546771E-02  0.1318437E+00
         21   -1    0    0  506  501  0.00000000000E+00  0.00000000000E+00  0.10963162529E+04  0.10963162529E+04  0.00000000000E+00 0. -1.
         21   -1    0    0  504  502 -0.00000000000E+00 -0.00000000000E+00 -0.15799072176E+03  0.15799072176E+03  0.00000000000E+00 0.  1.
         21    1    1    2  503  501 -0.60178230312E+01  0.69327421408E+02  0.43585639597E+03  0.44137660049E+03  0.00000000000E+00 0. -1.
         21    1    1    2  504  503 -0.52233823490E+02  0.64957283330E+02  0.40495141977E+02  0.92669722659E+02  0.00000000000E+00 0.  1.
         21    1    1    2  505  502 -0.48946763823E+01 -0.13350173581E+03 -0.92315817686E+02  0.16238497935E+03  0.00000000000E+00 0.  1.
         21    1    1    2  506  505  0.63146322903E+02 -0.78296892324E+00  0.55428981092E+03  0.55787567220E+03  0.00000000000E+00 0. -1.
<scales pt_clust_3="14000.00000" pt_clust_4="78.63098" pt_clust_5="83.86149" pt_clust_6="63.15118"></scales>
<clustering>
<clus scale="   63.151">  1  6  2 -1</clus>
<clus scale="   78.631">  2  4  1 -1</clus>
<clus scale="   83.861">  2  5  1 -1</clus>
<clus scale="   63.151">  1  3  2 -1</clus>
</clustering>
</event>
<event>
 6    0  0.7442036E+002  0.1519589E+03  0.7546771E-02  0.1198086E+00
         21   -1    0    0  505  501  0.00000000000E+00  0.00000000000E+00  0.62628720181E+03  0.62628720181E+03  0.00000000000E+00 0. -1.
         21   -1    0    0  506  502 -0.00000000000E+00 -0.00000000000E+00 -0.16152835730E+03  0.16152835730E+03  0.00000000000E+00 0.  1.
         21    1    1    2  503  504  0.81949794730E+02 -0.68163502981E+02 -0.83521825067E+02  0.13541760320E+03  0.00000000000E+00 0.  1.
         21    1    1    2  504  502  0.49690066183E+02  0.61042321305E+01 -0.22924625344E+02  0.55062716736E+02  0.00000000000E+00 0.  1.
         21    1    1    2  505  503 -0.68989208717E+02  0.77107696130E+02  0.26623929258E+03  0.28563695250E+03  0.00000000000E+00 0. -1.
         21    1    1    2  506  501 -0.62650652196E+02 -0.15048425279E+02  0.30496600234E+03  0.31169828666E+03  0.00000000000E+00 0. -1.
<scales pt_clust_3="42.08759" pt_clust_4="42.08759" pt_clust_5="138.99641" pt_clust_6="64.43260"></scales>
<clustering>
<clus scale="   42.088">  3  4 -1 -1</clus>
<clus scale="   64.433">  1  6  2 -1</clus>
<clus scale="  138.996">  1  5  2 -1</clus>
<clus scale="   64.433">  1  3  2 -1</clus>
</clustering>
</event>
<event>
 6    0  0.7442036E+002  0.1513381E+03  0.7546771E-02  0.1198838E+00
         21   -1    0    0  504  501  0.00000000000E+00  0.00000000000E+00  0.40863801478E+03  0.40863801478E+03  0.00000000000E+00 0. -1.
         21   -1    0    0  503  502 -0.00000000000E+00 -0.00000000000E+00 -0.16235553130E+03  0.16235553130E+03  0.00000000000E+00 0.  1.
         21    1    1    2  503  506 -0.20402770958E+02 -0.59316238648E+02  0.21538065414E+02  0.66321772382E+02  0.00000000000E+00 0.  1.
         21    1    1    2  504  502  0.87959401012E+02  0.16762971199E+03 -0.25922301123E+02  0.19107208656E+03  0.00000000000E+00 0.  1.
         21    1    1    2  505  501 -0.18665263582E+02 -0.91902678651E+02  0.24424450475E+03  0.26162926539E+03  0.00000000000E+00 0. -1.
         21    1    1    2  506  505 -0.48891366472E+02 -0.16410794692E+02  0.64222144389E+01  0.51970421743E+02  0.00000000000E+00 0.  1.
<scales pt_clust_3="46.89667" pt_clust_4="142.22596" pt_clust_5="93.77897" pt_clust_6="46.89667"></scales>
<clustering>
<clus scale="   46.897">  3  6 -1 -1</clus>
<clus scale="   93.779">  1  5  2 -1</clus>
<clus scale="  142.226">  1  4  2 -1</clus>
<clus scale="   93.779">  1  3  2 -1</clus>
</clustering>
</event>
<event>
 6    0  0.7442036E+002  0.9264035E+02  0.7546771E-02  0.1296581E+00
         21   -1    0    0  506  501  0.00000000000E+00  0.00000000000E+00  0.97414283583E+03  0.97414283583E+03  0.00000000000E+00 0.  1.
         21   -1    0    0  503  502 -0.00000000000E+00 -0.00000000000E+00 -0.61814094834E+02  0.61814094834E+02  0.00000000000E+00 0.  1.
         21    1    1    2  503  504  0.77032860318E+01 -0.40959871607E+02  0.28154092196E+02  0.50296168891E+02  0.00000000000E+00 0.  1.
         21    1    1    2  504  501  0.79706535203E+02 -0.15685533649E+02  0.40593103518E+02  0.90812817230E+02  0.00000000000E+00 0.  1.
         21    1    1    2  505  502  0.65131564841E+01  0.54350264420E+02  0.95798366181E+01  0.55571087083E+02  0.00000000000E+00 0.  1.
         21    1    1    2  506  505 -0.93922977719E+02  0.22951408358E+01  0.83400170866E+03  0.83927685746E+03  0.00000000000E+00 0.  1.
<scales pt_clust_3="41.67795" pt_clust_4="92.64035" pt_clust_5="37.16012" pt_clust_6="14000.00000"></scales>
<clustering>
<clus scale="   41.678">  2  3  1 -1</clus>
<clus scale="   37.160">  2  5  1 -1</clus>
<clus scale="   92.640">  2  4  1 -1</clus>
<clus scale="   92.640">  1  3  2 -1</clus>
</clustering>
</event>
<event>
 6    0  0.8845958E+002  0.1325454E+03  0.7546771E-02  0.1223727E+00
         21   -1    0    0  502  501  0.00000000000E+00  0.00000000000E+00  0.45055909165E+03  0.45055909165E+03  0.00000000000E+00 0. -1.
         21   -1    0    0  504  502 -0.00000000000E+00 -0.00000000000E+00 -0.57643357546E+03  0.57643357546E+03  0.00000000000E+00 0. -1.
         21    1    1    2  503  501  0.10447023584E+02  0.11665903433E+03  0.42465632880E+03  0.44051273328E+03  0.00000000000E+00 0. -1.
         21    1    1    2  504  506  0.38914888384E+02  0.72399657393E+01 -0.44582884592E+02  0.59618950347E+02  0.00000000000E+00 0. -1.
         21    1    1    2  505  503  0.13863855941E+02 -0.31966247261E+02 -0.10200630347E+03  0.10779301190E+03  0.00000000000E+00 0.  1.
         21    1    1    2  506  505 -0.63225767910E+02 -0.91932752813E+02 -0.40394162455E+03  0.41906797159E+03  0.00000000000E+00 0. -1.
<scales pt_clust_3="117.28881" pt_clust_4="39.58264" pt_clust_5="34.50083" pt_clust_6="34.50083"></scales>
<clustering>
<clus scale="   34.501">  5  6 -1 -1</clus>
<clus scale="   39.583">  2  4  1 -1</clus>
<clus scale="  117.289">  1  3  2 -1</clus>
<clus scale="  117.289">  1  3  2 -1</clus>
</clustering>
</event>
<event>
 6    0  0.7442036E+002  0.1104219E+03  0.7546771E-02  0.1259791E+00
         21   -1    0    0  506  501  0.00000000000E+00  0.00000000000E+00  0.13184799239E+03  0.13184799239E+03  0.00000000000E+00 0.  1.
         21   -1    0    0  505  502 -0.00000000000E+00 -0.00000000000E+00 -0.94425572228E+03  0.94425572228E+03  0.00000000000E+00 0. -1.
         21    1    1    2  503  502  0.61971781598E+02  0.11297874401E+03 -0.78710553921E+03  0.79758374367E+03  0.00000000000E+00 0. -1.
         21    1    1    2  504  501 -0.24079814176E+02  0.21142664706E+02 -0.82981780981E+01  0.33101502706E+02  0.00000000000E+00 0. -1.
         21    1    1    2  505  504 -0.52987172732E+02 -0.49468989326E+02 -0.10158953271E+03  0.12480085951E+03  0.00000000000E+00 0.  1.
         21    1    1    2  506  503  0.15095205310E+02 -0.84652419394E+02  0.84585520127E+02  0.12061760878E+03  0.00000000000E+00 0.  1.
<scales pt_clust_3="110.42195" pt_clust_4="32.04450" pt_clust_5="14000.00000" pt_clust_6="66.72583"></scales>
<clustering>
<clus scale="   32.044">  1  4  2 -1</clus>
<clus scale="   66.726">  1  6  2 -1</clus>
<clus scale="  110.422">  2  3  1 -1</clus>
<clus scale="   32.044">  1  3  2 -1</clus>
</clustering>
</event>
<event>
 6    0  0.7442036E+002  0.7329590E+02  0.7546771E-02  0.1349231E+00
         21   -1    0    0  506  501  0.00000000000E+00  0.00000000000E+00  0.18106826847E+03  0.18106826847E+03  0.00000000000E+00 0. -1.
         21   -1    0    0  503  502 -0.00000000000E+00 -0.00000000000E+00 -0.77686466182E+03  0.77686466182E+03  0.00000000000E+00 0.  1.
         21    1    1    2  503  501 -0.10019991011E+03  0.98828405644E+01 -0.35450959723E+02  0.10674485031E+03  0.00000000000E+00 0. -1.
         21    1    1    2  504  505  0.95176020879E+02  0.36104652433E+02 -0.45531191797E+03  0.46655220879E+03  0.00000000000E+00 0.  1.
         21    1    1    2  505  502 -0.31361968021E+02 -0.24231385302E+02 -0.23995747078E+03  0.24320838978E+03  0.00000000000E+00 0. -1.
         21    1    1    2  506  504  0.36385857251E+02 -0.21756107695E+02  0.13492395513E+03  0.14142748141E+03  0.00000000000E+00 0. -1.
<scales pt_clust_3="14000.00000" pt_clust_4="73.29590" pt_clust_5="39.63247" pt_clust_6="42.30671"></scales>
<clustering>
<clus scale="   39.632">  2  5  1 -1</clus>
<clus scale="   42.307">  1  6  2 -1</clus>
<clus scale="   73.296">  2  4  1 -1</clus>
<clus scale="   42.307">  1  3  2 -1</clus>
</clustering>
</event>
<event>
 6    0  0.7442036E+002  0.8397382E+02  0.7546771E-02  0.1318138E+00
         21   -1    0    0  505  501  0.00000000000E+00  0.00000000000E+00  0.11940440223E+03  0.11940440223E+03  0.00000000000E+00 0. -1.
         21   -1    0    0  506  502 -0.00000000000E+00 -0.00000000000E+00 -0.45806286109E+03  0.45806286109E+03  0.00000000000E+00 0. -1.
         21    1    1    2  503  502  0.23623727316E+02 -0.53693896323E+02 -0.30159021607E+03  0.30724220645E+03  0.00000000000E+00 0. -1.
         21    1    1    2  504  501 -0.72648643601E+02  0.54878059683E+02  0.44166724438E+02  0.10119350967E+03  0.00000000000E+00 0. -1.
         21    1    1    2  505  503  0.73886554525E+02 -0.23446419708E+02  0.38733550850E+01  0.77614176645E+02  0.00000000000E+00 0. -1.
         21    1    1    2  506  504 -0.24861638240E+02  0.22262256348E+02 -0.85108322307E+02  0.91417370557E+02  0.00000000000E+00 0.  1.
<scales pt_clust_3="35.50849" pt_clust_4="83.97382" pt_clust_5="14000.00000" pt_clust_6="33.37228"></scales>
<clustering>
<clus scale="   33.372">  2  6  1 -1</clus>
<clus scale="   35.508">  2  3  1 -1</clus>
<clus scale="   83.974">  1  4  2 -1</clus>
<clus scale="   83.974">  1  3  2 -1</clus>
</clustering>
</event>
<event>
 6    0  0.7442036E+002  0.5738306E+02  0.7546771E-02  0.1409154E+00
         21   -1    0    0  505  501  0.00000000000E+00  0.00000000000E+00  0.17186744683E+02  0.17186744683E+02  0.00000000000E+00 0. -1.
         21   -1    0    0  506  502 -0.00000000000E+00 -0.00000000000E+00 -0.22364498125E+04  0.22364498125E+04  0.00000000000E+00 0. -1.
         21    1    1    2  503  501 -0.69828731493E+02  0.30074617487E+02 -0.16188027424E+03  0.17884562490E+03  0.00000000000E+00 0. -1.
         21    1    1    2  504  502 -0.15513732111E+02 -0.81576311882E+02 -0.12424636753E+04  0.12452354617E+04  0.00000000000E+00 0. -1.
         21    1    1    2  505  504  0.47734994745E+02  0.20290376216E+02 -0.97191443513E+02  0.11016581041E+03  0.00000000000E+00 0. -1.
         21    1    1    2  506  503  0.37607468858E+02  0.31211318180E+02 -0.71772767477E+03  0.71938966022E+03  0.00000000000E+00 0. -1.
<scales pt_clust_3="57.38306" pt_clust_4="14000.00000" pt_clust_5="55.07472" pt_clust_6="48.87196"></scales>
<clustering>
<clus scale="   48.872">  2  6  1 -1</clus>
<clus scale="   55.075">  1  5  2 -1</clus>
<clus scale="   57.383">  1  3  2 -1</clus>
<clus scale="   55.075">  1  3  2 -1</clus>
</clustering>
</event>
<event>
 6    0  0.7442036E+002  0.1806988E+03  0.7546771E-02  0.1167128E+00
         21   -1    0    0  504  501  0.00000000000E+00  0.00000000000E+00  0.18583140477E+03  0.18583140477E+03  0.00000000000E+00 0.  1.
         21   -1    0    0  505  502 -0.00000000000E+00 -0.00000000000E+00 -0.31023283704E+04  0.31023283704E+04  0.00000000000E+00 0.  1.
         21    1    1    2  503  502  0.19664556832E+02 -0.60396454638E+02 -0.23377016909E+04  0.23385644362E+04  0.00000000000E+00 0.  1.
         21    1    1    2  504  503  0.18017535857E+03  0.35949339408E+01  0.11969118967E+03  0.21633784752E+03  0.00000000000E+00 0.  1.
         21    1    1    2  505  506 -0.13037680290E+02  0.28533759288E+02 -0.14689473513E+03  0.15020725594E+03  0.00000000000E+00 0.  1.
         21    1    1    2  506  501 -0.18680223511E+03  0.28267761409E+02 -0.55159172931E+03  0.58305023559E+03  0.00000000000E+00 0.  1.
<scales pt_clust_3="38.94743" pt_clust_4="180.69883" pt_clust_5="31.37127" pt_clust_6="14000.00000"></scales>
<clustering>
<clus scale="   31.371">  2  5  1 -1</clus>
<clus scale="   38.947">  2  3  1 -1</clus>
<clus scale="  180.699">  1  4  2 -1</clus>
<clus scale="  180.699">  1  3  2 -1</clus>
</clustering>
</event>
<event>
 6    0  0.7680456E+002  0.1233092E+03  0.7546771E-02  0.1237736E+00
         21   -1    0    0  506  501  0.00000000000E+00  0.00000000000E+00  0.76847527599E+03  0.76847527599E+03  0.00000000000E+00 0. -1.
         21   -1    0    0  503  502 -0.00000000000E+00 -0.00000000000E+00 -0.22598249595E+03  0.22598249595E+03  0.00000000000E+00 0. -1.
         21    1    1    2  503  505 -0.66823846472E+01 -0.39877388032E+02 -0.12450846085E+03  0.13090919434E+03  0.00000000000E+00 0. -1.
         21    1    1    2  504  502  0.28139978484E+02  0.13319974459E+02  0.77521512306E+01  0.32083889374E+02  0.00000000000E+00 0.  1.
         21    1    1    2  505  501  0.46607567731E+02 -0.78841080266E+02 -0.54631000942E+02  0.10664299120E+03  0.00000000000E+00 0. -1.
         21    1    1    2  506  504 -0.68065161567E+02  0.10539849384E+03  0.71388009060E+03  0.72482169703E+03  0.00000000000E+00 0. -1.
<scales pt_clust_3="33.48891" pt_clust_4="31.13326" pt_clust_5="14000.00000" pt_clust_6="123.30916"></scales>
<clustering>
<clus scale="   31.133">  2  4  1 -1</clus>
<clus scale="   33.489">  2  3  1 -1</clus>
<clus scale="  123.309">  1  6  2 -1</clus>
<clus scale="  123.309">  1  3  2 -1</clus>
</clustering>
</event>
<event>
 6    0  0.7442036E+002  0.1174805E+03  0.7546771E-02  0.1247312E+00
         21   -1    0    0  503  501  0.00000000000E+00  0.00000000000E+00  0.96224638090E+03  0.96224638090E+03  0.00000000000E+00 0.  1.
         21   -1    0    0  505  502 -0.00000000000E+00 -0.00000000000E+00 -0.94400589595E+02  0.94400589595E+02  0.00000000000E+00 0.  1.
         21    1    1    2  503  504 -0.11910169725E+02  0.28506635397E+02  0.24119673601E+03  0.24316732073E+03  0.00000000000E+00 0. -1.
         21    1    1    2  504  502  0.10004464802E+03  0.11802817554E+03  0.15130713218E+03  0.21641032800E+03  0.00000000000E+00 0.  1.
         21    1    1    2  505  506 -0.60258192431E+02 -0.89229662136E+02 -0.94707196684E+01  0.10808643250E+03  0.00000000000E+00 0.  1.
         21    1    1    2  506  501 -0.27876285866E+02 -0.57305148799E+02  0.48481264278E+03  0.48898288927E+03  0.00000000000E+00 0.  1.
<scales pt_clust_3="30.89467" pt_clust_4="14000.00000" pt_clust_5="117.48050" pt_clust_6="52.31807"></scales>
<clustering>
<clus scale="   30.895">  1  3  2 -1</clus>
<clus scale="   52.318">  1  6  2 -1</clus>
<clus scale="  117.481">  2  5  1 -1</clus>
<clus scale="   30.895">  1  3  2 -1</clus>
</clustering>
</event>
<event>
 6    0  0.7442036E+002  0.1208855E+03  0.7546771E-02  0.1241643E+00
         21   -1    0    0  504  501  0.00000000000E+00  0.00000000000E+00  0.82717046281E+03  0.82717046281E+03  0.00000000000E+00 0.  1.
         21   -1    0    0  506  502 -0.00000000000E+00 -0.00000000000E+00 -0.87031905254E+03  0.87031905254E+03  0.00000000000E+00 0.  1.
         21    1    1    2  503  505 -0.48474544945E+02 -0.13629978922E+03  0.31616488650E+03  0.34768901263E+03  0.00000000000E+00 0.  1.
         21    1    1    2  504  503  0.40062875440E+02  0.14244465306E+02  0.48408461530E+03  0.48594840627E+03  0.00000000000E+00 0. -1.
         21    1    1    2  505  502 -0.61556379107E+02  0.56994671512E+02 -0.51684820427E+03  0.52361211469E+03  0.00000000000E+00 0.  1.
         21    1    1    2  506  501  0.69968048613E+02  0.65060652404E+02 -0.32654988726E+03  0.34023998176E+03  0.00000000000E+00 0.  1.
<scales pt_clust_3="14000.00000" pt_clust_4="42.51986" pt_clust_5="83.69620" pt_clust_6="120.88550"></scales>
<clustering>
<clus scale="   42.520">  1  4  2 -1</clus>
<clus scale="   83.696">  2  5  1 -1</clus>
<clus scale="  120.886">  2  6  1 -1</clus>
<clus scale="   42.520">  1  3  2 -1</clus>
</clustering>
</event>
<event>
 6    0  0.7442036E+002  0.1396289E+03  0.7546771E-02  0.1213829E+00
         21   -1    0    0  503  501  0.00000000000E+00  0.00000000000E+00  0.23818089549E+03  0.23818089549E+03  0.00000000000E+00 0. -1.
         21   -1    0    0  504  502 -0.00000000000E+00 -0.00000000000E+00 -0.11397539824E+03  0.11397539824E+03  0.00000000000E+00 0.  1.
         21    1    1    2  503  506 -0.31819339500E+02  0.97865505106E+01  0.56867200417E+02  0.65894805716E+02  0.00000000000E+00 0.  1.
         21    1    1    2  504  505  0.33018409891E+02  0.30588360172E+02 -0.51329771149E+01  0.45301331369E+02  0.00000000000E+00 0. -1.
         21    1    1    2  505  501  0.77717717556E+02  0.56269264556E+02  0.65142767501E+02  0.11597350522E+03  0.00000000000E+00 0. -1.
         21    1    1    2  506  502 -0.78916787946E+02 -0.96644175238E+02  0.73285064442E+01  0.12498665142E+03  0.00000000000E+00 0.  1.
<scales pt_clust_3="33.29034" pt_clust_4="36.00706" pt_clust_5="36.00706" pt_clust_6="129.97909"></scales>
<clustering>
<clus scale="   33.290">  1  3  2 -1</clus>
<clus scale="   36.007">  4  5 -1 -1</clus>
<clus scale="  129.979">  2  6  1 -1</clus>
<clus scale="   33.290">  1  3  2 -1</clus>
</clustering>
</event>
<event>
 6    0  0.7442036E+002  0.9869365E+02  0.7546771E-02  0.1283067E+00
         21   -1    0    0  506  501  0.00000000000E+00  0.00000000000E+00  0.19247288812E+04  0.19247288812E+04  0.00000000000E+00 0. -1.
         21   -1    0    0  503  502 -0.00000000000E+00 -0.00000000000E+00 -0.67061182027E+02  0.67061182027E+02  0.00000000000E+00 0.  1.
         21    1    1    2  503  504 -0.11397105533E+03  0.29274799464E+02  0.93802865854E+03  0.94538044172E+03  0.00000000000E+00 0. -1.
         21    1    1    2  504  501  0.89450461213E+02 -0.22785510659E+02  0.82880046148E+03  0.83392491835E+03  0.00000000000E+00 0.  1.
         21    1    1    2  505  502  0.66043309563E+02 -0.20601030731E+01 -0.38567707601E+02  0.76507717469E+02  0.00000000000E+00 0.  1.
         21    1    1    2  506  505 -0.41522715446E+02 -0.44291857321E+01  0.12940628675E+03  0.13597698568E+03  0.00000000000E+00 0. -1.
<scales pt_clust_3="98.69365" pt_clust_4="14000.00000" pt_clust_5="65.63759" pt_clust_6="41.75828"></scales>
<clustering>
<clus scale="   41.758">  1  6  2 -1</clus>
<clus scale="   65.638">  2  5  1 -1</clus>
<clus scale="   98.694">  2  3  1 -1</clus>
<clus scale="   41.758">  1  3  2 -1</clus>
</clustering>
</event>
<event>
 6    0  0.7442036E+002  0.9224230E+02  0.7546771E-02  0.1297511E+00
         21   -1    0    0  506  501  0.00000000000E+00  0.00000000000E+00  0.32842707238E+03  0.32842707238E+03  0.00000000000E+00 0.  1.
         21   -1    0    0  504  502 -0.00000000000E+00 -0.00000000000E+00 -0.45741979673E+03  0.45741979673E+03  0.00000000000E+00 0. -1.
         21    1    1    2  503  505  0.17469734687E+02 -0.62808076425E+02 -0.15184945563E+03  0.16525224135E+03  0.00000000000E+00 0. -1.
         21    1    1    2  504  503 -0.11728881143E+02 -0.31136504152E+02 -0.27049433195E+03  0.27253299280E+03  0.00000000000E+00 0. -1.
         21    1    1    2  505  501 -0.32139673618E+02  0.13436599633E+03  0.23161370027E+03  0.26968886841E+03  0.00000000000E+00 0.  1.
         21    1    1    2  506  502  0.26398820074E+02 -0.40421415751E+02  0.61737362962E+02  0.78372766559E+02  0.00000000000E+00 0.  1.
<scales pt_clust_3="92.24230" pt_clust_4="33.27234" pt_clust_5="14000.00000" pt_clust_6="49.17235"></scales>
<clustering>
<clus scale="   33.272">  2  4  1 -1</clus>
<clus scale="   49.172">  1  6  2 -1</clus>
<clus scale="   92.242">  2  3  1 -1</clus>
<clus scale="   49.172">  1  3  2 -1</clus>
</clustering>
</event>
<event>
 6    0  0.7442036E+002  0.7360898E+02  0.7546771E-02  0.1348233E+00
         21   -1    0    0  506  501  0.00000000000E+00  0.00000000000E+00  0.20275613668E+04  0.20275613668E+04  0.00000000000E+00 0.  1.
         21   -1    0    0  503  502 -0.00000000000E+00 -0.00000000000E+00 -0.25454977008E+03  0.25454977008E+03  0.00000000000E+00 0. -1.
         21    1    1    2  503  504 -0.11454053134E+02 -0.59391362308E+02 -0.20138875954E+03  0.21027591806E+03  0.00000000000E+00 0. -1.
         21    1    1    2  504  501 -0.52530061536E+02 -0.50723310981E+02  0.18929917554E+04  0.18943996537E+04  0.00000000000E+00 0.  1.
         21    1    1    2  505  502  0.33715164680E+02  0.60319045743E+01 -0.99600964381E+01  0.35669310664E+02  0.00000000000E+00 0. -1.
         21    1    1    2  506  505  0.30268949990E+02  0.10408276871E+03  0.91368697314E+02  0.14176625454E+03  0.00000000000E+00 0.  1.
<scales pt_clust_3="57.11053" pt_clust_4="73.60898" pt_clust_5="34.25049" pt_clust_6="14000.00000"></scales>
<clustering>
<clus scale="   34.250">  2  5  1 -1</clus>
<clus scale="   57.111">  2  3  1 -1</clus>
<clus scale="   73.609">  1  4  2 -1</clus>
<clus scale="   73.609">  1  3  2 -1</clus>
</clustering>
</event>
<event>
 6    0  0.7442036E+002  0.1296701E+03  0.7546771E-02  0.1227946E+00
         21   -1    0    0  505  501  0.00000000000E+00  0.00000000000E+00  0.69105323051E+03  0.69105323051E+03  0.00000000000E+00 0. -1.
         21   -1    0    0  506  502 -0.00000000000E+00 -0.00000000000E+00 -0.53234343689E+03  0.53234343689E+03  0.00000000000E+00 0. -1.
         21    1    1    2  503  502  0.15944682904E+02  0.53245167726E+02 -0.34332938889E+03  0.34779929568E+03  0.00000000000E+00 0. -1.
         21    1    1    2  504  501 -0.14458248616E+02 -0.30612823340E+02  0.73369145364E+02  0.80803572925E+02  0.00000000000E+00 0. -1.
         21    1    1    2  505  503 -0.77464380442E+02 -0.65925219219E+02  0.59673365705E+03  0.60534116184E+03  0.00000000000E+00 0. -1.
         21    1    1    2  506  504  0.75977946155E+02  0.43292874832E+02 -0.16806361990E+03  0.18945263695E+03  0.00000000000E+00 0. -1.
<scales pt_clust_3="55.45945" pt_clust_4="33.85537" pt_clust_5="14000.00000" pt_clust_6="129.67013"></scales>
<clustering>
<clus scale="   33.855">  1  4  2 -1</clus>
<clus scale="   55.459">  2  3  1 -1</clus>
<clus scale="  129.670">  2  6  1 -1</clus>
<clus scale="   33.855">  1  3  2 -1</clus>
</clustering>
</event>
<event>
 6    0  0.7442036E+002  0.8528161E+02  0.7546771E-02  0.1314698E+00
         21   -1    0    0  503  501  0.00000000000E+00  0.00000000000E+00  0.27731501109E+03  0.27731501109E+03  0.00000000000E+00 0.  1.
         21   -1    0    0  505  502 -0.00000000000E+00 -0.00000000000E+00 -0.15041608987E+04  0.15041608987E+04  0.00000000000E+00 0.  1.
         21    1    1    2  503  504  0.37755285383E+02  0.25586664656E+02  0.12118777885E+03  0.12948597115E+03  0.00000000000E+00 0.  1.
         21    1    1    2  504  506  0.46760152948E+02 -0.44029661398E+02  0.13594302819E+03  0.15035168738E+03  0.00000000000E+00 0.  1.
         21    1    1    2  505  501  0.42919785545E+02  0.44811767427E+01 -0.72640250443E+02  0.84491389625E+02  0.00000000000E+00 0. -1.
         21    1    1    2  506  502 -0.12743522388E+03  0.13961819999E+02 -0.14113364442E+04  0.14171468616E+04  0.00000000000E+00 0.  1.
<scales pt_clust_3="45.71930" pt_clust_4="85.28161" pt_clust_5="43.15309" pt_clust_6="14000.00000"></scales>
<clustering>
<clus scale="   43.153">  2  5  1 -1</clus>
<clus scale="   45.719">  1  3  2 -1</clus>
<clus scale="   85.282">  1  4  2 -1</clus>
<clus scale="   45.719">  1  3  2 -1</clus>
</clustering>
</event>
<event>
 6    0  0.7442036E+002  0.1020410E+03  0.7546771E-02  0.1276062E+00
         21   -1    0    0  503  501  0.00000000000E+00  0.00000000000E+00  0.12597402220E+02  0.12597402220E+02  0.00000000000E+00 0. -1.
         21   -1    0    0  501  502 -0.00000000000E+00 -0.00000000000E+00 -0.17259201410E+04  0.17259201410E+04  0.00000000000E+00 0. -1.
         21    1    1    2  503  506  0.42585788808E+02 -0.38599042793E+02 -0.21136705949E+03  0.21904216341E+03  0.00000000000E+00 0. -1.
         21    1    1    2  504  505  0.21612463076E+02  0.98505347813E+02 -0.53812195698E+03  0.54749031288E+03  0.00000000000E+00 0. -1.
         21    1    1    2  505  502 -0.78321294961E+02 -0.16652862861E+02 -0.62682313683E+03  0.63191675714E+03  0.00000000000E+00 0. -1.
         21    1    1    2  506  504  0.14123043077E+02 -0.43253442159E+02 -0.33701058546E+03  0.34006830978E+03  0.00000000000E+00 0. -1.
<scales pt_clust_3="39.49887" pt_clust_4="91.87821" pt_clust_5="80.07211" pt_clust_6="39.49887"></scales>
<clustering>
<clus scale="   39.499">  3  6 -1 -1</clus>
<clus scale="   80.072">  2  5  1 -1</clus>
<clus scale="   91.878">  2  4  1 -1</clus>
<clus scale="  102.041">  1  3  2 -1</clus>
</clustering>
</event>
<event>
 6    0  0.7442036E+002  0.5676397E+02  0.7546771E-02  0.1411936E+00
         21   -1    0    0  504  501  0.00000000000E+00  0.00000000000E+00  0.21456724674E+03  0.21456724674E+03  0.00000000000E+00 0. -1.
         21   -1    0    0  506  502 -0.00000000000E+00 -0.00000000000E+00 -0.30830905328E+04  0.30830905328E+04  0.00000000000E+00 0.  1.
         21    1    1    2  503  501 -0.48353606387E+02 -0.25008204760E+02  0.17167955649E+03  0.18010372476E+03  0.00000000000E+00 0. -1.
         21    1    1    2  504  502  0.51548356324E+02 -0.13288931042E+02 -0.69882965437E+03  0.70085427484E+03  0.00000000000E+00 0.  1.
         21    1    1    2  505  503  0.66613180009E+02  0.53143666938E+02 -0.11793418567E+02  0.86027029520E+02  0.00000000000E+00 0.  1.
         21    1    1    2  506  505 -0.69807929945E+02 -0.14846531136E+02 -0.23295797696E+04  0.23306727504E+04  0.00000000000E+00 0.  1.
<scales pt_clust_3="14000.00000" pt_clust_4="53.23372" pt_clust_5="56.76397" pt_clust_6="33.93696"></scales>
<clustering>
<clus scale="   53.234">  2  4  1 -1</clus>
<clus scale="   33.937">  2  6  1 -1</clus>
<clus scale="   56.764">  2  5  1 -1</clus>
<clus scale="   56.764">  1  3  2 -1</clus>
</clustering>
</event>
<event>
 6    0  0.7442036E+002  0.1253659E+03  0.7546771E-02  0.1234499E+00
         21   -1    0    0  504  501  0.00000000000E+00  0.00000000000E+00  0.34931643520E+03  0.34931643520E+03  0.00000000000E+00 0.  1.
         21   -1    0    0  503  502 -0.00000000000E+00 -0.00000000000E+00 -0.26332432350E+03  0.26332432350E+03  0.00000000000E+00 0.  1.
         21    1    1    2  503  501 -0.65016962278E+02  0.17725644556E+02  0.25651206450E+03  0.26521659657E+03  0.00000000000E+00 0.  1.
         21    1    1    2  504  506  0.44464168314E+01  0.84018555069E+02  0.43579203057E+02  0.94752494203E+02  0.00000000000E+00 0.  1.
         21    1    1    2  505  502  0.46389494336E+02 -0.18989589731E+02 -0.84658086298E+02  0.98384863055E+02  0.00000000000E+00 0.  1.
         21    1    1    2  506  505  0.14181051111E+02 -0.82754609895E+02 -0.12944106956E+03  0.15428680487E+03  0.00000000000E+00 0.  1.
<scales pt_clust_3="67.38994" pt_clust_4="108.31790" pt_clust_5="48.76895" pt_clust_6="48.76895"></scales>
<clustering>
<clus scale="   48.769">  5  6 -1 -1</clus>
<clus scale="   67.390">  1  3  2 -1</clus>
<clus scale="  108.318">  1  4  2 -1</clus>
<clus scale="   67.390">  1  3  2 -1</clus>
</clustering>
</event>
<event>
 6    0  0.7442036E+002  0.1167344E+03  0.7546771E-02  0.1248584E+00
         21   -1    0    0  506  501  0.00000000000E+00  0.00000000000E+00  0.16810254282E+03  0.16810254282E+03  0.00000000000E+00 0.  1.
         21   -1    0    0  505  502 -0.00000000000E+00 -0.00000000000E+00 -0.59081698186E+03  0.59081698186E+03  0.00000000000E+00 0.  1.
         21    1    1    2  503  501  0.38958526970E+02 -0.16588417449E+03 -0.46705516044E+02  0.17668257243E+03  0.00000000000E+00 0.  1.
         21    1    1    2  504  502  0.25665597356E+00  0.74745175757E+02 -0.28699975882E+03  0.29657337833E+03  0.00000000000E+00 0.  1.
         21    1    1    2  505  503  0.29165021070E+02  0.99189984792E+01 -0.15673241551E+03  0.15973113364E+03  0.00000000000E+00 0.  1.
         21    1    1    2  506  504 -0.68380204014E+02  0.81220000258E+02  0.67723251332E+02  0.12593244028E+03  0.00000000000E+00 0.  1.
<scales pt_clust_3="116.73444" pt_clust_4="83.83878" pt_clust_5="30.80560" pt_clust_6="14000.00000"></scales>
<clustering>
<clus scale="   30.806">  2  5  1 -1</clus>
<clus scale="   83.839">  2  4  1 -1</clus>
<clus scale="  116.734">  2  3  1 -1</clus>
<clus scale="  116.734">  1  3  2 -1</clus>
</clustering>
</event>
<event>
 6    0  0.7442036E+002  0.9318080E+02  0.7546771E-02  0.1295327E+00
         21   -1    0    0  504  501  0.00000000000E+00  0.00000000000E+00  0.62444077620E+03  0.62444077620E+03  0.00000000000E+00 0.  1.
         21   -1    0    0  506  502 -0.00000000000E+00 -0.00000000000E+00 -0.63945269455E+03  0.63945269455E+03  0.00000000000E+00 0.  1.
         21    1    1    2  503  505  0.32509455451E+02  0.53282633151E+02 -0.13580217944E+03  0.14945947822E+03  0.00000000000E+00 0.  1.
         21    1    1    2  504  503  0.49881078502E+02 -0.74571986779E+01  0.19043144230E+03  0.19699712186E+03  0.00000000000E+00 0.  1.
         21    1    1    2  505  502  0.10050930421E+02  0.31672171990E+02 -0.48437642906E+03  0.48551485324E+03  0.00000000000E+00 0.  1.
         21    1    1    2  506  501 -0.92441464374E+02 -0.77497606463E+02  0.41473524784E+03  0.43192201743E+03  0.00000000000E+00 0.  1.
<scales pt_clust_3="14000.00000" pt_clust_4="50.55194" pt_clust_5="33.22872" pt_clust_6="93.18080"></scales>
<clustering>
<clus scale="   33.229">  2  5  1 -1</clus>
<clus scale="   50.552">  1  4  2 -1</clus>
<clus scale="   93.181">  1  6  2 -1</clus>
<clus scale="   50.552">  1  3  2 -1</clus>
</clustering>
</event>
<event>
 6    0  0.7442036E+002  0.1183297E+03  0.7546771E-02  0.1245878E+00
         21   -1    0    0  506  501  0.00000000000E+00  0.00000000000E+00  0.29687619846E+04  0.29687619846E+04  0.00000000000E+00 0.  1.
         21   -1    0    0  503  502 -0.00000000000E+00 -0.00000000000E+00 -0.29965126275E+02  0.29965126275E+02  0.00000000000E+00 0. -1.
         21    1    1    2  503  501 -0.11425056726E+03  0.26274138695E+02  0.23253071828E+03  0.26041132354E+03  0.00000000000E+00 0. -1.
         21    1    1    2  504  505  0.73286819796E+02 -0.80111742084E+02  0.59748987976E+03  0.60727506584E+03  0.00000000000E+00 0.  1.
         21    1    1    2  505  502 -0.44316895830E+01  0.53268910796E+02  0.54763093916E+02  0.76525898788E+02  0.00000000000E+00 0. -1.
         21    1    1    2  506  504  0.45395437046E+02  0.56869259267E+00  0.20540131664E+04  0.20545148228E+04  0.00000000000E+00 0.  1.
<scales pt_clust_3="14000.00000" pt_clust_4="118.32966" pt_clust_5="53.32264" pt_clust_6="45.39900"></scales>
<clustering>
<clus scale="   45.399">  1  6  2 -1</clus>
<clus scale="   53.323">  2  5  1 -1</clus>
<clus scale="  118.330">  1  4  2 -1</clus>
<clus scale="   45.399">  1  3  2 -1</clus>
</clustering>
</event>
<event>
 6    0  0.7442036E+002  0.8682132E+02  0.7546771E-02  0.1310737E+00
         21   -1    0    0  503  501  0.00000000000E+00  0.00000000000E+00  0.17000193416E+03  0.17000193416E+03  0.00000000000E+00 0. -1.
         21   -1    0    0  506  502 -0.00000000000E+00 -0.00000000000E+00 -0.39271229975E+03  0.39271229975E+03  0.00000000000E+00 0. -1.
         21    1    1    2  503  505 -0.37289721162E+02 -0.28080405437E+02  0.55723443742E+00  0.46683433722E+02  0.00000000000E+00 0. -1.
         21    1    1    2  504  501  0.85852332111E+02  0.32208098066E+02  0.10463209869E+03  0.13912534128E+03  0.00000000000E+00 0. -1.
         21    1    1    2  505  502 -0.10247520273E+03 -0.50918410144E+02 -0.19841359109E+03  0.22904542081E+03  0.00000000000E+00 0. -1.
         21    1    1    2  506  504  0.53912591784E+02  0.46790717514E+02 -0.12948610762E+03  0.14786003809E+03  0.00000000000E+00 0. -1.
<scales pt_clust_3="46.68011" pt_clust_4="55.51103" pt_clust_5="14000.00000" pt_clust_6="86.82132"></scales>
<clustering>
<clus scale="   46.680">  1  3  2 -1</clus>
<clus scale="   55.511">  1  4  2 -1</clus>
<clus scale="   86.821">  2  6  1 -1</clus>
<clus scale="   46.680">  1  3  2 -1</clus>
</clustering>
</event>
<event>
 6    0  0.7442036E+002  0.8682260E+02  0.7546771E-02  0.1310734E+00
         21   -1    0    0  503  501  0.00000000000E+00  0.00000000000E+00  0.43023330016E+02  0.43023330016E+02  0.00000000000E+00 0. -1.
         21   -1    0    0  505  502 -0.00000000000E+00 -0.00000000000E+00 -0.24432033132E+04  0.24432033132E+04  0.00000000000E+00 0.  1.
         21    1    1    2  503  504  0.29238278118E+01 -0.84827674005E+02 -0.13185306612E+04  0.13212597729E+04  0.00000000000E+00 0.  1.
         21    1    1    2  504  502 -0.42380807530E+02 -0.23172244801E+02 -0.77763677796E+03  0.77913544664E+03  0.00000000000E+00 0.  1.
         21    1    1    2  505  506  0.98956872328E+01  0.67660862475E+02 -0.32461779674E+03  0.33174181361E+03  0.00000000000E+00 0. -1.
         21    1    1    2  506  501  0.29561292486E+02  0.40339056332E+02  0.20605252681E+02  0.54089610067E+02  0.00000000000E+00 0. -1.
<scales pt_clust_3="86.82260" pt_clust_4="48.30203" pt_clust_5="14000.00000" pt_clust_6="49.57163"></scales>
<clustering>
<clus scale="   48.302">  2  4  1 -1</clus>
<clus scale="   49.572">  1  6  2 -1</clus>
<clus scale="   86.823">  2  3  1 -1</clus>
<clus scale="   49.572">  1  3  2 -1</clus>
</clustering>
</event>
<event>
 6    0  0.7442036E+002  0.1151652E+03  0.7546771E-02  0.1251293E+00
         21   -1    0    0  504  501  0.00000000000E+00  0.00000000000E+00  0.20072903506E+03  0.20072903506E+03  0.00000000000E+00 0. -1.
         21   -1    0    0  505  502 -0.00000000000E+00 -0.00000000000E+00 -0.21955239227E+03  0.21955239227E+03  0.00000000000E+00 0. -1.
         21    1    1    2  503  501  0.52730579935E+02 -0.17673097869E+02  0.76079100111E+02  0.94238431239E+02  0.00000000000E+00 0. -1.
         21    1    1    2  504  502 -0.54972073939E+02  0.36471588768E+01 -0.45645055649E+02  0.71545103160E+02  0.00000000000E+00 0. -1.
         21    1    1    2  505  506 -0.38014892331E+02  0.65130280511E+02 -0.13031496685E+03  0.15056253207E+03  0.00000000000E+00 0. -1.
         21    1    1    2  506  503  0.40256386334E+02 -0.51104341519E+02  0.81057565183E+02  0.10393536086E+03  0.00000000000E+00 0. -1.
<scales pt_clust_3="32.08206" pt_clust_4="55.09293" pt_clust_5="109.81359" pt_clust_6="32.08206"></scales>
<clustering>
<clus scale="   32.082">  3  6 -1 -1</clus>
<clus scale="   55.093">  2  4  1 -1</clus>
<clus scale="  109.814">  2  5  1 -1</clus>
<clus scale="  115.165">  1  3  2 -1</clus>
</clustering>
</event>
<event>
 6    0  0.7442036E+002  0.1667858E+03  0.7546771E-02  0.1181242E+00
         21   -1    0    0  504  501  0.00000000000E+00  0.00000000000E+00  0.50501455898E+03  0.50501455898E+03  0.00000000000E+00 0.  1.
         21   -1    0    0  506  502 -0.00000000000E+00 -0.00000000000E+00 -0.28781603309E+03  0.28781603309E+03  0.00000000000E+00 0.  1.
         21    1    1    2  503  502 -0.11635607057E+03  0.70530938910E+02 -0.22410464272E+03  0.26217597028E+03  0.00000000000E+00 0.  1.
         21    1    1    2  504  505  0.34378171193E+02 -0.35694797360E+02  0.23220371703E+03  0.23743323991E+03  0.00000000000E+00 0.  1.
         21    1    1    2  505  503  0.86771192027E+02 -0.65506401940E+02  0.23094907236E+03  0.25526026421E+03  0.00000000000E+00 0.  1.
         21    1    1    2  506  501 -0.47932926505E+01  0.30670260390E+02 -0.21849620778E+02  0.37961117672E+02  0.00000000000E+00 0.  1.
<scales pt_clust_3="156.52471" pt_clust_4="38.97408" pt_clust_5="38.97408" pt_clust_6="31.04256"></scales>
<clustering>
<clus scale="   31.043">  2  6  1 -1</clus>
<clus scale="   38.974">  4  5 -1 -1</clus>
<clus scale="  156.525">  2  3  1 -1</clus>
<clus scale="  166.786">  1  3  2 -1</clus>
</clustering>
</event>
<event>
 6    0  0.7442036E+002  0.2092868E+03  0.7546771E-02  0.1142132E+00
         21   -1    0    0  503  501  0.00000000000E+00  0.00000000000E+00  0.41914588236E+03  0.41914588236E+03  0.00000000000E+00 0. -1.
         21   -1    0    0  506  502 -0.00000000000E+00 -0.00000000000E+00 -0.30238870859E+03  0.30238870859E+03  0.00000000000E+00 0. -1.
         21    1    1    2  503  502 -0.16157235635E+03 -0.98224125577E+02  0.24794271815E+03  0.31181596602E+03  0.00000000000E+00 0. -1.
         21    1    1    2  504  505  0.67779838608E+02  0.43899408221E+02 -0.99084491154E+02  0.12782410161E+03  0.00000000000E+00 0. -1.
         21    1    1    2  505  501 -0.35986024953E+02  0.61724406261E+02  0.82120625309E+02  0.10885170381E+03  0.00000000000E+00 0. -1.
         21    1    1    2  506  504  0.12977854269E+03 -0.73996889054E+01 -0.11422167854E+03  0.17304281952E+03  0.00000000000E+00 0. -1.
<scales pt_clust_3="197.84116" pt_clust_4="53.80400" pt_clust_5="71.44856" pt_clust_6="53.80400"></scales>
<clustering>
<clus scale="   53.804">  4  6 -1 -1</clus>
<clus scale="   71.449">  1  5  2 -1</clus>
<clus scale="  197.841">  1  3  2 -1</clus>
<clus scale="   71.449">  1  3  2 -1</clus>
</clustering>
</event>
<event>
 6    0  0.7442036E+002  0.1151966E+03  0.7546771E-02  0.1251238E+00
         21   -1    0    0  506  501  0.00000000000E+00  0.00000000000E+00  0.27632528550E+03  0.27632528550E+03  0.00000000000E+00 0. -1.
         21   -1    0    0  503  502 -0.00000000000E+00 -0.00000000000E+00 -0.43841653026E+03  0.43841653026E+03  0.00000000000E+00 0.  1.
         21    1    1    2  503  505  0.20406764944E+02 -0.29008909966E+02 -0.11072016507E+02  0.37155651823E+02  0.00000000000E+00 0.  1.
         21    1    1    2  504  502  0.17222235450E+02  0.39176752417E+02 -0.23133620044E+03  0.23526126107E+03  0.00000000000E+00 0.  1.
         21    1    1    2  505  501 -0.10046889475E+03 -0.61990563252E+02  0.23753838205E+03  0.26525706719E+03  0.00000000000E+00 0. -1.
         21    1    1    2  506  504  0.62839894351E+02  0.51822720801E+02 -0.15722140986E+03  0.17706783568E+03  0.00000000000E+00 0.  1.
<scales pt_clust_3="35.46763" pt_clust_4="36.69060" pt_clust_5="115.19663" pt_clust_6="14000.00000"></scales>
<clustering>
<clus scale="   35.468">  2  3  1 -1</clus>
<clus scale="   36.691">  2  4  1 -1</clus>
<clus scale="  115.197">  1  5  2 -1</clus>
<clus scale="  115.197">  1  3  2 -1</clus>
</clustering>
</event>
<event>
 6    0  0.7442036E+002  0.1053398E+03  0.7546771E-02  0.1269452E+00
         21   -1    0    0  503  501  0.00000000000E+00  0.00000000000E+00  0.19995847828E+03  0.19995847828E+03  0.00000000000E+00 0.  1.
         21   -1    0    0  504  502 -0.00000000000E+00 -0.00000000000E+00 -0.15672193689E+03  0.15672193689E+03  0.00000000000E+00 0.  1.
         21    1    1    2  503  502 -0.27755709760E+02 -0.10161736892E+03  0.66340994000E+02  0.12448934322E+03  0.00000000000E+00 0.  1.
         21    1    1    2  504  506  0.32012898538E+02 -0.20925079233E+02 -0.33434793604E+01  0.38390929501E+02  0.00000000000E+00 0.  1.
         21    1    1    2  505  501 -0.67677149683E+02  0.10253791512E+03  0.46881538135E+01  0.12294795408E+03  0.00000000000E+00 0.  1.
         21    1    1    2  506  505  0.63419960905E+02  0.20004533031E+02 -0.24449127061E+02  0.70852188371E+02  0.00000000000E+00 0.  1.
<scales pt_clust_3="105.33978" pt_clust_4="34.36434" pt_clust_5="93.81560" pt_clust_6="34.36434"></scales>
<clustering>
<clus scale="   34.364">  4  6 -1 -1</clus>
<clus scale="  105.340">  1  3  2 -1</clus>
<clus scale="   93.816">  1  5  2 -1</clus>
<clus scale="  105.340">  1  3  2 -1</clus>
</clustering>
</event>
<event>
 6    0  0.7442036E+002  0.1698556E+03  0.7546771E-02  0.1177999E+00
         21   -1    0    0  503  501  0.00000000000E+00  0.00000000000E+00  0.90194566853E+02  0.90194566853E+02  0.00000000000E+00 0.  1.
         21   -1    0    0  505  502 -0.00000000000E+00 -0.00000000000E+00 -0.46101021421E+03  0.46101021421E+03  0.00000000000E+00 0.  1.
         21    1    1    2  503  504  0.84011922350E+01  0.30433617887E+02  0.18606033499E+02  0.36646549786E+02  0.00000000000E+00 0.  1.
         21    1    1    2  504  506 -0.40909950623E+02  0.28072998128E+02 -0.41213920651E+02  0.64500422784E+02  0.00000000000E+00 0.  1.
         21    1    1    2  505  501  0.68602802169E+02 -0.15892815145E+03 -0.17179370756E+03  0.24388025698E+03  0.00000000000E+00 0.  1.
         21    1    1    2  506  502 -0.36094043782E+02  0.10042153544E+03 -0.17641405265E+03  0.20617755152E+03  0.00000000000E+00 0.  1.
<scales pt_clust_3="31.57190" pt_clust_4="39.87338" pt_clust_5="159.33220" pt_clust_6="39.87338"></scales>
<clustering>
<clus scale="   31.572">  1  3  2 -1</clus>
<clus scale="   39.873">  4  6 -1 -1</clus>
<clus scale="  159.332">  1  5  2 -1</clus>
<clus scale="   31.572">  1  3  2 -1</clus>
</clustering>
</event>
<event>
 6    0  0.7442036E+002  0.9743174E+02  0.7546771E-02  0.1285791E+00
         21   -1    0    0  503  501  0.00000000000E+00  0.00000000000E+00  0.57271042335E+03  0.57271042335E+03  0.00000000000E+00 0. -1.
         21   -1    0    0  504  502 -0.00000000000E+00 -0.00000000000E+00 -0.44426000340E+02  0.44426000340E+02  0.00000000000E+00 0. -1.
         21    1    1    2  503  505 -0.37650757483E+02  0.13529079721E+02  0.21060682267E+03  0.21437315432E+03  0.00000000000E+00 0. -1.
         21    1    1    2  504  501  0.68620838902E+02  0.87514216093E+02  0.17003290616E+03  0.20317171734E+03  0.00000000000E+00 0. -1.
         21    1    1    2  505  506 -0.59227901666E+02 -0.61551233905E+02  0.10070426380E+03  0.13205244215E+03  0.00000000000E+00 0. -1.
         21    1    1    2  506  502  0.28257820247E+02 -0.39492061909E+02  0.46940430382E+02  0.67539109881E+02  0.00000000000E+00 0. -1.
<scales pt_clust_3="40.00769" pt_clust_4="97.43174" pt_clust_5="14000.00000" pt_clust_6="43.48128"></scales>
<clustering>
<clus scale="   40.008">  1  3  2 -1</clus>
<clus scale="   43.481">  2  6  1 -1</clus>
<clus scale="   97.432">  1  4  2 -1</clus>
<clus scale="   40.008">  1  3  2 -1</clus>
</clustering>
</event>
<event>
 6    0  0.7442036E+002  0.1402130E+03  0.7546771E-02  0.1213043E+00
         21   -1    0    0  503  501  0.00000000000E+00  0.00000000000E+00  0.11468315500E+04  0.11468315500E+04  0.00000000000E+00 0.  1.
         21   -1    0    0  505  502 -0.00000000000E+00 -0.00000000000E+00 -0.11072116889E+03  0.11072116889E+03  0.00000000000E+00 0. -1.
         21    1    1    2  503  502 -0.92121366953E+02  0.74534538782E+02  0.60527302925E+03  0.61676347465E+03  0.00000000000E+00 0.  1.
         21    1    1    2  504  501 -0.28349429153E+02 -0.22750081939E+02  0.48725020807E+03  0.48860415637E+03  0.00000000000E+00 0.  1.
         21    1    1    2  505  506  0.75128142280E+02 -0.36908892912E+01 -0.31493815729E+02  0.81545820588E+02  0.00000000000E+00 0. -1.
         21    1    1    2  506  504  0.45342653825E+02 -0.48093567553E+02 -0.24919040523E+02  0.70639267242E+02  0.00000000000E+00 0. -1.
<scales pt_clust_3="129.91014" pt_clust_4="36.34909" pt_clust_5="49.76078" pt_clust_6="49.76078"></scales>
<clustering>
<clus scale="   36.349">  1  4  2 -1</clus>
<clus scale="   49.761">  5  6 -1 -1</clus>
<clus scale="  129.910">  1  3  2 -1</clus>
<clus scale="   36.349">  1  3  2 -1</clus>
</clustering>
</event>
<event>
 6    0  0.7442036E+002  0.1998970E+03  0.7546771E-02  0.1149826E+00
         21   -1    0    0  506  501  0.00000000000E+00  0.00000000000E+00  0.11922633348E+03  0.11922633348E+03  0.00000000000E+00 0.  1.
         21   -1    0    0  504  502 -0.00000000000E+00 -0.00000000000E+00 -0.21726870305E+04  0.21726870305E+04  0.00000000000E+00 0. -1.
         21    1    1    2  503  501 -0.60071837989E+02  0.12415596960E+03  0.44533063546E+02  0.14493627654E+03  0.00000000000E+00 0.  1.
         21    1    1    2  504  505  0.96395001334E+02  0.39741251907E+02 -0.35286154335E+03  0.36794378940E+03  0.00000000000E+00 0.  1.
         21    1    1    2  505  503  0.57629606700E+02  0.17956969728E+02 -0.74391056004E+02  0.95800070687E+02  0.00000000000E+00 0. -1.
         21    1    1    2  506  502 -0.93952770044E+02 -0.18185419124E+03 -0.16707411612E+04  0.16832332274E+04  0.00000000000E+00 0. -1.
<scales pt_clust_3="137.92509" pt_clust_4="56.22705" pt_clust_5="56.22705" pt_clust_6="185.73606"></scales>
<clustering>
<clus scale="   56.227">  4  5 -1 -1</clus>
<clus scale="  137.925">  1  3  2 -1</clus>
<clus scale="  185.736">  2  6  1 -1</clus>
<clus scale="  137.925">  1  3  2 -1</clus>
</clustering>
</event>
<event>
 6    0  0.7442036E+002  0.1505993E+03  0.7546771E-02  0.1199738E+00
         21   -1    0    0  504  501  0.00000000000E+00  0.00000000000E+00  0.12022986860E+04  0.12022986860E+04  0.00000000000E+00 0. -1.
         21   -1    0    0  506  502 -0.00000000000E+00 -0.00000000000E+00 -0.13089899401E+03  0.13089899401E+03  0.00000000000E+00 0. -1.
         21    1    1    2  503  505  0.69745961001E+02  0.86781218178E+01  0.30338873516E+01  0.70349224208E+02  0.00000000000E+00 0. -1.
         21    1    1    2  504  503 -0.41455146058E+02 -0.14493347455E+03  0.96879262172E+03  0.98045060308E+03  0.00000000000E+00 0. -1.
         21    1    1    2  505  502  0.74691588373E+02  0.26370020113E+02 -0.29028084848E+02  0.84361371755E+02  0.00000000000E+00 0. -1.
         21    1    1    2  506  501 -0.10298240332E+03  0.10988533262E+03  0.12860126773E+03  0.19803648093E+03  0.00000000000E+00 0. -1.
<scales pt_clust_3="32.20788" pt_clust_4="146.26903" pt_clust_5="32.20788" pt_clust_6="150.59934"></scales>
<clustering>
<clus scale="   32.208">  3  5 -1 -1</clus>
<clus scale="  150.599">  2  6  1 -1</clus>
<clus scale="  146.269">  1  4  2 -1</clus>
<clus scale="  146.269">  1  3  2 -1</clus>
</clustering>
</event>
<event>
 6    0  0.7442036E+002  0.6795955E+02  0.7546771E-02  0.1367172E+00
         21   -1    0    0  506  501  0.00000000000E+00  0.00000000000E+00  0.43130745499E+03  0.43130745499E+03  0.00000000000E+00 0. -1.
         21   -1    0    0  503  502 -0.00000000000E+00 -0.00000000000E+00 -0.16197228570E+03  0.16197228570E+03  0.00000000000E+00 0.  1.
         21    1    1    2  503  501 -0.30410439434E+02 -0.17278404283E+02  0.28890501461E+02  0.45365175585E+02  0.00000000000E+00 0.  1.
         21    1    1    2  504  502  0.91915085973E+01 -0.69362039126E+02 -0.10191631328E+03  0.12362245433E+03  0.00000000000E+00 0.  1.
         21    1    1    2  505  504 -0.53942485461E+02  0.50663780031E+02  0.21610164526E+01  0.74035669355E+02  0.00000000000E+00 0. -1.
         21    1    1    2  506  505  0.75161416298E+02  0.35976663378E+02  0.34019996465E+03  0.35025644142E+03  0.00000000000E+00 0. -1.
<scales pt_clust_3="34.97625" pt_clust_4="67.95955" pt_clust_5="14000.00000" pt_clust_6="52.81469"></scales>
<clustering>
<clus scale="   34.976">  1  3  2 -1</clus>
<clus scale="   52.815">  1  6  2 -1</clus>
<clus scale="   67.960">  2  4  1 -1</clus>
<clus scale="   34.976">  1  3  2 -1</clus>
</clustering>
</event>
<event>
 6    0  0.7442036E+002  0.1175697E+03  0.7546771E-02  0.1247161E+00
         21   -1    0    0  504  501  0.00000000000E+00  0.00000000000E+00  0.80534346532E+02  0.80534346532E+02  0.00000000000E+00 0. -1.
         21   -1    0    0  505  502 -0.00000000000E+00 -0.00000000000E+00 -0.48344265362E+03  0.48344265362E+03  0.00000000000E+00 0. -1.
         21    1    1    2  503  506 -0.85620691825E+01 -0.47009123385E+02 -0.71378326715E+02  0.85895472726E+02  0.00000000000E+00 0. -1.
         21    1    1    2  504  503 -0.12222266926E+03  0.60985055087E+01 -0.11421521452E+02  0.12290656534E+03  0.00000000000E+00 0. -1.
         21    1    1    2  505  501  0.97309603620E+02  0.57795495643E+02 -0.26855613945E+03  0.29143074359E+03  0.00000000000E+00 0. -1.
         21    1    1    2  506  502  0.33475134827E+02 -0.16884877767E+02 -0.51552319477E+02  0.63744218501E+02  0.00000000000E+00 0. -1.
<scales pt_clust_3="50.18393" pt_clust_4="117.56971" pt_clust_5="14000.00000" pt_clust_6="37.49245"></scales>
<clustering>
<clus scale="   37.492">  2  6  1 -1</clus>
<clus scale="   50.184">  2  3  1 -1</clus>
<clus scale="  117.570">  1  4  2 -1</clus>
<clus scale="  117.570">  1  3  2 -1</clus>
</clustering>
</event>
<event>
 6    0  0.7442036E+002  0.1191666E+03  0.7546771E-02  0.1244478E+00
         21   -1    0    0  504  501  0.00000000000E+00  0.00000000000E+00  0.40739968555E+03  0.40739968555E+03  0.00000000000E+00 0.  1.
         21   -1    0    0  503  502 -0.00000000000E+00 -0.00000000000E+00 -0.16622604937E+04  0.16622604937E+04  0.00000000000E+00 0. -1.
         21    1    1    2  503  501  0.77738160123E+02 -0.59348953304E+02 -0.23425468544E+03  0.25385188092E+03  0.00000000000E+00 0. -1.
         21    1    1    2  504  505  0.66845441565E+02 -0.20098826953E+02  0.37588885422E+03  0.38231493122E+03  0.00000000000E+00 0.  1.
         21    1    1    2  505  506 -0.11012779334E+02  0.89227034661E+02 -0.11974634274E+03  0.14973954595E+03  0.00000000000E+00 0.  1.
         21    1    1    2  506  502 -0.13357082235E+03 -0.97792544044E+01 -0.12767486342E+04  0.12837538212E+04  0.00000000000E+00 0. -1.
<scales pt_clust_3="14000.00000" pt_clust_4="69.80169" pt_clust_5="82.28049" pt_clust_6="119.16659"></scales>
<clustering>
<clus scale="   69.802">  1  4  2 -1</clus>
<clus scale="   82.280">  1  5  2 -1</clus>
<clus scale="  119.167">  2  6  1 -1</clus>
<clus scale="   69.802">  1  3  2 -1</clus>
</clustering>
</event>
<event>
 6    0  0.7442036E+002  0.1455961E+03  0.7546771E-02  0.1205991E+00
         21   -1    0    0  504  501  0.00000000000E+00  0.00000000000E+00  0.53885376134E+03  0.53885376134E+03  0.00000000000E+00 0. -1.
         21   -1    0    0  505  502 -0.00000000000E+00 -0.00000000000E+00 -0.17543613591E+03  0.17543613591E+03  0.00000000000E+00 0. -1.
         21    1    1    2  503  502 -0.16123435154E+02  0.31619649142E+02  0.92539843488E+01  0.36679743720E+02  0.00000000000E+00 0. -1.
         21    1    1    2  504  503  0.15062969066E+03  0.12562648719E+03  0.18658587933E+03  0.27071314774E+03  0.00000000000E+00 0. -1.
         21    1    1    2  505  506 -0.11050331546E+03 -0.23007996107E+02 -0.70105519057E+02  0.13287262477E+03  0.00000000000E+00 0. -1.
         21    1    1    2  506  501 -0.24002940050E+02 -0.13423814022E+03  0.23768328081E+03  0.27402438103E+03  0.00000000000E+00 0. -1.
<scales pt_clust_3="35.49320" pt_clust_4="14000.00000" pt_clust_5="120.66306" pt_clust_6="145.59614"></scales>
<clustering>
<clus scale="   35.493">  2  3  1 -1</clus>
<clus scale="  120.663">  2  5  1 -1</clus>
<clus scale="  145.596">  1  6  2 -1</clus>
<clus scale="  145.596">  1  3  2 -1</clus>
</clustering>
</event>
<event>
 6    0  0.7442036E+002  0.1303510E+03  0.7546771E-02  0.1226936E+00
         21   -1    0    0  505  501  0.00000000000E+00  0.00000000000E+00  0.23549968926E+04  0.23549968926E+04  0.00000000000E+00 0.  1.
         21   -1    0    0  501  502 -0.00000000000E+00 -0.00000000000E+00 -0.21344526360E+02  0.21344526360E+02  0.00000000000E+00 0.  1.
         21    1    1    2  503  504 -0.49861957449E+02 -0.24111933272E+01  0.19460345624E+03  0.20090429023E+03  0.00000000000E+00 0.  1.
         21    1    1    2  504  502 -0.50514705003E+02  0.44374404944E+02  0.14997017405E+03  0.16435290183E+03  0.00000000000E+00 0.  1.
         21    1    1    2  505  506 -0.18394080992E+01  0.44770059632E+02  0.15792956098E+04  0.15799311266E+04  0.00000000000E+00 0.  1.
         21    1    1    2  506  503  0.10221607055E+03 -0.86733271249E+02  0.40978312619E+03  0.43115310034E+03  0.00000000000E+00 0.  1.
<scales pt_clust_3="44.40072" pt_clust_4="44.40072" pt_clust_5="44.80783" pt_clust_6="118.93666"></scales>
<clustering>
<clus scale="   44.808">  1  5  2 -1</clus>
<clus scale="   44.401">  3  4 -1 -1</clus>
<clus scale="  118.937">  1  6  2 -1</clus>
<clus scale="   44.808">  1  3  2 -1</clus>
</clustering>
</event>
<event>
 6    0  0.7442036E+002  0.8989103E+02  0.7546771E-02  0.1303116E+00
         21   -1    0    0  505  501  0.00000000000E+00  0.00000000000E+00  0.15507418328E+03  0.15507418328E+03  0.00000000000E+00 0. -1.
         21   -1    0    0  506  502 -0.00000000000E+00 -0.00000000000E+00 -0.18818741507E+03  0.18818741507E+03  0.00000000000E+00 0. -1.
         21    1    1    2  503  501  0.10952716013E+02 -0.12876636655E+03  0.64737502813E+02  0.14453955657E+03  0.00000000000E+00 0. -1.
         21    1    1    2  504  503  0.48397773823E+01  0.39746348516E+02 -0.61021250916E+02  0.72984852735E+02  0.00000000000E+00 0. -1.
         21    1    1    2  505  502  0.99590632375E+01  0.53199516108E+02  0.16445769851E+02  0.56567082307E+02  0.00000000000E+00 0. -1.
         21    1    1    2  506  504 -0.25751556633E+02  0.35820501923E+02 -0.53275253540E+02  0.69170106743E+02  0.00000000000E+00 0. -1.
<scales pt_clust_3="84.16476" pt_clust_4="30.07648" pt_clust_5="54.12367" pt_clust_6="30.07648"></scales>
<clustering>
<clus scale="   30.076">  4  6 -1 -1</clus>
<clus scale="   54.124">  1  5  2 -1</clus>
<clus scale="   84.165">  1  3  2 -1</clus>
<clus scale="   54.124">  1  3  2 -1</clus>
</clustering>
</event>
<event>
 6    0  0.7442036E+002  0.1045647E+03  0.7546771E-02  0.1270980E+00
         21   -1    0    0  503  501  0.00000000000E+00  0.00000000000E+00  0.42941416041E+03  0.42941416041E+03  0.00000000000E+00 0. -1.
         21   -1    0    0  504  502 -0.00000000000E+00 -0.00000000000E+00 -0.25121610215E+03  0.25121610215E+03  0.00000000000E+00 0. -1.
         21    1    1    2  503  505 -0.69820366653E+01  0.17559688823E+03  0.29873955631E+03  0.34659535268E+03  0.00000000000E+00 0. -1.
         21    1    1    2  504  506  0.31743338074E+02 -0.55653797955E+02 -0.14287034226E+03  0.15657879625E+03  0.00000000000E+00 0. -1.
         21    1    1    2  505  502 -0.35172208340E+02 -0.57901490213E+02 -0.48051836945E+02  0.83058087157E+02  0.00000000000E+00 0. -1.
         21    1    1    2  506  501  0.10410906931E+02 -0.62041600062E+02  0.70380681161E+02  0.94398026474E+02  0.00000000000E+00 0. -1.
<scales pt_clust_3="104.56473" pt_clust_4="65.23788" pt_clust_5="14000.00000" pt_clust_6="62.90904"></scales>
<clustering>
<clus scale="   62.909">  1  6  2 -1</clus>
<clus scale="   65.238">  2  4  1 -1</clus>
<clus scale="  104.565">  1  3  2 -1</clus>
<clus scale="   62.909">  1  3  2 -1</clus>
</clustering>
</event>
<event>
 6    0  0.7442036E+002  0.9406356E+02  0.7546771E-02  0.1293299E+00
         21   -1    0    0  504  501  0.00000000000E+00  0.00000000000E+00  0.10876306307E+04  0.10876306307E+04  0.00000000000E+00 0.  1.
         21   -1    0    0  505  502 -0.00000000000E+00 -0.00000000000E+00 -0.11441845541E+03  0.11441845541E+03  0.00000000000E+00 0.  1.
         21    1    1    2  503  502  0.10527692763E+03  0.95072300325E+02 -0.22152475728E+02  0.14357125743E+03  0.00000000000E+00 0.  1.
         21    1    1    2  504  503 -0.63968062084E+01 -0.84016297685E+02  0.90533296452E+03  0.90924553012E+03  0.00000000000E+00 0.  1.
         21    1    1    2  505  506 -0.68796003000E+02 -0.92550161234E+01  0.18844340723E+02  0.71928120575E+02  0.00000000000E+00 0. -1.
         21    1    1    2  506  501 -0.30084118423E+02 -0.18009865161E+01  0.71187345756E+02  0.77304177956E+02  0.00000000000E+00 0. -1.
<scales pt_clust_3="94.06356" pt_clust_4="14000.00000" pt_clust_5="70.76191" pt_clust_6="30.13798"></scales>
<clustering>
<clus scale="   30.138">  1  6  2 -1</clus>
<clus scale="   70.762">  2  5  1 -1</clus>
<clus scale="   94.064">  2  3  1 -1</clus>
<clus scale="   30.138">  1  3  2 -1</clus>
</clustering>
</event>
<event>
 6    0  0.7442036E+002  0.9830971E+02  0.7546771E-02  0.1283891E+00
         21   -1    0    0  506  501  0.00000000000E+00  0.00000000000E+00  0.58372261106E+03  0.58372261106E+03  0.00000000000E+00 0.  1.
         21   -1    0    0  505  502 -0.00000000000E+00 -0.00000000000E+00 -0.39766697492E+02  0.39766697492E+02  0.00000000000E+00 0.  1.
         21    1    1    2  503  501  0.37061452590E+02  0.11992155793E+02  0.37041270894E+02  0.53753314485E+02  0.00000000000E+00 0.  1.
         21    1    1    2  504  502 -0.11269333900E+03  0.67385208481E+01  0.18670070611E+03  0.21817962779E+03  0.00000000000E+00 0.  1.
         21    1    1    2  505  503 -0.49292277188E+01  0.33068883810E+02  0.26627124092E+02  0.42741690418E+02  0.00000000000E+00 0. -1.
         21    1    1    2  506  504  0.80561114128E+02 -0.51799560451E+02  0.29358681247E+03  0.30881467586E+03  0.00000000000E+00 0.  1.
<scales pt_clust_3="41.32448" pt_clust_4="98.30971" pt_clust_5="33.43424" pt_clust_6="14000.00000"></scales>
<clustering>
<clus scale="   33.434">  2  5  1 -1</clus>
<clus scale="   41.324">  2  3  1 -1</clus>
<clus scale="   98.310">  2  4  1 -1</clus>
<clus scale="   98.310">  1  3  2 -1</clus>
</clustering>
</event>
<event>
 6    0  0.7442036E+002  0.1443059E+03  0.7546771E-02  0.1207650E+00
         21   -1    0    0  504  501  0.00000000000E+00  0.00000000000E+00  0.47712390210E+02  0.47712390210E+02  0.00000000000E+00 0.  1.
         21   -1    0    0  505  502 -0.00000000000E+00 -0.00000000000E+00 -0.95256481752E+03  0.95256481752E+03  0.00000000000E+00 0.  1.
         21    1    1    2  503  502 -0.80193340179E+02  0.41553114595E+02 -0.52806368696E+03  0.53573210714E+03  0.00000000000E+00 0.  1.
         21    1    1    2  504  506 -0.34170397024E+02  0.35950782579E+02 -0.38251910674E+02  0.62636119540E+02  0.00000000000E+00 0.  1.
         21    1    1    2  505  501  0.15311731010E+03 -0.65406269951E+02 -0.21538574379E+03  0.27223869936E+03  0.00000000000E+00 0.  1.
         21    1    1    2  506  503 -0.38753572897E+02 -0.12097627223E+02 -0.12315108589E+03  0.12967028169E+03  0.00000000000E+00 0.  1.
<scales pt_clust_3="40.58063" pt_clust_4="49.59914" pt_clust_5="130.99817" pt_clust_6="40.58063"></scales>
<clustering>
<clus scale="   40.581">  3  6 -1 -1</clus>
<clus scale="   49.599">  1  4  2 -1</clus>
<clus scale="  130.998">  1  5  2 -1</clus>
<clus scale="   49.599">  1  3  2 -1</clus>
</clustering>
</event>
<event>
 6    0  0.7442036E+002  0.8216949E+02  0.7546771E-02  0.1323005E+00
         21   -1    0    0  505  501  0.00000000000E+00  0.00000000000E+00  0.57121521212E+02  0.57121521212E+02  0.00000000000E+00 0.  1.
         21   -1    0    0  504  502 -0.00000000000E+00 -0.00000000000E+00 -0.56396252498E+03  0.56396252498E+03  0.00000000000E+00 0.  1.
         21    1    1    2  503  501 -0.38456224024E+02  0.13116066376E+03 -0.19391512886E+03  0.23724476408E+03  0.00000000000E+00 0.  1.
         21    1    1    2  504  503  0.16687444290E+02 -0.41437731896E+02 -0.91459159560E+02  0.10178572733E+03  0.00000000000E+00 0.  1.
         21    1    1    2  505  506  0.41910517946E+02 -0.42571265527E+02 -0.53961184528E+01  0.59982682979E+02  0.00000000000E+00 0.  1.
         21    1    1    2  506  502 -0.20141738212E+02 -0.47151666338E+02 -0.21607059690E+03  0.22207087180E+03  0.00000000000E+00 0.  1.
<scales pt_clust_3="82.16949" pt_clust_4="44.67165" pt_clust_5="62.63539" pt_clust_6="14000.00000"></scales>
<clustering>
<clus scale="   44.672">  2  4  1 -1</clus>
<clus scale="   62.635">  1  5  2 -1</clus>
<clus scale="   82.169">  1  3  2 -1</clus>
<clus scale="   62.635">  1  3  2 -1</clus>
</clustering>
</event>
<event>
 6    0  0.7442036E+002  0.1163424E+03  0.7546771E-02  0.1249256E+00
         21   -1    0    0  503  501  0.00000000000E+00  0.00000000000E+00  0.20945872845E+02  0.20945872845E+02  0.00000000000E+00 0.  1.
         21   -1    0    0  506  502 -0.00000000000E+00 -0.00000000000E+00 -0.29389361507E+04  0.29389361507E+04  0.00000000000E+00 0. -1.
         21    1    1    2  503  505  0.33203992903E+02  0.29057763429E+02 -0.24685476347E+03  0.25076708916E+03  0.00000000000E+00 0.  1.
         21    1    1    2  504  501  0.53671072390E+02 -0.32261883578E+02 -0.58338636500E+02  0.85585101812E+02  0.00000000000E+00 0.  1.
         21    1    1    2  505  502  0.98377941014E+01  0.63293336224E+02 -0.25282149728E+03  0.26080939034E+03  0.00000000000E+00 0. -1.
         21    1    1    2  506  504 -0.96712859394E+02 -0.60089216074E+02 -0.23599753806E+04  0.23627204422E+04  0.00000000000E+00 0. -1.
<scales pt_clust_3="33.74224" pt_clust_4="62.62119" pt_clust_5="33.74224" pt_clust_6="109.00797"></scales>
<clustering>
<clus scale="   33.742">  3  5 -1 -1</clus>
<clus scale="   62.621">  1  4  2 -1</clus>
<clus scale="  109.008">  2  6  1 -1</clus>
<clus scale="   62.621">  1  3  2 -1</clus>
</clustering>
</event>
<event>
 6    0  0.7442036E+002  0.6390162E+02  0.7546771E-02  0.1382151E+00
         21   -1    0    0  505  501  0.00000000000E+00  0.00000000000E+00  0.16195352436E+04  0.16195352436E+04  0.00000000000E+00 0. -1.
         21   -1    0    0  503  502 -0.00000000000E+00 -0.00000000000E+00 -0.62370149143E+02  0.62370149143E+02  0.00000000000E+00 0. -1.
         21    1    1    2  503  506 -0.44292767409E+02 -0.21090933509E+02  0.26291524817E+02  0.55658970510E+02  0.00000000000E+00 0. -1.
         21    1    1    2  504  501 -0.40984261897E+02 -0.29897453430E+02  0.15030928660E+03  0.15863936801E+03  0.00000000000E+00 0. -1.
         21    1    1    2  505  502  0.59627537519E+02  0.93260722395E+02  0.14071298678E+04  0.14114770528E+04  0.00000000000E+00 0. -1.
         21    1    1    2  506  504  0.25649491787E+02 -0.42272335456E+02 -0.26565584749E+02  0.56130001487E+02  0.00000000000E+00 0. -1.
<scales pt_clust_3="49.05789" pt_clust_4="54.94709" pt_clust_5="14000.00000" pt_clust_6="63.90162"></scales>
<clustering>
<clus scale="   49.058">  2  3  1 -1</clus>
<clus scale="   54.947">  1  4  2 -1</clus>
<clus scale="   63.902">  2  6  1 -1</clus>
<clus scale="   54.947">  1  3  2 -1</clus>
</clustering>
</event>
<event>
 6    0  0.7442036E+002  0.9376722E+02  0.7546771E-02  0.1293977E+00
         21   -1    0    0  503  501  0.00000000000E+00  0.00000000000E+00  0.17463654226E+04  0.17463654226E+04  0.00000000000E+00 0. -1.
         21   -1    0    0  504  502 -0.00000000000E+00 -0.00000000000E+00 -0.77452352483E+02  0.77452352483E+02  0.00000000000E+00 0. -1.
         21    1    1    2  503  505 -0.33853984449E+02  0.21655779254E+02  0.10592663130E+04  0.10600283897E+04  0.00000000000E+00 0. -1.
         21    1    1    2  504  506  0.46123183024E+02 -0.98087829770E+02 -0.10381386641E+02  0.10888683828E+03  0.00000000000E+00 0. -1.
         21    1    1    2  505  502 -0.46111463954E+02  0.18421504437E+01  0.21702800625E+02  0.50996785989E+02  0.00000000000E+00 0. -1.
         21    1    1    2  506  501  0.33842265380E+02  0.74589900072E+02  0.59832534311E+03  0.60390576113E+03  0.00000000000E+00 0. -1.
<scales pt_clust_3="40.18787" pt_clust_4="93.76722" pt_clust_5="47.99657" pt_clust_6="14000.00000"></scales>
<clustering>
<clus scale="   40.188">  1  3  2 -1</clus>
<clus scale="   47.997">  2  5  1 -1</clus>
<clus scale="   93.767">  2  4  1 -1</clus>
<clus scale="   40.188">  1  3  2 -1</clus>
</clustering>
</event>
<event>
 6    0  0.7442036E+002  0.1054724E+03  0.7546771E-02  0.1269192E+00
         21   -1    0    0  504  501  0.00000000000E+00  0.00000000000E+00  0.10601386369E+04  0.10601386369E+04  0.00000000000E+00 0. -1.
         21   -1    0    0  503  502 -0.00000000000E+00 -0.00000000000E+00 -0.21048581565E+04  0.21048581565E+04  0.00000000000E+00 0.  1.
         21    1    1    2  503  501  0.21653785862E+02 -0.21419881361E+02 -0.57949259078E+02  0.65466131606E+02  0.00000000000E+00 0. -1.
         21    1    1    2  504  505 -0.27966565023E+02 -0.18172652927E+02  0.74738609111E+03  0.74812989731E+03  0.00000000000E+00 0. -1.
         21    1    1    2  505  506 -0.97580291345E+01  0.11670836078E+03  0.29672036801E+03  0.31899692381E+03  0.00000000000E+00 0.  1.
         21    1    1    2  506  502  0.16070808295E+02 -0.77115826492E+02 -0.20308767196E+04  0.20324038407E+04  0.00000000000E+00 0.  1.
<scales pt_clust_3="30.45813" pt_clust_4="33.35109" pt_clust_5="105.47235" pt_clust_6="14000.00000"></scales>
<clustering>
<clus scale="   30.458">  2  3  1 -1</clus>
<clus scale="   33.351">  1  4  2 -1</clus>
<clus scale="  105.472">  1  5  2 -1</clus>
<clus scale="   33.351">  1  3  2 -1</clus>
</clustering>
</event>
<event>
 6    0  0.7442036E+002  0.1440614E+03  0.7546771E-02  0.1207966E+00
         21   -1    0    0  506  501  0.00000000000E+00  0.00000000000E+00  0.30196180409E+03  0.30196180409E+03  0.00000000000E+00 0.  1.
         21   -1    0    0  504  502 -0.00000000000E+00 -0.00000000000E+00 -0.14783160578E+04  0.14783160578E+04  0.00000000000E+00 0.  1.
         21    1    1    2  503  502  0.39095434366E+01 -0.61812259437E+02 -0.69877054103E+03  0.70151002057E+03  0.00000000000E+00 0.  1.
         21    1    1    2  504  501  0.14246114853E+03  0.10925873482E+03  0.18170721276E+03  0.25544111091E+03  0.00000000000E+00 0.  1.
         21    1    1    2  505  503 -0.42912564141E+02 -0.68469047556E+02 -0.70403996718E+03  0.70866196033E+03  0.00000000000E+00 0.  1.
         21    1    1    2  506  505 -0.10345812783E+03  0.21022572173E+02  0.44749041752E+02  0.11466477006E+03  0.00000000000E+00 0.  1.
<scales pt_clust_3="41.18746" pt_clust_4="136.16331" pt_clust_5="41.18746" pt_clust_6="105.57241"></scales>
<clustering>
<clus scale="   41.187">  3  5 -1 -1</clus>
<clus scale="  105.572">  1  6  2 -1</clus>
<clus scale="  136.163">  1  4  2 -1</clus>
<clus scale="  105.572">  1  3  2 -1</clus>
</clustering>
</event>
<event>
 6    0  0.7442036E+002  0.1704993E+03  0.7546771E-02  0.1177328E+00
         21   -1    0    0  503  501  0.00000000000E+00  0.00000000000E+00  0.22226994054E+03  0.22226994054E+03  0.00000000000E+00 0. -1.
         21   -1    0    0  504  502 -0.00000000000E+00 -0.00000000000E+00 -0.32803359861E+03  0.32803359861E+03  0.00000000000E+00 0. -1.
         21    1    1    2  503  502 -0.21130578741E+02  0.28641990984E+02  0.51143413974E+01  0.35958608057E+02  0.00000000000E+00 0.  1.
         21    1    1    2  504  505 -0.70152775854E+02 -0.11280377693E+02 -0.44230379336E+02  0.83695790438E+02  0.00000000000E+00 0. -1.
         21    1    1    2  505  506 -0.70316302701E+02  0.11641112130E+03 -0.15218293028E+03  0.20409697660E+03  0.00000000000E+00 0. -1.
         21    1    1    2  506  501  0.16159965730E+03 -0.13377273459E+03  0.85535310145E+02  0.22655216406E+03  0.00000000000E+00 0. -1.
<scales pt_clust_3="35.59305" pt_clust_4="72.71569" pt_clust_5="14000.00000" pt_clust_6="170.49931"></scales>
<clustering>
<clus scale="   35.593">  1  3  2 -1</clus>
<clus scale="   72.716">  2  4  1 -1</clus>
<clus scale="  170.499">  1  6  2 -1</clus>
<clus scale="   35.593">  1  3  2 -1</clus>
</clustering>
</event>
<event>
 6    0  0.7442036E+002  0.1446476E+03  0.7546771E-02  0.1207209E+00
         21   -1    0    0  503  501  0.00000000000E+00  0.00000000000E+00  0.10121981395E+03  0.10121981395E+03  0.00000000000E+00 0. -1.
         21   -1    0    0  506  502 -0.00000000000E+00 -0.00000000000E+00 -0.21663343823E+04  0.21663343823E+04  0.00000000000E+00 0. -1.
         21    1    1    2  503  504  0.13088060065E+03 -0.65605345055E+02  0.26794491285E+02  0.14883459843E+03  0.00000000000E+00 0. -1.
         21    1    1    2  504  502 -0.30733066003E+02  0.68918914394E+01 -0.12644141772E+03  0.13030522487E+03  0.00000000000E+00 0.  1.
         21    1    1    2  505  501 -0.19103358261E+02 -0.28416693514E+02 -0.20704300732E+02  0.40013933022E+02  0.00000000000E+00 0. -1.
         21    1    1    2  506  505 -0.81044176388E+02  0.87130147129E+02 -0.19447633411E+04  0.19484004399E+04  0.00000000000E+00 0. -1.
<scales pt_clust_3="14000.00000" pt_clust_4="31.49634" pt_clust_5="34.41401" pt_clust_6="144.64760"></scales>
<clustering>
<clus scale="   31.496">  2  4  1 -1</clus>
<clus scale="   34.414">  1  5  2 -1</clus>
<clus scale="  144.648">  2  6  1 -1</clus>
<clus scale="   34.414">  1  3  2 -1</clus>
</clustering>
</event>
<event>
 6    0  0.7442036E+002  0.1225438E+03  0.7546771E-02  0.1238959E+00
         21   -1    0    0  503  501  0.00000000000E+00  0.00000000000E+00  0.38148535770E+03  0.38148535770E+03  0.00000000000E+00 0. -1.
         21   -1    0    0  504  502 -0.00000000000E+00 -0.00000000000E+00 -0.33560116563E+03  0.33560116563E+03  0.00000000000E+00 0. -1.
         21    1    1    2  503  502  0.73813254401E+02  0.95458830561E+02 -0.20434471932E+03  0.23731318794E+03  0.00000000000E+00 0. -1.
         21    1    1    2  504  506 -0.55079362129E+02  0.39790311865E+02 -0.82543391987E+02  0.10691312647E+03  0.00000000000E+00 0. -1.
         21    1    1    2  505  501  0.38909122174E+01 -0.49925894136E+02  0.23854665114E+03  0.24374625920E+03  0.00000000000E+00 0. -1.
         21    1    1    2  506  505 -0.22624804489E+02 -0.85323248289E+02  0.94225652233E+02  0.12911394973E+03  0.00000000000E+00 0. -1.
<scales pt_clust_3="122.54383" pt_clust_4="65.22062" pt_clust_5="50.07728" pt_clust_6="14000.00000"></scales>
<clustering>
<clus scale="   50.077">  1  5  2 -1</clus>
<clus scale="   65.221">  2  4  1 -1</clus>
<clus scale="  122.544">  2  3  1 -1</clus>
<clus scale="   50.077">  1  3  2 -1</clus>
</clustering>
</event>
<event>
 6    0  0.7442036E+002  0.1682085E+03  0.7546771E-02  0.1179729E+00
         21   -1    0    0  505  501  0.00000000000E+00  0.00000000000E+00  0.59903837899E+02  0.59903837899E+02  0.00000000000E+00 0. -1.
         21   -1    0    0  503  502 -0.00000000000E+00 -0.00000000000E+00 -0.83656498056E+03  0.83656498056E+03  0.00000000000E+00 0.  1.
         21    1    1    2  503  504  0.17142354157E+03  0.68377987133E+02 -0.56297075470E+03  0.59245054677E+03  0.00000000000E+00 0.  1.
         21    1    1    2  504  506 -0.45325166697E+02 -0.47069727470E+02 -0.44979373781E+02  0.79328897925E+02  0.00000000000E+00 0. -1.
         21    1    1    2  505  502 -0.30020233483E+02 -0.15673365716E+02 -0.10229280337E+03  0.10775289524E+03  0.00000000000E+00 0. -1.
         21    1    1    2  506  501 -0.96078141386E+02 -0.56348939463E+01 -0.66418210818E+02  0.11693647853E+03  0.00000000000E+00 0. -1.
<scales pt_clust_3="157.97498" pt_clust_4="47.63988" pt_clust_5="33.86545" pt_clust_6="47.63988"></scales>
<clustering>
<clus scale="   33.865">  2  5  1 -1</clus>
<clus scale="   47.640">  4  6 -1 -1</clus>
<clus scale="  157.975">  2  3  1 -1</clus>
<clus scale="  168.208">  1  3  2 -1</clus>
</clustering>
</event>
<event>
 6    0  0.7442036E+002  0.1201146E+03  0.7546771E-02  0.1242908E+00
         21   -1    0    0  504  501  0.00000000000E+00  0.00000000000E+00  0.13541342768E+03  0.13541342768E+03  0.00000000000E+00 0. -1.
         21   -1    0    0  503  502 -0.00000000000E+00 -0.00000000000E+00 -0.25142247454E+03  0.25142247454E+03  0.00000000000E+00 0.  1.
         21    1    1    2  503  505 -0.87531776040E+02 -0.74250367779E+02 -0.10048808063E+03  0.15255419785E+03  0.00000000000E+00 0.  1.
         21    1    1    2  504  506 -0.28094499766E+02  0.13441363555E+02  0.11980612906E+02  0.33369241180E+02  0.00000000000E+00 0.  1.
         21    1    1    2  505  501  0.96536937363E+02  0.85724658681E+02  0.32556784631E+02  0.13314669206E+03  0.00000000000E+00 0. -1.
         21    1    1    2  506  502  0.19089338444E+02 -0.24915654457E+02 -0.60058363771E+02  0.67765771139E+02  0.00000000000E+00 0.  1.
<scales pt_clust_3="120.11458" pt_clust_4="31.14436" pt_clust_5="14000.00000" pt_clust_6="30.44283"></scales>
<clustering>
<clus scale="   31.144">  1  4  2 -1</clus>
<clus scale="   30.443">  2  6  1 -1</clus>
<clus scale="  120.115">  2  3  1 -1</clus>
<clus scale="   31.144">  1  3  2 -1</clus>
</clustering>
</event>
<event>
 6    0  0.7442036E+002  0.3065961E+03  0.7546771E-02  0.1081989E+00
         21   -1    0    0  503  501  0.00000000000E+00  0.00000000000E+00  0.41072334622E+03  0.41072334622E+03  0.00000000000E+00 0.  1.
         21   -1    0    0  501  502 -0.00000000000E+00 -0.00000000000E+00 -0.93751141574E+03  0.93751141574E+03  0.00000000000E+00 0.  1.
         21    1    1    2  503  506 -0.92248677794E+01  0.35805474974E+02  0.19418395423E+02  0.41763672066E+02  0.00000000000E+00 0.  1.
         21    1    1    2  504  505 -0.21737446946E+03 -0.27330449185E+03  0.17464825706E+03  0.39044720377E+03  0.00000000000E+00 0.  1.
         21    1    1    2  505  502  0.18345824002E+03  0.24033747157E+03 -0.78355221485E+03  0.83986492930E+03  0.00000000000E+00 0.  1.
         21    1    1    2  506  504  0.43141097224E+02 -0.28384546942E+01  0.62697492849E+02  0.76158956823E+02  0.00000000000E+00 0.  1.
<scales pt_clust_3="36.97472" pt_clust_4="306.59606" pt_clust_5="14000.00000" pt_clust_6="41.62113"></scales>
<clustering>
<clus scale="   36.975">  1  3  2 -1</clus>
<clus scale="   41.621">  1  6  2 -1</clus>
<clus scale="  306.596">  1  4  2 -1</clus>
<clus scale="   36.975">  1  3  2 -1</clus>
</clustering>
</event>
<event>
 6    0  0.7442036E+002  0.9032207E+02  0.7546771E-02  0.1302074E+00
         21   -1    0    0  504  501  0.00000000000E+00  0.00000000000E+00  0.52443539470E+03  0.52443539470E+03  0.00000000000E+00 0.  1.
         21   -1    0    0  505  502 -0.00000000000E+00 -0.00000000000E+00 -0.11350043514E+03  0.11350043514E+03  0.00000000000E+00 0.  1.
         21    1    1    2  503  502 -0.32800338872E+02 -0.98408020378E+02  0.65166728448E+02  0.12250184979E+03  0.00000000000E+00 0.  1.
         21    1    1    2  504  503 -0.35635651948E+02  0.20553069613E+02  0.38787777778E+03  0.39005320003E+03  0.00000000000E+00 0.  1.
         21    1    1    2  505  506  0.27124859753E+02  0.15138087868E+02 -0.39479176784E+02  0.50234700362E+02  0.00000000000E+00 0.  1.
         21    1    1    2  506  501  0.41311131068E+02  0.62716862897E+02 -0.26303698797E+01  0.75146079654E+02  0.00000000000E+00 0.  1.
<scales pt_clust_3="14000.00000" pt_clust_4="40.88762" pt_clust_5="31.06316" pt_clust_6="90.32207"></scales>
<clustering>
<clus scale="   31.063">  2  5  1 -1</clus>
<clus scale="   40.888">  1  4  2 -1</clus>
<clus scale="   90.322">  2  6  1 -1</clus>
<clus scale="   40.888">  1  3  2 -1</clus>
</clustering>
</event>
<event>
 6    0  0.7442036E+002  0.1475058E+03  0.7546771E-02  0.1203572E+00
         21   -1    0    0  503  501  0.00000000000E+00  0.00000000000E+00  0.14942530624E+04  0.14942530624E+04  0.00000000000E+00 0. -1.
         21   -1    0    0  505  502 -0.00000000000E+00 -0.00000000000E+00 -0.14806114107E+03  0.14806114107E+03  0.00000000000E+00 0.  1.
         21    1    1    2  503  506  0.38416871669E+02 -0.20930394948E+02  0.32281498588E+03  0.32576594753E+03  0.00000000000E+00 0. -1.
         21    1    1    2  504  502  0.84315140160E+02  0.42946465595E+02 -0.88343601351E+02  0.12945282410E+03  0.00000000000E+00 0.  1.
         21    1    1    2  505  501 -0.13388185387E+03 -0.68746920521E+02  0.11267500034E+04  0.11367568166E+04  0.00000000000E+00 0. -1.
         21    1    1    2  506  504  0.11149842045E+02  0.46730849874E+02 -0.15029466689E+02  0.50338615163E+02  0.00000000000E+00 0.  1.
<scales pt_clust_3="43.74857" pt_clust_4="47.51782" pt_clust_5="131.43277" pt_clust_6="47.51782"></scales>
<clustering>
<clus scale="   43.749">  1  3  2 -1</clus>
<clus scale="   47.518">  4  6 -1 -1</clus>
<clus scale="  131.433">  1  5  2 -1</clus>
<clus scale="   43.749">  1  3  2 -1</clus>
</clustering>
</event>
<event>
 6    0  0.7442036E+002  0.1418807E+03  0.7546771E-02  0.1210821E+00
         21   -1    0    0  505  501  0.00000000000E+00  0.00000000000E+00  0.11866931665E+03  0.11866931665E+03  0.00000000000E+00 0.  1.
         21   -1    0    0  506  502 -0.00000000000E+00 -0.00000000000E+00 -0.26769744405E+03  0.26769744405E+03  0.00000000000E+00 0. -1.
         21    1    1    2  503  504 -0.12562989453E+02 -0.41812064008E+02 -0.58409059681E+02  0.72922531864E+02  0.00000000000E+00 0. -1.
         21    1    1    2  504  501 -0.10476569175E+02 -0.71728398682E+02 -0.51336464401E+01  0.72671012137E+02  0.00000000000E+00 0. -1.
         21    1    1    2  505  502 -0.12291778802E+02  0.13699470962E+03  0.83517490092E+01  0.13779836719E+03  0.00000000000E+00 0.  1.
         21    1    1    2  506  503  0.35331337431E+02 -0.23454246930E+02 -0.93837170289E+02  0.10297484951E+03  0.00000000000E+00 0. -1.
<scales pt_clust_3="49.66705" pt_clust_4="49.66705" pt_clust_5="128.03348" pt_clust_6="42.40761"></scales>
<clustering>
<clus scale="   42.408">  2  6  1 -1</clus>
<clus scale="   49.667">  3  4 -1 -1</clus>
<clus scale="  128.033">  1  5  2 -1</clus>
<clus scale="  128.033">  1  3  2 -1</clus>
</clustering>
</event>
<event>
 6    0  0.7442036E+002  0.1785406E+03  0.7546771E-02  0.1169223E+00
         21   -1    0    0  504  501  0.00000000000E+00  0.00000000000E+00  0.17683033339E+03  0.17683033339E+03  0.00000000000E+00 0.  1.
         21   -1    0    0  506  502 -0.00000000000E+00 -0.00000000000E+00 -0.97695908378E+03  0.97695908378E+03  0.00000000000E+00 0.  1.
         21    1    1    2  503  501  0.21088579050E+02 -0.59892357028E+02  0.11286466038E+03  0.12950001606E+03  0.00000000000E+00 0.  1.
         21    1    1    2  504  505 -0.36337901327E+02  0.22415337476E+02 -0.11155223339E+03  0.11944367376E+03  0.00000000000E+00 0.  1.
         21    1    1    2  505  502 -0.60212199284E+02  0.12252788014E+03 -0.77653928471E+03  0.78844901614E+03  0.00000000000E+00 0.  1.
         21    1    1    2  506  503  0.75461521560E+02 -0.85050860593E+02 -0.24901892667E+02  0.11639671122E+03  0.00000000000E+00 0.  1.
<scales pt_clust_3="63.49663" pt_clust_4="40.45072" pt_clust_5="40.45072" pt_clust_6="163.23182"></scales>
<clustering>
<clus scale="   40.451">  4  5 -1 -1</clus>
<clus scale="   63.497">  1  3  2 -1</clus>
<clus scale="  163.232">  1  6  2 -1</clus>
<clus scale="   63.497">  1  3  2 -1</clus>
</clustering>
</event>
<event>
 6    0  0.7442036E+002  0.1633661E+03  0.7546771E-02  0.1184948E+00
         21   -1    0    0  503  501  0.00000000000E+00  0.00000000000E+00  0.57121935744E+03  0.57121935744E+03  0.00000000000E+00 0. -1.
         21   -1    0    0  504  502 -0.00000000000E+00 -0.00000000000E+00 -0.26077160041E+03  0.26077160041E+03  0.00000000000E+00 0. -1.
         21    1    1    2  503  506 -0.56423695514E+02 -0.15870347665E+03  0.23858561502E+03  0.29205054804E+03  0.00000000000E+00 0. -1.
         21    1    1    2  504  505  0.13823420756E+03 -0.38861795577E+02  0.67400215715E+02  0.15862447596E+03  0.00000000000E+00 0. -1.
         21    1    1    2  505  501  0.24381850525E+02  0.51445521812E+02  0.14284298927E+03  0.15377007489E+03  0.00000000000E+00 0. -1.
         21    1    1    2  506  502 -0.10619236257E+03  0.14611975042E+03 -0.13838106298E+03  0.22754585895E+03  0.00000000000E+00 0. -1.
<scales pt_clust_3="132.94993" pt_clust_4="163.36614" pt_clust_5="56.93080" pt_clust_6="14000.00000"></scales>
<clustering>
<clus scale="   56.931">  1  5  2 -1</clus>
<clus scale="  132.950">  1  3  2 -1</clus>
<clus scale="  163.366">  1  4  2 -1</clus>
<clus scale="   56.931">  1  3  2 -1</clus>
</clustering>
</event>
<event>
 6    0  0.7442036E+002  0.9125153E+02  0.7546771E-02  0.1299849E+00
         21   -1    0    0  505  501  0.00000000000E+00  0.00000000000E+00  0.15587779845E+03  0.15587779845E+03  0.00000000000E+00 0. -1.
         21   -1    0    0  503  502 -0.00000000000E+00 -0.00000000000E+00 -0.32085507464E+03  0.32085507464E+03  0.00000000000E+00 0.  1.
         21    1    1    2  503  501  0.45589436930E+02  0.62567472482E+02 -0.20328287933E+03  0.21752474434E+03  0.00000000000E+00 0.  1.
         21    1    1    2  504  502 -0.45444927835E+02  0.45727091613E+02 -0.68459716595E+02  0.94036913866E+02  0.00000000000E+00 0.  1.
         21    1    1    2  505  506  0.32031080490E+02 -0.50382521403E+02  0.47785164500E+02  0.76470978329E+02  0.00000000000E+00 0. -1.
         21    1    1    2  506  504 -0.32175589586E+02 -0.57912042691E+02  0.58980155238E+02  0.88700236559E+02  0.00000000000E+00 0. -1.
<scales pt_clust_3="91.25153" pt_clust_4="56.54073" pt_clust_5="59.70250" pt_clust_6="14000.00000"></scales>
<clustering>
<clus scale="   59.703">  1  5  2 -1</clus>
<clus scale="   56.541">  2  4  1 -1</clus>
<clus scale="   91.252">  2  3  1 -1</clus>
<clus scale="   59.703">  1  3  2 -1</clus>
</clustering>
</event>
<event>
 6    0  0.7442036E+002  0.1383419E+03  0.7546771E-02  0.1215578E+00
         21   -1    0    0  506  501  0.00000000000E+00  0.00000000000E+00  0.33720155110E+03  0.33720155110E+03  0.00000000000E+00 0. -1.
         21   -1    0    0  504  502 -0.00000000000E+00 -0.00000000000E+00 -0.13160178473E+03  0.13160178473E+03  0.00000000000E+00 0.  1.
         21    1    1    2  503  502  0.98652248447E+02  0.87606172997E+01  0.34990627079E+02  0.10503979495E+03  0.00000000000E+00 0.  1.
         21    1    1    2  504  505 -0.12624788756E+03  0.31801748162E+02 -0.38687358702E+02  0.13581823155E+03  0.00000000000E+00 0.  1.
         21    1    1    2  505  501  0.90932591457E+00 -0.56124650125E+02  0.16204235951E+03  0.17148915272E+03  0.00000000000E+00 0. -1.
         21    1    1    2  506  503  0.26686313198E+02  0.15562284663E+02  0.47254138483E+02  0.56456156616E+02  0.00000000000E+00 0.  1.
<scales pt_clust_3="30.66840" pt_clust_4="126.97677" pt_clust_5="56.13202" pt_clust_6="30.66840"></scales>
<clustering>
<clus scale="   30.668">  3  6 -1 -1</clus>
<clus scale="   56.132">  1  5  2 -1</clus>
<clus scale="  126.977">  2  4  1 -1</clus>
<clus scale="   56.132">  1  3  2 -1</clus>
</clustering>
</event>
<event>
 6    0  0.7442036E+002  0.1066693E+03  0.7546771E-02  0.1266865E+00
         21   -1    0    0  504  501  0.00000000000E+00  0.00000000000E+00  0.45055972479E+02  0.45055972479E+02  0.00000000000E+00 0.  1.
         21   -1    0    0  506  502 -0.00000000000E+00 -0.00000000000E+00 -0.11547316277E+04  0.11547316277E+04  0.00000000000E+00 0.  1.
         21    1    1    2  503  501  0.31973014964E+02  0.92881582190E+01  0.58487749764E+01  0.33804611191E+02  0.00000000000E+00 0.  1.
         21    1    1    2  504  502 -0.13324311338E+03 -0.31387653001E+02 -0.20923179832E+03  0.25003371263E+03  0.00000000000E+00 0.  1.
         21    1    1    2  505  503  0.77319050641E+02  0.52864535957E+02 -0.63984293437E+03  0.64666210297E+03  0.00000000000E+00 0.  1.
         21    1    1    2  506  505  0.23951047779E+02 -0.30765041175E+02 -0.26644969754E+03  0.26928717341E+03  0.00000000000E+00 0.  1.
<scales pt_clust_3="33.29480" pt_clust_4="14000.00000" pt_clust_5="106.66932" pt_clust_6="39.71945"></scales>
<clustering>
<clus scale="   33.295">  1  3  2 -1</clus>
<clus scale="   39.719">  2  6  1 -1</clus>
<clus scale="  106.669">  2  5  1 -1</clus>
<clus scale="   33.295">  1  3  2 -1</clus>
</clustering>
</event>
<event>
 6    0  0.7442036E+002  0.2271637E+03  0.7546771E-02  0.1128652E+00
         21   -1    0    0  504  501  0.00000000000E+00  0.00000000000E+00  0.30875954311E+04  0.30875954311E+04  0.00000000000E+00 0.  1.
         21   -1    0    0  506  502 -0.00000000000E+00 -0.00000000000E+00 -0.66372118036E+02  0.66372118036E+02  0.00000000000E+00 0.  1.
         21    1    1    2  503  502 -0.51511439096E+02  0.21332877831E+03  0.27077200642E+04  0.27165990765E+04  0.00000000000E+00 0.  1.
         21    1    1    2  504  503 -0.31190028252E+02 -0.61171906327E+01  0.15937300528E+03  0.16251151558E+03  0.00000000000E+00 0. -1.
         21    1    1    2  505  501  0.49290222564E+02 -0.88300518161E+02  0.47696054585E+02  0.11180975436E+03  0.00000000000E+00 0.  1.
         21    1    1    2  506  505  0.33411244784E+02 -0.11891106952E+03  0.10643418893E+03  0.16304720269E+03  0.00000000000E+00 0.  1.
<scales pt_clust_3="222.68656" pt_clust_4="31.78424" pt_clust_5="40.57189" pt_clust_6="40.57189"></scales>
<clustering>
<clus scale="   31.784">  1  4  2 -1</clus>
<clus scale="   40.572">  5  6 -1 -1</clus>
<clus scale="  222.687">  1  3  2 -1</clus>
<clus scale="   31.784">  1  3  2 -1</clus>
</clustering>
</event>
<event>
 6    0  0.7442036E+002  0.1046049E+03  0.7546771E-02  0.1270900E+00
         21   -1    0    0  505  501  0.00000000000E+00  0.00000000000E+00  0.82445632983E+03  0.82445632983E+03  0.00000000000E+00 0. -1.
         21   -1    0    0  506  502 -0.00000000000E+00 -0.00000000000E+00 -0.34142022084E+03  0.34142022084E+03  0.00000000000E+00 0.  1.
         21    1    1    2  503  501  0.86663104330E+02 -0.73496631872E+02  0.35911384145E+03  0.37666297889E+03  0.00000000000E+00 0. -1.
         21    1    1    2  504  502  0.19365885551E+02  0.27738386066E+02 -0.50295755204E+02  0.60614507968E+02  0.00000000000E+00 0.  1.
         21    1    1    2  505  504 -0.81367347261E+02 -0.33317348746E+02  0.44078006163E+03  0.44946385134E+03  0.00000000000E+00 0. -1.
         21    1    1    2  506  503 -0.24661642620E+02  0.79075594553E+02 -0.26656203888E+03  0.27913521248E+03  0.00000000000E+00 0.  1.
<scales pt_clust_3="104.60493" pt_clust_4="33.82980" pt_clust_5="87.49309" pt_clust_6="14000.00000"></scales>
<clustering>
<clus scale="   33.830">  2  4  1 -1</clus>
<clus scale="   87.493">  1  5  2 -1</clus>
<clus scale="  104.605">  1  3  2 -1</clus>
<clus scale="   87.493">  1  3  2 -1</clus>
</clustering>
</event>
<event>
 6    0  0.7442036E+002  0.1646614E+03  0.7546771E-02  0.1183532E+00
         21   -1    0    0  506  501  0.00000000000E+00  0.00000000000E+00  0.83674523145E+03  0.83674523145E+03  0.00000000000E+00 0. -1.
         21   -1    0    0  501  502 -0.00000000000E+00 -0.00000000000E+00 -0.14062206067E+03  0.14062206067E+03  0.00000000000E+00 0. -1.
         21    1    1    2  503  504 -0.32215520353E+02  0.19544861124E+02  0.70519959168E+02  0.79955650138E+02  0.00000000000E+00 0.  1.
         21    1    1    2  504  502  0.10318822150E+03 -0.12752693548E+03 -0.48527394312E+02  0.17107260543E+03  0.00000000000E+00 0. -1.
         21    1    1    2  505  503 -0.42960255798E+02  0.84943571429E+02  0.63035589955E+02  0.11416864502E+03  0.00000000000E+00 0.  1.
         21    1    1    2  506  505 -0.28012445353E+02  0.23038502930E+02  0.61109501598E+03  0.61217039153E+03  0.00000000000E+00 0. -1.
<scales pt_clust_3="36.02182" pt_clust_4="154.38737" pt_clust_5="36.02182" pt_clust_6="36.26940"></scales>
<clustering>
<clus scale="   36.022">  3  5 -1 -1</clus>
<clus scale="   36.269">  1  6  2 -1</clus>
<clus scale="  154.387">  2  4  1 -1</clus>
<clus scale="   36.269">  1  3  2 -1</clus>
</clustering>
</event>
<event>
 6    0  0.7442036E+002  0.8741708E+02  0.7546771E-02  0.1309230E+00
         21   -1    0    0  505  501  0.00000000000E+00  0.00000000000E+00  0.28212519194E+02  0.28212519194E+02  0.00000000000E+00 0. -1.
         21   -1    0    0  506  502 -0.00000000000E+00 -0.00000000000E+00 -0.98973719763E+03  0.98973719763E+03  0.00000000000E+00 0. -1.
         21    1    1    2  503  501 -0.23452910810E+02 -0.32632227745E+02 -0.79234081837E+02  0.88842225533E+02  0.00000000000E+00 0. -1.
         21    1    1    2  504  503 -0.62220728036E+02  0.70643184099E+02 -0.10478852593E+03  0.14086345737E+03  0.00000000000E+00 0. -1.
         21    1    1    2  505  502  0.79092982468E+00 -0.42791386455E+02 -0.20092233920E+03  0.20543007256E+03  0.00000000000E+00 0. -1.
         21    1    1    2  506  504  0.84882709021E+02  0.47804301007E+01 -0.57657973147E+03  0.58281396135E+03  0.00000000000E+00 0. -1.
<scales pt_clust_3="40.18583" pt_clust_4="87.41708" pt_clust_5="45.95679" pt_clust_6="14000.00000"></scales>
<clustering>
<clus scale="   40.186">  1  3  2 -1</clus>
<clus scale="   45.957">  2  5  1 -1</clus>
<clus scale="   87.417">  1  4  2 -1</clus>
<clus scale="   40.186">  1  3  2 -1</clus>
</clustering>
</event>
<event>
 6    0  0.7442036E+002  0.1833032E+03  0.7546771E-02  0.1164644E+00
         21   -1    0    0  506  501  0.00000000000E+00  0.00000000000E+00  0.56794000071E+03  0.56794000071E+03  0.00000000000E+00 0. -1.
         21   -1    0    0  505  502 -0.00000000000E+00 -0.00000000000E+00 -0.22080098730E+04  0.22080098730E+04  0.00000000000E+00 0.  1.
         21    1    1    2  503  504 -0.13036111556E+03  0.16764176615E+02 -0.13901752723E+04  0.13963747154E+04  0.00000000000E+00 0.  1.
         21    1    1    2  504  501  0.97238792379E+02 -0.16695206878E+02  0.50937185235E+03  0.51883889276E+03  0.00000000000E+00 0. -1.
         21    1    1    2  505  503 -0.44131025002E+02 -0.22799881734E+02 -0.77674622740E+03  0.77833288750E+03  0.00000000000E+00 0.  1.
         21    1    1    2  506  502  0.77253348179E+02  0.22730911997E+02  0.17479775137E+02  0.82403377988E+02  0.00000000000E+00 0. -1.
<scales pt_clust_3="35.42434" pt_clust_4="174.01040" pt_clust_5="35.42434" pt_clust_6="80.52810"></scales>
<clustering>
<clus scale="   35.424">  3  5 -1 -1</clus>
<clus scale="   80.528">  1  6  2 -1</clus>
<clus scale="  174.010">  1  4  2 -1</clus>
<clus scale="   80.528">  1  3  2 -1</clus>
</clustering>
</event>
<event>
 6    0  0.7442036E+002  0.1235581E+03  0.7546771E-02  0.1237340E+00
         21   -1    0    0  503  501  0.00000000000E+00  0.00000000000E+00  0.85974549268E+03  0.85974549268E+03  0.00000000000E+00 0. -1.
         21   -1    0    0  505  502 -0.00000000000E+00 -0.00000000000E+00 -0.60384499050E+02  0.60384499050E+02  0.00000000000E+00 0. -1.
         21    1    1    2  503  506 -0.57696475821E+02 -0.12400172081E+03  0.61575311613E+03  0.63075923308E+03  0.00000000000E+00 0. -1.
         21    1    1    2  504  501  0.46504568159E+02 -0.66366384355E+01  0.60031617429E+02  0.76226733634E+02  0.00000000000E+00 0. -1.
         21    1    1    2  505  504  0.12263325549E+02  0.28354426232E+02 -0.20040364825E+02  0.36823618274E+02  0.00000000000E+00 0. -1.
         21    1    1    2  506  502 -0.10714178866E+01  0.10228393301E+03  0.14361662489E+03  0.17632040675E+03  0.00000000000E+00 0. -1.
<scales pt_clust_3="14000.00000" pt_clust_4="49.61544" pt_clust_5="30.89276" pt_clust_6="123.55815"></scales>
<clustering>
<clus scale="   30.893">  2  5  1 -1</clus>
<clus scale="   49.615">  2  4  1 -1</clus>
<clus scale="  123.558">  2  6  1 -1</clus>
<clus scale="  123.558">  1  3  2 -1</clus>
</clustering>
</event>
<event>
 6    0  0.7442036E+002  0.1262774E+03  0.7546771E-02  0.1233086E+00
         21   -1    0    0  504  501  0.00000000000E+00  0.00000000000E+00  0.16527550511E+03  0.16527550511E+03  0.00000000000E+00 0.  1.
         21   -1    0    0  505  502 -0.00000000000E+00 -0.00000000000E+00 -0.12753833960E+04  0.12753833960E+04  0.00000000000E+00 0. -1.
         21    1    1    2  503  506  0.12017377138E+03 -0.13803452983E+03 -0.17047479115E+02  0.18380936673E+03  0.00000000000E+00 0.  1.
         21    1    1    2  504  502  0.39453518483E+01  0.43241755391E+02 -0.50486878661E+02  0.66590841168E+02  0.00000000000E+00 0.  1.
         21    1    1    2  505  503 -0.49046967305E+02  0.11413623571E+03 -0.10915260103E+04  0.10985725813E+04  0.00000000000E+00 0. -1.
         21    1    1    2  506  501 -0.75072155927E+02 -0.19343461278E+02  0.48952477180E+02  0.91686111881E+02  0.00000000000E+00 0. -1.
<scales pt_clust_3="126.27738" pt_clust_4="43.42137" pt_clust_5="14000.00000" pt_clust_6="73.30757"></scales>
<clustering>
<clus scale="   43.421">  1  4  2 -1</clus>
<clus scale="   73.308">  1  6  2 -1</clus>
<clus scale="  126.277">  1  3  2 -1</clus>
<clus scale="   43.421">  1  3  2 -1</clus>
</clustering>
</event>
<event>
 6    0  0.7442036E+002  0.1139490E+03  0.7546771E-02  0.1253427E+00
         21   -1    0    0  504  501  0.00000000000E+00  0.00000000000E+00  0.70952039502E+03  0.70952039502E+03  0.00000000000E+00 0.  1.
         21   -1    0    0  506  502 -0.00000000000E+00 -0.00000000000E+00 -0.85848409348E+02  0.85848409348E+02  0.00000000000E+00 0.  1.
         21    1    1    2  503  505 -0.36284032418E+02 -0.23000999948E+02 -0.19524611306E+02  0.47188848829E+02  0.00000000000E+00 0. -1.
         21    1    1    2  504  502  0.12543842541E+03  0.10182696194E+03  0.23356080766E+03  0.28399679509E+03  0.00000000000E+00 0.  1.
         21    1    1    2  505  501 -0.56744179215E+02 -0.31296944285E+02  0.40077119610E+03  0.40597654147E+03  0.00000000000E+00 0.  1.
         21    1    1    2  506  503 -0.32410213779E+02 -0.47529017702E+02  0.88645932205E+01  0.58206618987E+02  0.00000000000E+00 0.  1.
<scales pt_clust_3="31.17198" pt_clust_4="108.08880" pt_clust_5="64.80278" pt_clust_6="31.17198"></scales>
<clustering>
<clus scale="   31.172">  3  6 -1 -1</clus>
<clus scale="   64.803">  1  5  2 -1</clus>
<clus scale="  108.089">  1  4  2 -1</clus>
<clus scale="   64.803">  1  3  2 -1</clus>
</clustering>
</event>
<event>
 6    0  0.7442036E+002  0.6150664E+02  0.7546771E-02  0.1391616E+00
         21   -1    0    0  503  501  0.00000000000E+00  0.00000000000E+00  0.20828754626E+03  0.20828754626E+03  0.00000000000E+00 0. -1.
         21   -1    0    0  506  502 -0.00000000000E+00 -0.00000000000E+00 -0.85191442707E+03  0.85191442707E+03  0.00000000000E+00 0. -1.
         21    1    1    2  503  502 -0.27124734968E+02  0.82430805074E+02  0.17354031109E+03  0.19402790635E+03  0.00000000000E+00 0. -1.
         21    1    1    2  504  505  0.64155886199E+02  0.41568367352E+01 -0.34981076125E+03  0.35566954566E+03  0.00000000000E+00 0. -1.
         21    1    1    2  505  501  0.56093124377E+01 -0.30593401011E+02  0.62263118585E+01  0.31720459183E+02  0.00000000000E+00 0.  1.
         21    1    1    2  506  504 -0.42640463669E+02 -0.55994240798E+02 -0.47358274250E+03  0.47878406212E+03  0.00000000000E+00 0. -1.
<scales pt_clust_3="57.01365" pt_clust_4="14000.00000" pt_clust_5="31.10339" pt_clust_6="61.50664"></scales>
<clustering>
<clus scale="   31.103">  1  5  2 -1</clus>
<clus scale="   57.014">  1  3  2 -1</clus>
<clus scale="   61.507">  2  6  1 -1</clus>
<clus scale="   31.103">  1  3  2 -1</clus>
</clustering>
</event>
<event>
 6    0  0.7442036E+002  0.1059088E+03  0.7546771E-02  0.1268339E+00
         21   -1    0    0  503  501  0.00000000000E+00  0.00000000000E+00  0.11168090706E+03  0.11168090706E+03  0.00000000000E+00 0. -1.
         21   -1    0    0  506  502 -0.00000000000E+00 -0.00000000000E+00 -0.11228090603E+04  0.11228090603E+04  0.00000000000E+00 0.  1.
         21    1    1    2  503  504  0.13217715522E+03 -0.82460342047E+02 -0.47547320442E+02  0.16288417987E+03  0.00000000000E+00 0. -1.
         21    1    1    2  504  505 -0.70298633695E+02 -0.38801502813E+02 -0.55901804573E+03  0.56475537180E+03  0.00000000000E+00 0.  1.
         21    1    1    2  505  502 -0.41056054657E+02  0.38639345308E+02 -0.41695378595E+03  0.42074821241E+03  0.00000000000E+00 0.  1.
         21    1    1    2  506  501 -0.20822466865E+02  0.82622499552E+02  0.12390998867E+02  0.86102203291E+02  0.00000000000E+00 0. -1.
<scales pt_clust_3="14000.00000" pt_clust_4="105.90878" pt_clust_5="56.37906" pt_clust_6="87.70726"></scales>
<clustering>
<clus scale="   56.379">  2  5  1 -1</clus>
<clus scale="   87.707">  1  6  2 -1</clus>
<clus scale="  105.909">  2  4  1 -1</clus>
<clus scale="   87.707">  1  3  2 -1</clus>
</clustering>
</event>
<event>
 6    0  0.7442036E+002  0.1260632E+03  0.7546771E-02  0.1233417E+00
         21   -1    0    0  503  501  0.00000000000E+00  0.00000000000E+00  0.23024479978E+03  0.23024479978E+03  0.00000000000E+00 0.  1.
         21   -1    0    0  504  502 -0.00000000000E+00 -0.00000000000E+00 -0.34671675568E+03  0.34671675568E+03  0.00000000000E+00 0.  1.
         21    1    1    2  503  502 -0.15161639236E+00 -0.10903716522E+03  0.16313067969E+02  0.11025081666E+03  0.00000000000E+00 0.  1.
         21    1    1    2  504  506  0.12896234795E+03 -0.12765301762E+02 -0.19137898383E+03  0.23112800689E+03  0.00000000000E+00 0.  1.
         21    1    1    2  505  501 -0.14356949465E+02  0.10299438284E+03  0.59063570849E+02  0.11959293582E+03  0.00000000000E+00 0.  1.
         21    1    1    2  506  505 -0.11445378209E+03  0.18808084142E+02 -0.46961089421E+00  0.11598979610E+03  0.00000000000E+00 0.  1.
<scales pt_clust_3="63.13091" pt_clust_4="14000.00000" pt_clust_5="103.99022" pt_clust_6="126.06323"></scales>
<clustering>
<clus scale="  103.990">  1  5  2 -1</clus>
<clus scale="   63.131">  1  3  2 -1</clus>
<clus scale="  126.063">  1  6  2 -1</clus>
<clus scale="  103.990">  1  3  2 -1</clus>
</clustering>
</event>
<event>
 6    0  0.7442036E+002  0.2469241E+03  0.7546771E-02  0.1115264E+00
         21   -1    0    0  506  501  0.00000000000E+00  0.00000000000E+00  0.44453493192E+03  0.44453493192E+03  0.00000000000E+00 0. -1.
         21   -1    0    0  505  502 -0.00000000000E+00 -0.00000000000E+00 -0.51108302314E+03  0.51108302314E+03  0.00000000000E+00 0.  1.
         21    1    1    2  503  504  0.19250412692E+03 -0.38877752170E+02 -0.11164965008E+02  0.19670784158E+03  0.00000000000E+00 0.  1.
         21    1    1    2  504  502 -0.79706578462E+01 -0.30448647655E+02 -0.62579111599E+02  0.70048531313E+02  0.00000000000E+00 0.  1.
         21    1    1    2  505  501  0.75849888714E+02 -0.16263580937E+02 -0.28078051117E+03  0.29129951105E+03  0.00000000000E+00 0.  1.
         21    1    1    2  506  503 -0.26038335779E+03  0.85589980762E+02  0.28797649656E+03  0.39756207111E+03  0.00000000000E+00 0. -1.
<scales pt_clust_3="14000.00000" pt_clust_4="31.47462" pt_clust_5="79.28916" pt_clust_6="246.92406"></scales>
<clustering>
<clus scale="   31.475">  2  4  1 -1</clus>
<clus scale="   79.289">  2  5  1 -1</clus>
<clus scale="  246.924">  1  6  2 -1</clus>
<clus scale="  246.924">  1  3  2 -1</clus>
</clustering>
</event>
<event>
 6    0  0.7442036E+002  0.8222649E+02  0.7546771E-02  0.1322849E+00
         21   -1    0    0  503  501  0.00000000000E+00  0.00000000000E+00  0.49752054938E+03  0.49752054938E+03  0.00000000000E+00 0. -1.
         21   -1    0    0  505  502 -0.00000000000E+00 -0.00000000000E+00 -0.10214139314E+04  0.10214139314E+04  0.00000000000E+00 0.  1.
         21    1    1    2  503  506 -0.10676460265E+03  0.86489698055E+02  0.16387084283E+01  0.13741118446E+03  0.00000000000E+00 0.  1.
         21    1    1    2  504  501  0.63639682785E+02 -0.23711933634E+02  0.41905777096E+03  0.42452524120E+03  0.00000000000E+00 0. -1.
         21    1    1    2  505  504 -0.24361858136E+02  0.25047975445E+02 -0.11938728637E+03  0.12439543943E+03  0.00000000000E+00 0. -1.
         21    1    1    2  506  502  0.67486778004E+02 -0.87825739866E+02 -0.82520257507E+03  0.83260261571E+03  0.00000000000E+00 0.  1.
<scales pt_clust_3="82.22649" pt_clust_4="67.81772" pt_clust_5="34.94140" pt_clust_6="14000.00000"></scales>
<clustering>
<clus scale="   34.941">  2  5  1 -1</clus>
<clus scale="   67.818">  1  4  2 -1</clus>
<clus scale="   82.226">  1  3  2 -1</clus>
<clus scale="   67.818">  1  3  2 -1</clus>
</clustering>
</event>
<event>
 6    0  0.7442036E+002  0.1102958E+03  0.7546771E-02  0.1260023E+00
         21   -1    0    0  506  501  0.00000000000E+00  0.00000000000E+00  0.24787651317E+03  0.24787651317E+03  0.00000000000E+00 0. -1.
         21   -1    0    0  503  502 -0.00000000000E+00 -0.00000000000E+00 -0.20400951472E+03  0.20400951472E+03  0.00000000000E+00 0. -1.
         21    1    1    2  503  504 -0.63522163832E+02 -0.63952342133E+02 -0.51460800413E+02  0.10379393692E+03  0.00000000000E+00 0. -1.
         21    1    1    2  504  505 -0.18003782587E+02  0.16157199918E+03  0.12095357708E+03  0.20263122888E+03  0.00000000000E+00 0. -1.
         21    1    1    2  505  501  0.27255727561E+02 -0.45981902170E+02  0.20769272590E+02  0.57346078297E+02  0.00000000000E+00 0.  1.
         21    1    1    2  506  502  0.54270218857E+02 -0.51637754880E+02 -0.46395050813E+02  0.88114783798E+02  0.00000000000E+00 0. -1.
<scales pt_clust_3="110.29578" pt_clust_4="14000.00000" pt_clust_5="53.45288" pt_clust_6="80.06328"></scales>
<clustering>
<clus scale="   53.453">  1  5  2 -1</clus>
<clus scale="   80.063">  2  6  1 -1</clus>
<clus scale="  110.296">  2  3  1 -1</clus>
<clus scale="   53.453">  1  3  2 -1</clus>
</clustering>
</event>
<event>
 6    0  0.7442036E+002  0.7185018E+02  0.7546771E-02  0.1353912E+00
         21   -1    0    0  506  501  0.00000000000E+00  0.00000000000E+00  0.21023960808E+03  0.21023960808E+03  0.00000000000E+00 0. -1.
         21   -1    0    0  505  502 -0.00000000000E+00 -0.00000000000E+00 -0.18829983020E+03  0.18829983020E+03  0.00000000000E+00 0. -1.
         21    1    1    2  503  502  0.31622259575E+02  0.34588812797E+02 -0.41542289890E+02  0.62626792354E+02  0.00000000000E+00 0. -1.
         21    1    1    2  504  501  0.48543606073E+02  0.54392098083E+02  0.15704305580E+03  0.17314012648E+03  0.00000000000E+00 0. -1.
         21    1    1    2  505  504 -0.22387847898E+02 -0.65440802569E+02 -0.36405611831E+02  0.78160622740E+02  0.00000000000E+00 0. -1.
         21    1    1    2  506  503 -0.57778017750E+02 -0.23540108310E+02 -0.57155376205E+02  0.84611896702E+02  0.00000000000E+00 0. -1.
<scales pt_clust_3="46.86527" pt_clust_4="71.85018" pt_clust_5="14000.00000" pt_clust_6="41.69226"></scales>
<clustering>
<clus scale="   46.865">  2  3  1 -1</clus>
<clus scale="   41.692">  2  6  1 -1</clus>
<clus scale="   71.850">  1  4  2 -1</clus>
<clus scale="   71.850">  1  3  2 -1</clus>
</clustering>
</event>
<event>
 6    0  0.7442036E+002  0.8756753E+02  0.7546771E-02  0.1308852E+00
         21   -1    0    0  505  501  0.00000000000E+00  0.00000000000E+00  0.10375575362E+03  0.10375575362E+03  0.00000000000E+00 0.  1.
         21   -1    0    0  503  502 -0.00000000000E+00 -0.00000000000E+00 -0.40443088153E+03  0.40443088153E+03  0.00000000000E+00 0.  1.
         21    1    1    2  503  501  0.16614177671E+02 -0.26066201390E+02 -0.10931595409E+03  0.11360218120E+03  0.00000000000E+00 0.  1.
         21    1    1    2  504  506 -0.44722281850E+02  0.79349738692E+02 -0.72999695776E+02  0.11672797055E+03  0.00000000000E+00 0.  1.
         21    1    1    2  505  504 -0.38676115988E+02 -0.88033158830E+02  0.38728074764E+02  0.10366070990E+03  0.00000000000E+00 0.  1.
         21    1    1    2  506  502  0.66784220167E+02  0.34749621528E+02 -0.15708755280E+03  0.17419577350E+03  0.00000000000E+00 0.  1.
<scales pt_clust_3="30.91080" pt_clust_4="14000.00000" pt_clust_5="87.56753" pt_clust_6="78.76241"></scales>
<clustering>
<clus scale="   30.911">  2  3  1 -1</clus>
<clus scale="   78.762">  2  6  1 -1</clus>
<clus scale="   87.568">  1  5  2 -1</clus>
<clus scale="   87.568">  1  3  2 -1</clus>
</clustering>
</event>
<event>
 6    0  0.7442036E+002  0.2423388E+03  0.7546771E-02  0.1118245E+00
         21   -1    0    0  504  501  0.00000000000E+00  0.00000000000E+00  0.11787597160E+03  0.11787597160E+03  0.00000000000E+00 0.  1.
         21   -1    0    0  506  502 -0.00000000000E+00 -0.00000000000E+00 -0.11387957940E+04  0.11387957940E+04  0.00000000000E+00 0.  1.
         21    1    1    2  503  502 -0.69593338346E+02 -0.21616991810E+03 -0.55421776775E+03  0.59894073190E+03  0.00000000000E+00 0.  1.
         21    1    1    2  504  503  0.22007612575E+03  0.14633375876E+03 -0.21158808740E+03  0.33855071822E+03  0.00000000000E+00 0.  1.
         21    1    1    2  505  501 -0.48206003577E+02  0.58521014901E+02 -0.53402580869E+02  0.92738145385E+02  0.00000000000E+00 0. -1.
         21    1    1    2  506  505 -0.10227678383E+03  0.11315144447E+02 -0.20171138638E+03  0.22644217010E+03  0.00000000000E+00 0.  1.
<scales pt_clust_3="14000.00000" pt_clust_4="242.33879" pt_clust_5="75.81905" pt_clust_6="109.94552"></scales>
<clustering>
<clus scale="   75.819">  1  5  2 -1</clus>
<clus scale="  109.946">  2  6  1 -1</clus>
<clus scale="  242.339">  1  4  2 -1</clus>
<clus scale="   75.819">  1  3  2 -1</clus>
</clustering>
</event>
<event>
 6    0  0.7442036E+002  0.1140721E+03  0.7546771E-02  0.1253209E+00
         21   -1    0    0  504  501  0.00000000000E+00  0.00000000000E+00  0.35710150117E+02  0.35710150117E+02  0.00000000000E+00 0.  1.
         21   -1    0    0  506  502 -0.00000000000E+00 -0.00000000000E+00 -0.61576541190E+03  0.61576541190E+03  0.00000000000E+00 0.  1.
         21    1    1    2  503  505 -0.55504410742E+02 -0.19432226277E+02 -0.15412821159E+03  0.16496622878E+03  0.00000000000E+00 0.  1.
         21    1    1    2  504  503 -0.23211101507E+02 -0.23534146651E+02 -0.93526918340E+01  0.34352352704E+02  0.00000000000E+00 0.  1.
         21    1    1    2  505  502 -0.13930565697E+02 -0.40474665763E+02 -0.17673657404E+03  0.18184629727E+03  0.00000000000E+00 0.  1.
         21    1    1    2  506  501  0.92646077945E+02  0.83441038691E+02 -0.23983778432E+03  0.27031068326E+03  0.00000000000E+00 0.  1.
<scales pt_clust_3="40.98074" pt_clust_4="33.05467" pt_clust_5="40.98074" pt_clust_6="103.02953"></scales>
<clustering>
<clus scale="   33.055">  1  4  2 -1</clus>
<clus scale="   40.981">  3  5 -1 -1</clus>
<clus scale="  103.030">  1  6  2 -1</clus>
<clus scale="   33.055">  1  3  2 -1</clus>
</clustering>
</event>
<event>
 6    0  0.7442036E+002  0.1086416E+03  0.7546771E-02  0.1263106E+00
         21   -1    0    0  505  501  0.00000000000E+00  0.00000000000E+00  0.26404577415E+03  0.26404577415E+03  0.00000000000E+00 0. -1.
         21   -1    0    0  504  502 -0.00000000000E+00 -0.00000000000E+00 -0.13957166318E+03  0.13957166318E+03  0.00000000000E+00 0. -1.
         21    1    1    2  503  502  0.24853804318E+02  0.49266979063E+02 -0.66498525542E+02  0.86411808883E+02  0.00000000000E+00 0.  1.
         21    1    1    2  504  506 -0.92748255027E+02 -0.83173196100E+02  0.14225083182E+03  0.18909076792E+03  0.00000000000E+00 0. -1.
         21    1    1    2  505  503  0.34303472057E+02  0.31177654498E+02 -0.20836207870E+02  0.50822454620E+02  0.00000000000E+00 0. -1.
         21    1    1    2  506  501  0.33590978652E+02  0.27285625391E+01  0.69558012563E+02  0.77292405915E+02  0.00000000000E+00 0. -1.
<scales pt_clust_3="32.20921" pt_clust_4="102.80089" pt_clust_5="32.20921" pt_clust_6="33.70162"></scales>
<clustering>
<clus scale="   32.209">  3  5 -1 -1</clus>
<clus scale="   33.702">  1  6  2 -1</clus>
<clus scale="  102.801">  1  4  2 -1</clus>
<clus scale="   33.702">  1  3  2 -1</clus>
</clustering>
</event>
<event>
 6    0  0.7442036E+002  0.1096175E+03  0.7546771E-02  0.1261280E+00
         21   -1    0    0  503  501  0.00000000000E+00  0.00000000000E+00  0.33276252152E+03  0.33276252152E+03  0.00000000000E+00 0. -1.
         21   -1    0    0  506  502 -0.00000000000E+00 -0.00000000000E+00 -0.83868154286E+03  0.83868154286E+03  0.00000000000E+00 0. -1.
         21    1    1    2  503  505 -0.16236868061E+02  0.45554462872E+02  0.15348174527E+03  0.16092076033E+03  0.00000000000E+00 0. -1.
         21    1    1    2  504  501  0.72916693199E+02  0.50423125550E+02  0.15460032703E+03  0.17821502982E+03  0.00000000000E+00 0. -1.
         21    1    1    2  505  502 -0.30010607494E+02  0.78309989959E+01 -0.38515254680E+02  0.49450843780E+02  0.00000000000E+00 0.  1.
         21    1    1    2  506  504 -0.26669217644E+02 -0.10380858742E+03 -0.77548583896E+03  0.78285743045E+03  0.00000000000E+00 0. -1.
<scales pt_clust_3="48.44344" pt_clust_4="14000.00000" pt_clust_5="31.01550" pt_clust_6="109.61746"></scales>
<clustering>
<clus scale="   31.015">  2  5  1 -1</clus>
<clus scale="   48.443">  1  3  2 -1</clus>
<clus scale="  109.617">  2  6  1 -1</clus>
<clus scale="   48.443">  1  3  2 -1</clus>
</clustering>
</event>
<event>
 6    0  0.7442036E+002  0.7855148E+02  0.7546771E-02  0.1333213E+00
         21   -1    0    0  504  501  0.00000000000E+00  0.00000000000E+00  0.20199658417E+03  0.20199658417E+03  0.00000000000E+00 0.  1.
         21   -1    0    0  506  502 -0.00000000000E+00 -0.00000000000E+00 -0.12240455868E+04  0.12240455868E+04  0.00000000000E+00 0. -1.
         21    1    1    2  503  505  0.12188653009E+03  0.12397319807E+02 -0.12387406044E+02  0.12314003242E+03  0.00000000000E+00 0.  1.
         21    1    1    2  504  502 -0.34593622667E+02 -0.23826512691E+01 -0.85533204766E+03  0.85603464154E+03  0.00000000000E+00 0. -1.
         21    1    1    2  505  501 -0.45896744247E+02  0.16047113313E+02  0.14015434613E+03  0.14834844696E+03  0.00000000000E+00 0.  1.
         21    1    1    2  506  503 -0.41396163181E+02 -0.26061781851E+02 -0.29448389503E+03  0.29851905003E+03  0.00000000000E+00 0. -1.
<scales pt_clust_3="78.55148" pt_clust_4="34.67558" pt_clust_5="48.97589" pt_clust_6="14000.00000"></scales>
<clustering>
<clus scale="   34.676">  2  4  1 -1</clus>
<clus scale="   48.976">  1  5  2 -1</clus>
<clus scale="   78.551">  1  3  2 -1</clus>
<clus scale="   48.976">  1  3  2 -1</clus>
</clustering>
</event>
<event>
 6    0  0.7442036E+002  0.1009993E+03  0.7546771E-02  0.1278208E+00
         21   -1    0    0  504  501  0.00000000000E+00  0.00000000000E+00  0.19197389064E+03  0.19197389064E+03  0.00000000000E+00 0.  1.
         21   -1    0    0  506  502 -0.00000000000E+00 -0.00000000000E+00 -0.57243789862E+03  0.57243789862E+03  0.00000000000E+00 0.  1.
         21    1    1    2  503  502  0.11696126372E+03  0.82454804093E+02 -0.41642082867E+03  0.44032378823E+03  0.00000000000E+00 0.  1.
         21    1    1    2  504  503 -0.11887865259E+02  0.58283339074E+02 -0.28518410160E+02  0.65966420792E+02  0.00000000000E+00 0. -1.
         21    1    1    2  505  501 -0.68755585277E+02 -0.10328763727E+03  0.12641894733E+03  0.17713671772E+03  0.00000000000E+00 0.  1.
         21    1    1    2  506  505 -0.36317813181E+02 -0.37450505893E+02 -0.61943716486E+02  0.80984862524E+02  0.00000000000E+00 0. -1.
<scales pt_clust_3="100.99931" pt_clust_4="56.85269" pt_clust_5="14000.00000" pt_clust_6="52.16823"></scales>
<clustering>
<clus scale="   52.168">  2  6  1 -1</clus>
<clus scale="   56.853">  1  4  2 -1</clus>
<clus scale="  100.999">  2  3  1 -1</clus>
<clus scale="   56.853">  1  3  2 -1</clus>
</clustering>
</event>
<event>
 6    0  0.7442036E+002  0.9204199E+02  0.7546771E-02  0.1297981E+00
         21   -1    0    0  506  501  0.00000000000E+00  0.00000000000E+00  0.44171553979E+03  0.44171553979E+03  0.00000000000E+00 0. -1.
         21   -1    0    0  504  502 -0.00000000000E+00 -0.00000000000E+00 -0.13911364382E+03  0.13911364382E+03  0.00000000000E+00 0. -1.
         21    1    1    2  503  501 -0.99435523946E+02  0.29400963016E+02  0.32667791757E+03  0.34273940811E+03  0.00000000000E+00 0. -1.
         21    1    1    2  504  505  0.26795184591E+02 -0.14669305746E+02 -0.85003781560E+02  0.90326149745E+02  0.00000000000E+00 0. -1.
         21    1    1    2  505  503  0.18988901050E+00 -0.46001010262E+02 -0.31558973699E+01  0.46109529288E+02  0.00000000000E+00 0. -1.
         21    1    1    2  506  502  0.72450450345E+02  0.31269352991E+02  0.64083657330E+02  0.10165409647E+03  0.00000000000E+00 0. -1.
<scales pt_clust_3="92.04199" pt_clust_4="30.54784" pt_clust_5="54.59928" pt_clust_6="14000.00000"></scales>
<clustering>
<clus scale="   30.548">  2  4  1 -1</clus>
<clus scale="   54.599">  2  5  1 -1</clus>
<clus scale="   92.042">  1  3  2 -1</clus>
<clus scale="   92.042">  1  3  2 -1</clus>
</clustering>
</event>
<event>
 6    0  0.7442036E+002  0.9921277E+02  0.7546771E-02  0.1281960E+00
         21   -1    0    0  506  501  0.00000000000E+00  0.00000000000E+00  0.38700143816E+02  0.38700143816E+02  0.00000000000E+00 0.  1.
         21   -1    0    0  505  502 -0.00000000000E+00 -0.00000000000E+00 -0.24918860900E+04  0.24918860900E+04  0.00000000000E+00 0. -1.
         21    1    1    2  503  502  0.18799811597E+02 -0.52035505784E+02 -0.29652204836E+03  0.30163960606E+03  0.00000000000E+00 0.  1.
         21    1    1    2  504  503  0.73424995040E+02  0.22695446443E+02 -0.18758034517E+04  0.18773771338E+04  0.00000000000E+00 0. -1.
         21    1    1    2  505  501  0.58193860896E+02  0.74098748969E+01 -0.92338616987E+02  0.10939767767E+03  0.00000000000E+00 0.  1.
         21    1    1    2  506  504 -0.15041866753E+03  0.21930184444E+02 -0.18852182912E+03  0.24217181625E+03  0.00000000000E+00 0.  1.
<scales pt_clust_3="55.32745" pt_clust_4="99.21277" pt_clust_5="59.27129" pt_clust_6="14000.00000"></scales>
<clustering>
<clus scale="   55.327">  2  3  1 -1</clus>
<clus scale="   59.271">  1  5  2 -1</clus>
<clus scale="   99.213">  2  4  1 -1</clus>
<clus scale="   59.271">  1  3  2 -1</clus>
</clustering>
</event>
<event>
 6    0  0.7442036E+002  0.1294862E+03  0.7546771E-02  0.1228220E+00
         21   -1    0    0  505  501  0.00000000000E+00  0.00000000000E+00  0.91331651070E+02  0.91331651070E+02  0.00000000000E+00 0.  1.
         21   -1    0    0  506  502 -0.00000000000E+00 -0.00000000000E+00 -0.81458080941E+03  0.81458080941E+03  0.00000000000E+00 0. -1.
         21    1    1    2  503  502  0.46792999999E+02  0.24130567204E+02 -0.29042620329E+03  0.29515970030E+03  0.00000000000E+00 0. -1.
         21    1    1    2  504  501  0.28412312828E+02  0.21229841852E+02  0.64638318797E+02  0.73729763069E+02  0.00000000000E+00 0.  1.
         21    1    1    2  505  503  0.54411770717E+02  0.18891677941E+02 -0.14622635794E+03  0.15716133126E+03  0.00000000000E+00 0. -1.
         21    1    1    2  506  504 -0.12961708354E+03 -0.64252086998E+02 -0.35123491591E+03  0.37986166586E+03  0.00000000000E+00 0. -1.
<scales pt_clust_3="39.60264" pt_clust_4="35.46781" pt_clust_5="39.60264" pt_clust_6="122.19306"></scales>
<clustering>
<clus scale="   35.468">  1  4  2 -1</clus>
<clus scale="   39.603">  3  5 -1 -1</clus>
<clus scale="  122.193">  1  6  2 -1</clus>
<clus scale="   35.468">  1  3  2 -1</clus>
</clustering>
</event>
<event>
 6    0  0.8685355E+002  0.1513179E+03  0.7546771E-02  0.1198863E+00
         21   -1    0    0  504  501  0.00000000000E+00  0.00000000000E+00  0.69503561160E+03  0.69503561160E+03  0.00000000000E+00 0. -1.
         21   -1    0    0  506  502 -0.00000000000E+00 -0.00000000000E+00 -0.50436949065E+03  0.50436949065E+03  0.00000000000E+00 0.  1.
         21    1    1    2  503  505  0.11713607213E+01  0.11411694426E+03  0.64295382475E+03  0.65300357565E+03  0.00000000000E+00 0. -1.
         21    1    1    2  504  503 -0.10243112034E+02  0.38403253266E+02  0.73845453741E+01  0.40426015335E+02  0.00000000000E+00 0. -1.
         21    1    1    2  505  502  0.39807440110E+02 -0.14752762839E+03 -0.44693155421E+03  0.47233129006E+03  0.00000000000E+00 0.  1.
         21    1    1    2  506  501 -0.30735688798E+02 -0.49925691350E+01 -0.12740694960E+02  0.33644221205E+02  0.00000000000E+00 0. -1.
<scales pt_clust_3="151.31788" pt_clust_4="39.86637" pt_clust_5="14000.00000" pt_clust_6="31.13853"></scales>
<clustering>
<clus scale="   31.139">  2  6  1 -1</clus>
<clus scale="   39.866">  1  4  2 -1</clus>
<clus scale="  151.318">  1  3  2 -1</clus>
<clus scale="   39.866">  1  3  2 -1</clus>
</clustering>
</event>
<event>
 6    0  0.7442036E+002  0.1157720E+03  0.7546771E-02  0.1250239E+00
         21   -1    0    0  504  501  0.00000000000E+00  0.00000000000E+00  0.27725527836E+03  0.27725527836E+03  0.00000000000E+00 0. -1.
         21   -1    0    0  506  502 -0.00000000000E+00 -0.00000000000E+00 -0.82227471000E+03  0.82227471000E+03  0.00000000000E+00 0.  1.
         21    1    1    2  503  505  0.82279073413E+02 -0.53868261513E+02  0.11292849278E+03  0.14974805509E+03  0.00000000000E+00 0. -1.
         21    1    1    2  504  503  0.30989459931E+02  0.14137797037E+02  0.13299203190E+03  0.13728475691E+03  0.00000000000E+00 0. -1.
         21    1    1    2  505  502 -0.53161670108E+02  0.30148746564E+02 -0.70240296045E+03  0.70505675582E+03  0.00000000000E+00 0.  1.
         21    1    1    2  506  501 -0.60106863236E+02  0.95817179114E+01 -0.88536995882E+02  0.10744042054E+03  0.00000000000E+00 0.  1.
<scales pt_clust_3="115.77202" pt_clust_4="34.06206" pt_clust_5="14000.00000" pt_clust_6="58.99181"></scales>
<clustering>
<clus scale="   34.062">  1  4  2 -1</clus>
<clus scale="   58.992">  2  6  1 -1</clus>
<clus scale="  115.772">  1  3  2 -1</clus>
<clus scale="   34.062">  1  3  2 -1</clus>
</clustering>
</event>
<event>
 6    0  0.7442036E+002  0.1021380E+03  0.7546771E-02  0.1275863E+00
         21   -1    0    0  505  501  0.00000000000E+00  0.00000000000E+00  0.25410358521E+03  0.25410358521E+03  0.00000000000E+00 0.  1.
         21   -1    0    0  503  502 -0.00000000000E+00 -0.00000000000E+00 -0.40604047580E+03  0.40604047580E+03  0.00000000000E+00 0.  1.
         21    1    1    2  503  501  0.52185313737E+01  0.10678217687E+03  0.18371396946E+03  0.21255702516E+03  0.00000000000E+00 0.  1.
         21    1    1    2  504  502 -0.63701984143E+02 -0.80572261358E+02 -0.32609629743E+03  0.34188978821E+03  0.00000000000E+00 0.  1.
         21    1    1    2  505  506  0.30073472745E+01 -0.45214553207E+02  0.40616488451E+01  0.45496120172E+02  0.00000000000E+00 0.  1.
         21    1    1    2  506  504  0.55476105495E+02  0.19004637692E+02 -0.13616211461E+02  0.60201127475E+02  0.00000000000E+00 0. -1.
<scales pt_clust_3="102.13797" pt_clust_4="14000.00000" pt_clust_5="45.31446" pt_clust_6="57.61332"></scales>
<clustering>
<clus scale="   45.314">  1  5  2 -1</clus>
<clus scale="   57.613">  1  6  2 -1</clus>
<clus scale="  102.138">  1  3  2 -1</clus>
<clus scale="   45.314">  1  3  2 -1</clus>
</clustering>
</event>
<event>
 6    0  0.7442036E+002  0.2822448E+03  0.7546771E-02  0.1094469E+00
         21   -1    0    0  506  501  0.00000000000E+00  0.00000000000E+00  0.13988668645E+04  0.13988668645E+04  0.00000000000E+00 0.  1.
         21   -1    0    0  505  502 -0.00000000000E+00 -0.00000000000E+00 -0.12556065020E+03  0.12556065020E+03  0.00000000000E+00 0.  1.
         21    1    1    2  503  504 -0.99119222129E+02 -0.22975554800E+01  0.10782605544E+03  0.14647988663E+03  0.00000000000E+00 0. -1.
         21    1    1    2  504  501 -0.14202277089E+03 -0.34147627896E+02  0.25762414361E+01  0.14609300107E+03  0.00000000000E+00 0.  1.
         21    1    1    2  505  503  0.24645971811E+02 -0.11231064548E+03  0.17325306350E+03  0.20793683903E+03  0.00000000000E+00 0.  1.
         21    1    1    2  506  502  0.21649602121E+03  0.14875582885E+03  0.98965085396E+03  0.10239177880E+04  0.00000000000E+00 0.  1.
<scales pt_clust_3="97.24585" pt_clust_4="97.24585" pt_clust_5="114.98306" pt_clust_6="256.37788"></scales>
<clustering>
<clus scale="   97.246">  3  4 -1 -1</clus>
<clus scale="  114.983">  2  5  1 -1</clus>
<clus scale="  256.378">  1  6  2 -1</clus>
<clus scale="  256.378">  1  3  2 -1</clus>
</clustering>
</event>
<event>
 6    0  0.7442036E+002  0.9199645E+02  0.7546771E-02  0.1298088E+00
         21   -1    0    0  504  501  0.00000000000E+00  0.00000000000E+00  0.14315504875E+04  0.14315504875E+04  0.00000000000E+00 0.  1.
         21   -1    0    0  503  502 -0.00000000000E+00 -0.00000000000E+00 -0.46566424482E+03  0.46566424482E+03  0.00000000000E+00 0. -1.
         21    1    1    2  503  505 -0.98490619096E+00 -0.13063974186E+03 -0.23882142004E+03  0.27221936534E+03  0.00000000000E+00 0. -1.
         21    1    1    2  504  506 -0.42706219866E+02  0.12759362856E+03  0.85253903290E+03  0.86309139602E+03  0.00000000000E+00 0.  1.
         21    1    1    2  505  501  0.35327954183E+02 -0.63928742951E+02  0.54899194274E+03  0.55382948795E+03  0.00000000000E+00 0.  1.
         21    1    1    2  506  502  0.83631718736E+01  0.66974856246E+02 -0.19682331287E+03  0.20807448306E+03  0.00000000000E+00 0. -1.
<scales pt_clust_3="66.00947" pt_clust_4="91.99645" pt_clust_5="14000.00000" pt_clust_6="67.49499"></scales>
<clustering>
<clus scale="   67.495">  2  6  1 -1</clus>
<clus scale="   66.009">  2  3  1 -1</clus>
<clus scale="   91.996">  2  4  1 -1</clus>
<clus scale="   91.996">  1  3  2 -1</clus>
</clustering>
</event>
<event>
 6    0  0.7442036E+002  0.7993897E+02  0.7546771E-02  0.1329225E+00
         21   -1    0    0  505  501  0.00000000000E+00  0.00000000000E+00  0.12343581033E+03  0.12343581033E+03  0.00000000000E+00 0.  1.
         21   -1    0    0  503  502 -0.00000000000E+00 -0.00000000000E+00 -0.16238863105E+03  0.16238863105E+03  0.00000000000E+00 0. -1.
         21    1    1    2  503  506 -0.71921320425E+01  0.35680754827E+02 -0.42602014973E+02  0.56033692615E+02  0.00000000000E+00 0. -1.
         21    1    1    2  504  501 -0.49127196149E+02 -0.52817472239E+02 -0.13808705213E+01  0.72146195871E+02  0.00000000000E+00 0. -1.
         21    1    1    2  505  502  0.15930346973E+02 -0.64521435798E+02  0.15196159102E+01  0.66476318073E+02  0.00000000000E+00 0. -1.
         21    1    1    2  506  504  0.40388981219E+02  0.81658153211E+02  0.35104488664E+01  0.91168234824E+02  0.00000000000E+00 0.  1.
<scales pt_clust_3="36.39839" pt_clust_4="79.93897" pt_clust_5="56.01545" pt_clust_6="14000.00000"></scales>
<clustering>
<clus scale="   36.398">  2  3  1 -1</clus>
<clus scale="   56.015">  2  5  1 -1</clus>
<clus scale="   79.939">  1  4  2 -1</clus>
<clus scale="   79.939">  1  3  2 -1</clus>
</clustering>
</event>
<event>
 6    0  0.7442036E+002  0.1219317E+03  0.7546771E-02  0.1239944E+00
         21   -1    0    0  505  501  0.00000000000E+00  0.00000000000E+00  0.23619372669E+03  0.23619372669E+03  0.00000000000E+00 0. -1.
         21   -1    0    0  506  502 -0.00000000000E+00 -0.00000000000E+00 -0.59457321583E+03  0.59457321583E+03  0.00000000000E+00 0.  1.
         21    1    1    2  503  502  0.28550402789E+00  0.31174577725E+02 -0.36083820107E+02  0.47686244163E+02  0.00000000000E+00 0. -1.
         21    1    1    2  504  501 -0.10167390419E+03 -0.39251770504E+02 -0.18029448789E+02  0.11046875262E+03  0.00000000000E+00 0.  1.
         21    1    1    2  505  503 -0.16415827273E+01 -0.38635667145E+02  0.17548933570E+03  0.17969951729E+03  0.00000000000E+00 0. -1.
         21    1    1    2  506  504  0.10302998289E+03  0.46712859924E+02 -0.47975555594E+03  0.49291242844E+03  0.00000000000E+00 0.  1.
<scales pt_clust_3="31.17589" pt_clust_4="14000.00000" pt_clust_5="38.55185" pt_clust_6="121.93167"></scales>
<clustering>
<clus scale="   31.176">  2  3  1 -1</clus>
<clus scale="   38.552">  1  5  2 -1</clus>
<clus scale="  121.932">  2  6  1 -1</clus>
<clus scale="   38.552">  1  3  2 -1</clus>
</clustering>
</event>
<event>
 6    0  0.7442036E+002  0.1425711E+03  0.7546771E-02  0.1209911E+00
         21   -1    0    0  503  501  0.00000000000E+00  0.00000000000E+00  0.60867871920E+02  0.60867871920E+02  0.00000000000E+00 0.  1.
         21   -1    0    0  504  502 -0.00000000000E+00 -0.00000000000E+00 -0.28466965660E+04  0.28466965660E+04  0.00000000000E+00 0. -1.
         21    1    1    2  503  505  0.66918416365E+02 -0.11417450731E+03 -0.61935733071E+02  0.14611614421E+03  0.00000000000E+00 0.  1.
         21    1    1    2  504  506  0.27224734578E+02 -0.17713106703E+02 -0.18300440457E+03  0.18586433874E+03  0.00000000000E+00 0.  1.
         21    1    1    2  505  502 -0.81574790515E+00 -0.45870307345E+02 -0.19679948879E+04  0.19685295602E+04  0.00000000000E+00 0. -1.
         21    1    1    2  506  501 -0.93327403038E+02  0.17775792136E+03 -0.57289366845E+03  0.60705439469E+03  0.00000000000E+00 0.  1.
<scales pt_clust_3="142.57113" pt_clust_4="32.47984" pt_clust_5="62.04787" pt_clust_6="14000.00000"></scales>
<clustering>
<clus scale="   32.480">  2  4  1 -1</clus>
<clus scale="   62.048">  2  5  1 -1</clus>
<clus scale="  142.571">  1  3  2 -1</clus>
<clus scale="  142.571">  1  3  2 -1</clus>
</clustering>
</event>
<event>
 6    0  0.7442036E+002  0.1543080E+03  0.7546771E-02  0.1195277E+00
         21   -1    0    0  504  501  0.00000000000E+00  0.00000000000E+00  0.47069521926E+03  0.47069521926E+03  0.00000000000E+00 0.  1.
         21   -1    0    0  506  502 -0.00000000000E+00 -0.00000000000E+00 -0.10405576994E+03  0.10405576994E+03  0.00000000000E+00 0.  1.
         21    1    1    2  503  502  0.29104770337E+02  0.37491547920E+02  0.45464085793E+01  0.47679908271E+02  0.00000000000E+00 0.  1.
         21    1    1    2  504  503 -0.14680987980E+02  0.84077920274E+02  0.45208928025E+02  0.96584032111E+02  0.00000000000E+00 0.  1.
         21    1    1    2  505  501 -0.50274594734E+02  0.59855894254E+02  0.19209119551E+03  0.20738681334E+03  0.00000000000E+00 0.  1.
         21    1    1    2  506  505  0.35850812377E+02 -0.18142536245E+03  0.12479291721E+03  0.22310023548E+03  0.00000000000E+00 0.  1.
<scales pt_clust_3="43.15706" pt_clust_4="43.15706" pt_clust_5="78.16817" pt_clust_6="143.04420"></scales>
<clustering>
<clus scale="   43.157">  3  4 -1 -1</clus>
<clus scale="   78.168">  1  5  2 -1</clus>
<clus scale="  143.044">  1  6  2 -1</clus>
<clus scale="   78.168">  1  3  2 -1</clus>
</clustering>
</event>
<event>
 6    0  0.7442036E+002  0.1227267E+03  0.7546771E-02  0.1238665E+00
         21   -1    0    0  505  501  0.00000000000E+00  0.00000000000E+00  0.35522704640E+02  0.35522704640E+02  0.00000000000E+00 0.  1.
         21   -1    0    0  506  502 -0.00000000000E+00 -0.00000000000E+00 -0.72737002786E+03  0.72737002786E+03  0.00000000000E+00 0.  1.
         21    1    1    2  503  504 -0.53258146799E+02 -0.27758921569E+02 -0.15900953828E+03  0.16997358969E+03  0.00000000000E+00 0.  1.
         21    1    1    2  504  502  0.29037602923E+00 -0.52177434452E+02 -0.12348562295E+03  0.13405695827E+03  0.00000000000E+00 0.  1.
         21    1    1    2  505  503 -0.33386684873E+02 -0.10205761208E+01 -0.69726898869E+00  0.33409556813E+02  0.00000000000E+00 0.  1.
         21    1    1    2  506  501  0.86354455643E+02  0.80956932142E+02 -0.40865489301E+03  0.42545262774E+03  0.00000000000E+00 0.  1.
<scales pt_clust_3="51.55302" pt_clust_4="51.55302" pt_clust_5="33.40228" pt_clust_6="107.82479"></scales>
<clustering>
<clus scale="   33.402">  1  5  2 -1</clus>
<clus scale="   51.553">  3  4 -1 -1</clus>
<clus scale="  107.825">  2  6  1 -1</clus>
<clus scale="   33.402">  1  3  2 -1</clus>
</clustering>
</event>
<event>
 6    0  0.7442036E+002  0.1562434E+03  0.7546771E-02  0.1193004E+00
         21   -1    0    0  503  501  0.00000000000E+00  0.00000000000E+00  0.23622985360E+03  0.23622985360E+03  0.00000000000E+00 0. -1.
         21   -1    0    0  504  502 -0.00000000000E+00 -0.00000000000E+00 -0.20271430013E+03  0.20271430013E+03  0.00000000000E+00 0. -1.
         21    1    1    2  503  502 -0.13712450179E+02 -0.29137796000E+02  0.28273616439E+02  0.42853702667E+02  0.00000000000E+00 0. -1.
         21    1    1    2  504  505  0.86081705164E+02  0.54947263754E+02 -0.69935032245E+02  0.12377467630E+03  0.00000000000E+00 0. -1.
         21    1    1    2  505  506  0.51803957918E+02 -0.18832780414E+02 -0.64797801646E+02  0.85071021930E+02  0.00000000000E+00 0. -1.
         21    1    1    2  506  501 -0.12417321290E+03 -0.69766873396E+01  0.13997477092E+03  0.18724475283E+03  0.00000000000E+00 0. -1.
<scales pt_clust_3="32.20314" pt_clust_4="53.60792" pt_clust_5="53.60792" pt_clust_6="138.79881"></scales>
<clustering>
<clus scale="   32.203">  1  3  2 -1</clus>
<clus scale="   53.608">  4  5 -1 -1</clus>
<clus scale="  138.799">  1  6  2 -1</clus>
<clus scale="   32.203">  1  3  2 -1</clus>
</clustering>
</event>
<event>
 6    0  0.7442036E+002  0.1484815E+03  0.7546771E-02  0.1202351E+00
         21   -1    0    0  505  501  0.00000000000E+00  0.00000000000E+00  0.53928113074E+03  0.53928113074E+03  0.00000000000E+00 0.  1.
         21   -1    0    0  506  502 -0.00000000000E+00 -0.00000000000E+00 -0.30795013046E+03  0.30795013046E+03  0.00000000000E+00 0.  1.
         21    1    1    2  503  504  0.50093646712E+02 -0.13402219658E+02 -0.53816340985E+02  0.74734138716E+02  0.00000000000E+00 0.  1.
         21    1    1    2  504  501 -0.94813174956E+02 -0.22057717012E+02  0.45242338757E+03  0.46277748719E+03  0.00000000000E+00 0.  1.
         21    1    1    2  505  502 -0.44700077236E+02  0.26902296396E+02  0.51445877270E+02  0.73270108123E+02  0.00000000000E+00 0. -1.
         21    1    1    2  506  503  0.89419605480E+02  0.85576402743E+01 -0.21872192357E+03  0.23644952717E+03  0.00000000000E+00 0.  1.
<scales pt_clust_3="42.10304" pt_clust_4="137.75339" pt_clust_5="52.17116" pt_clust_6="42.10304"></scales>
<clustering>
<clus scale="   42.103">  3  6 -1 -1</clus>
<clus scale="   52.171">  1  5  2 -1</clus>
<clus scale="  137.753">  1  4  2 -1</clus>
<clus scale="   52.171">  1  3  2 -1</clus>
</clustering>
</event>
<event>
 6    0  0.7442036E+002  0.1061874E+03  0.7546771E-02  0.1267798E+00
         21   -1    0    0  506  501  0.00000000000E+00  0.00000000000E+00  0.36333250720E+03  0.36333250720E+03  0.00000000000E+00 0. -1.
         21   -1    0    0  503  502 -0.00000000000E+00 -0.00000000000E+00 -0.96289076363E+03  0.96289076363E+03  0.00000000000E+00 0. -1.
         21    1    1    2  503  501  0.84997761416E+02  0.67155230761E+02 -0.88955720395E+03  0.89612859767E+03  0.00000000000E+00 0. -1.
         21    1    1    2  504  502 -0.33444624564E+02  0.27279509776E+02 -0.44301501656E+02  0.61849313778E+02  0.00000000000E+00 0.  1.
         21    1    1    2  505  504 -0.82655376192E+02 -0.52941984812E+02  0.17413192621E+03  0.19989170242E+03  0.00000000000E+00 0. -1.
         21    1    1    2  506  505  0.31102239340E+02 -0.41492755726E+02  0.16016852295E+03  0.16835365697E+03  0.00000000000E+00 0. -1.
<scales pt_clust_3="14000.00000" pt_clust_4="43.15918" pt_clust_5="106.18744" pt_clust_6="51.66715"></scales>
<clustering>
<clus scale="   43.159">  2  4  1 -1</clus>
<clus scale="   51.667">  1  6  2 -1</clus>
<clus scale="  106.187">  1  5  2 -1</clus>
<clus scale="   51.667">  1  3  2 -1</clus>
</clustering>
</event>
<event>
 6    0  0.7442036E+002  0.1029158E+03  0.7546771E-02  0.1274281E+00
         21   -1    0    0  505  501  0.00000000000E+00  0.00000000000E+00  0.47183423528E+03  0.47183423528E+03  0.00000000000E+00 0. -1.
         21   -1    0    0  504  502 -0.00000000000E+00 -0.00000000000E+00 -0.11788346137E+03  0.11788346137E+03  0.00000000000E+00 0.  1.
         21    1    1    2  503  502 -0.24202877413E+02 -0.53734915046E+02 -0.64894853629E+02  0.87661635837E+02  0.00000000000E+00 0.  1.
         21    1    1    2  504  506  0.33697010137E+02  0.16075817998E+00  0.33168992812E+01  0.33860244480E+02  0.00000000000E+00 0.  1.
         21    1    1    2  505  503 -0.76103494664E+02  0.95702342770E+02  0.32983653763E+03  0.35177097928E+03  0.00000000000E+00 0. -1.
         21    1    1    2  506  501  0.66609361941E+02 -0.42128185904E+02  0.85692190636E+02  0.11642483705E+03  0.00000000000E+00 0.  1.
<scales pt_clust_3="53.62209" pt_clust_4="33.69739" pt_clust_5="102.91576" pt_clust_6="14000.00000"></scales>
<clustering>
<clus scale="   33.697">  2  4  1 -1</clus>
<clus scale="   53.622">  2  3  1 -1</clus>
<clus scale="  102.916">  1  5  2 -1</clus>
<clus scale="  102.916">  1  3  2 -1</clus>
</clustering>
</event>
<event>
 6    0  0.7442036E+002  0.9425901E+02  0.7546771E-02  0.1292854E+00
         21   -1    0    0  502  501  0.00000000000E+00  0.00000000000E+00  0.14053407050E+04  0.14053407050E+04  0.00000000000E+00 0.  1.
         21   -1    0    0  506  502 -0.00000000000E+00 -0.00000000000E+00 -0.10649405410E+03  0.10649405410E+03  0.00000000000E+00 0.  1.
         21    1    1    2  503  501  0.16073451315E+02  0.35322598148E+02  0.81279829988E+03  0.81372422728E+03  0.00000000000E+00 0.  1.
         21    1    1    2  504  505 -0.11330821141E+03 -0.76059923189E+02  0.13457243998E+03  0.19166012703E+03  0.00000000000E+00 0.  1.
         21    1    1    2  505  503  0.50317134499E+02  0.37057025833E+02  0.41928169932E+03  0.42391293985E+03  0.00000000000E+00 0.  1.
         21    1    1    2  506  504  0.46917625600E+02  0.36802992076E+01 -0.67805788284E+02  0.82537464941E+02  0.00000000000E+00 0.  1.
<scales pt_clust_3="38.80775" pt_clust_4="14000.00000" pt_clust_5="94.25901" pt_clust_6="47.29735"></scales>
<clustering>
<clus scale="   38.808">  1  3  2 -1</clus>
<clus scale="   47.297">  2  6  1 -1</clus>
<clus scale="   94.259">  1  5  2 -1</clus>
<clus scale="   38.808">  1  3  2 -1</clus>
</clustering>
</event>
<event>
 6    0  0.7442036E+002  0.1498526E+03  0.7546771E-02  0.1200654E+00
         21   -1    0    0  503  501  0.00000000000E+00  0.00000000000E+00  0.15209724087E+03  0.15209724087E+03  0.00000000000E+00 0. -1.
         21   -1    0    0  504  502 -0.00000000000E+00 -0.00000000000E+00 -0.59242942222E+03  0.59242942222E+03  0.00000000000E+00 0. -1.
         21    1    1    2  503  506 -0.20841030232E+02 -0.73974771857E+02  0.22750036388E+02  0.80150979832E+02  0.00000000000E+00 0. -1.
         21    1    1    2  504  505 -0.91536958819E+02 -0.50488808949E+02 -0.26919496964E+03  0.28878030809E+03  0.00000000000E+00 0. -1.
         21    1    1    2  505  501  0.18193413260E+03  0.84649229374E+02 -0.43706242776E+02  0.20536736912E+03  0.00000000000E+00 0. -1.
         21    1    1    2  506  502 -0.69556143553E+02  0.39814351432E+02 -0.15018100532E+03  0.17022800606E+03  0.00000000000E+00 0.  1.
<scales pt_clust_3="76.85451" pt_clust_4="14000.00000" pt_clust_5="149.85260" pt_clust_6="78.63790"></scales>
<clustering>
<clus scale="   76.855">  1  3  2 -1</clus>
<clus scale="   78.638">  2  6  1 -1</clus>
<clus scale="  149.853">  1  5  2 -1</clus>
<clus scale="   76.855">  1  3  2 -1</clus>
</clustering>
</event>
<event>
 6    0  0.7442036E+002  0.1093933E+03  0.7546771E-02  0.1261698E+00
         21   -1    0    0  503  501  0.00000000000E+00  0.00000000000E+00  0.88859893807E+03  0.88859893807E+03  0.00000000000E+00 0. -1.
         21   -1    0    0  504  502 -0.00000000000E+00 -0.00000000000E+00 -0.24727446589E+03  0.24727446589E+03  0.00000000000E+00 0. -1.
         21    1    1    2  503  505  0.12019728659E+03  0.66846189988E+02  0.67695220475E+03  0.69078222932E+03  0.00000000000E+00 0. -1.
         21    1    1    2  504  506 -0.34373634230E+02  0.10791101094E+02 -0.15487720171E+03  0.15901239638E+03  0.00000000000E+00 0. -1.
         21    1    1    2  505  502 -0.21630311603E+02 -0.33024756658E+02 -0.70531393800E+02  0.80828104294E+02  0.00000000000E+00 0. -1.
         21    1    1    2  506  501 -0.64193340757E+02 -0.44612534425E+02  0.18978086294E+03  0.20525067396E+03  0.00000000000E+00 0. -1.
<scales pt_clust_3="14000.00000" pt_clust_4="36.02769" pt_clust_5="55.84192" pt_clust_6="109.39330"></scales>
<clustering>
<clus scale="   36.028">  2  4  1 -1</clus>
<clus scale="   55.842">  2  5  1 -1</clus>
<clus scale="  109.393">  2  6  1 -1</clus>
<clus scale="  109.393">  1  3  2 -1</clus>
</clustering>
</event>
<event>
 6    0  0.7442036E+002  0.1831679E+03  0.7546771E-02  0.1164772E+00
         21   -1    0    0  503  501  0.00000000000E+00  0.00000000000E+00  0.67128752379E+03  0.67128752379E+03  0.00000000000E+00 0. -1.
         21   -1    0    0  504  502 -0.00000000000E+00 -0.00000000000E+00 -0.29495736631E+03  0.29495736631E+03  0.00000000000E+00 0. -1.
         21    1    1    2  503  505  0.33562036023E+02  0.62986038216E+02  0.36117304384E+03  0.36815705734E+03  0.00000000000E+00 0. -1.
         21    1    1    2  504  506 -0.26058284506E+02  0.68175279243E+02 -0.10161088818E+02  0.73689555686E+02  0.00000000000E+00 0. -1.
         21    1    1    2  505  502 -0.16485772467E+03 -0.11131417975E+03 -0.17772815672E+03  0.26675122059E+03  0.00000000000E+00 0. -1.
         21    1    1    2  506  501  0.15735397315E+03 -0.19847137709E+02  0.20304635918E+03  0.25764705649E+03  0.00000000000E+00 0. -1.
<scales pt_clust_3="71.36982" pt_clust_4="78.03877" pt_clust_5="14000.00000" pt_clust_6="183.16793"></scales>
<clustering>
<clus scale="   71.370">  1  3  2 -1</clus>
<clus scale="   78.039">  2  4  1 -1</clus>
<clus scale="  183.168">  1  6  2 -1</clus>
<clus scale="   71.370">  1  3  2 -1</clus>
</clustering>
</event>
<event>
 6    0  0.7442036E+002  0.7261118E+02  0.7546771E-02  0.1351432E+00
         21   -1    0    0  505  501  0.00000000000E+00  0.00000000000E+00  0.30892012873E+03  0.30892012873E+03  0.00000000000E+00 0.  1.
         21   -1    0    0  503  502 -0.00000000000E+00 -0.00000000000E+00 -0.45644278338E+03  0.45644278338E+03  0.00000000000E+00 0. -1.
         21    1    1    2  503  504 -0.10965460536E+02  0.33749326825E+02 -0.11799088873E+03  0.12321163991E+03  0.00000000000E+00 0.  1.
         21    1    1    2  504  501  0.36372608088E+02 -0.14315807150E+02  0.23012370660E+03  0.23341985625E+03  0.00000000000E+00 0.  1.
         21    1    1    2  505  506 -0.97946141010E+02  0.38149588014E+02  0.26130589184E+02  0.10831271992E+03  0.00000000000E+00 0.  1.
         21    1    1    2  506  502  0.72538993458E+02 -0.57583107689E+02 -0.28578606171E+03  0.30041869604E+03  0.00000000000E+00 0. -1.
<scales pt_clust_3="35.48603" pt_clust_4="38.97798" pt_clust_5="72.61118" pt_clust_6="14000.00000"></scales>
<clustering>
<clus scale="   35.486">  2  3  1 -1</clus>
<clus scale="   38.978">  1  4  2 -1</clus>
<clus scale="   72.611">  1  5  2 -1</clus>
<clus scale="   38.978">  1  3  2 -1</clus>
</clustering>
</event>
<event>
 6    0  0.7442036E+002  0.1833000E+03  0.7546771E-02  0.1164647E+00
         21   -1    0    0  506  501  0.00000000000E+00  0.00000000000E+00  0.93922720879E+03  0.93922720879E+03  0.00000000000E+00 0.  1.
         21   -1    0    0  503  502 -0.00000000000E+00 -0.00000000000E+00 -0.14174832108E+03  0.14174832108E+03  0.00000000000E+00 0.  1.
         21    1    1    2  503  505  0.60647681924E+02 -0.95968884905E+02  0.50833336963E+03  0.52085600973E+03  0.00000000000E+00 0.  1.
         21    1    1    2  504  502  0.21943975305E+02  0.34819343834E+02  0.22903794316E+02  0.47101046180E+02  0.00000000000E+00 0. -1.
         21    1    1    2  505  501 -0.13047599308E+02 -0.70470454988E+02  0.33958719021E+03  0.34706740646E+03  0.00000000000E+00 0.  1.
         21    1    1    2  506  504 -0.69544057921E+02  0.13161999606E+03 -0.73345466449E+02  0.16595106750E+03  0.00000000000E+00 0.  1.
<scales pt_clust_3="52.21662" pt_clust_4="41.15732" pt_clust_5="52.21662" pt_clust_6="171.01150"></scales>
<clustering>
<clus scale="   41.157">  2  4  1 -1</clus>
<clus scale="   52.217">  3  5 -1 -1</clus>
<clus scale="  171.012">  2  6  1 -1</clus>
<clus scale="  183.300">  1  3  2 -1</clus>
</clustering>
</event>
<event>
 6    0  0.7442036E+002  0.1472854E+03  0.7546771E-02  0.1203849E+00
         21   -1    0    0  503  501  0.00000000000E+00  0.00000000000E+00  0.66950180240E+03  0.66950180240E+03  0.00000000000E+00 0. -1.
         21   -1    0    0  506  502 -0.00000000000E+00 -0.00000000000E+00 -0.41113883645E+03  0.41113883645E+03  0.00000000000E+00 0. -1.
         21    1    1    2  503  505 -0.41663173132E+02 -0.10854098589E+03  0.23636877558E+03  0.26341443332E+03  0.00000000000E+00 0. -1.
         21    1    1    2  504  501  0.50411849523E+02  0.20295290200E+03  0.38451747975E+03  0.43770415492E+03  0.00000000000E+00 0. -1.
         21    1    1    2  505  502 -0.25376025217E+02 -0.27039603286E+02 -0.74003419495E+02  0.82774325117E+02  0.00000000000E+00 0. -1.
         21    1    1    2  506  504  0.16627348826E+02 -0.67372312823E+02 -0.28851986988E+03  0.29674772549E+03  0.00000000000E+00 0. -1.
<scales pt_clust_3="147.28544" pt_clust_4="14000.00000" pt_clust_5="37.08211" pt_clust_6="91.32942"></scales>
<clustering>
<clus scale="   37.082">  2  5  1 -1</clus>
<clus scale="   91.329">  2  6  1 -1</clus>
<clus scale="  147.285">  1  3  2 -1</clus>
<clus scale="  147.285">  1  3  2 -1</clus>
</clustering>
</event>
<event>
 6    0  0.7442036E+002  0.5778027E+02  0.7546771E-02  0.1407390E+00
         21   -1    0    0  506  501  0.00000000000E+00  0.00000000000E+00  0.68200803489E+03  0.68200803489E+03  0.00000000000E+00 0. -1.
         21   -1    0    0  505  502 -0.00000000000E+00 -0.00000000000E+00 -0.34126103713E+03  0.34126103713E+03  0.00000000000E+00 0.  1.
         21    1    1    2  503  501 -0.22669307895E+02  0.58487346124E+02  0.46543187476E+03  0.46963975259E+03  0.00000000000E+00 0. -1.
         21    1    1    2  504  502 -0.40495769377E+02  0.33675406837E+02 -0.45141648863E+02  0.69366482001E+02  0.00000000000E+00 0. -1.
         21    1    1    2  505  503  0.83317068312E+02 -0.37807456547E+02 -0.27005150086E+03  0.28512970866E+03  0.00000000000E+00 0.  1.
         21    1    1    2  506  504 -0.20151991040E+02 -0.54355296415E+02  0.19050827273E+03  0.19913312876E+03  0.00000000000E+00 0. -1.
<scales pt_clust_3="14000.00000" pt_clust_4="52.66821" pt_clust_5="44.00903" pt_clust_6="57.78027"></scales>
<clustering>
<clus scale="   52.668">  2  4  1 -1</clus>
<clus scale="   44.009">  2  5  1 -1</clus>
<clus scale="   57.780">  2  6  1 -1</clus>
<clus scale="   57.780">  1  3  2 -1</clus>
</clustering>
</event>
<event>
 6    0  0.7442036E+002  0.2177300E+03  0.7546771E-02  0.1135587E+00
         21   -1    0    0  502  501  0.00000000000E+00  0.00000000000E+00  0.26344362192E+02  0.26344362192E+02  0.00000000000E+00 0. -1.
         21   -1    0    0  503  502 -0.00000000000E+00 -0.00000000000E+00 -0.16443328241E+04  0.16443328241E+04  0.00000000000E+00 0. -1.
         21    1    1    2  503  504 -0.12115315727E+03 -0.14640969601E+03 -0.92382127373E+03  0.94316468996E+03  0.00000000000E+00 0. -1.
         21    1    1    2  504  505  0.18587809878E+02  0.91596545772E+02 -0.30702460385E+03  0.32093541599E+03  0.00000000000E+00 0. -1.
         21    1    1    2  505  506  0.35021846562E+02  0.21760049323E+02 -0.75865600799E+02  0.86345925600E+02  0.00000000000E+00 0. -1.
         21    1    1    2  506  501  0.67543500831E+02  0.33053100911E+02 -0.31127698357E+03  0.32023115477E+03  0.00000000000E+00 0. -1.
<scales pt_clust_3="190.03654" pt_clust_4="79.82723" pt_clust_5="32.28872" pt_clust_6="79.82723"></scales>
<clustering>
<clus scale="   32.289">  5  6 -1 -1</clus>
<clus scale="   79.827">  4  5 -1 -1</clus>
<clus scale="  190.037">  2  3  1 -1</clus>
<clus scale="  217.730">  1  3  2 -1</clus>
</clustering>
</event>
<event>
 6    0  0.7442036E+002  0.8158754E+02  0.7546771E-02  0.1324606E+00
         21   -1    0    0  505  501  0.00000000000E+00  0.00000000000E+00  0.14279363110E+04  0.14279363110E+04  0.00000000000E+00 0.  1.
         21   -1    0    0  506  502 -0.00000000000E+00 -0.00000000000E+00 -0.44827865583E+03  0.44827865583E+03  0.00000000000E+00 0. -1.
         21    1    1    2  503  501 -0.13360445729E+03  0.53865884078E+02  0.13189782645E+04  0.13268215203E+04  0.00000000000E+00 0.  1.
         21    1    1    2  504  502  0.23608808536E+01 -0.56431309473E+02 -0.21137886640E+03  0.21879463341E+03  0.00000000000E+00 0. -1.
         21    1    1    2  505  504  0.65892131304E+02 -0.55777192960E+01  0.85007049733E+02  0.10769903632E+03  0.00000000000E+00 0.  1.
         21    1    1    2  506  503  0.65351445129E+02  0.81431446906E+01 -0.21294879268E+03  0.22289977679E+03  0.00000000000E+00 0. -1.
<scales pt_clust_3="81.58754" pt_clust_4="56.48067" pt_clust_5="66.52972" pt_clust_6="14000.00000"></scales>
<clustering>
<clus scale="   56.481">  2  4  1 -1</clus>
<clus scale="   66.530">  1  5  2 -1</clus>
<clus scale="   81.588">  1  3  2 -1</clus>
<clus scale="   66.530">  1  3  2 -1</clus>
</clustering>
</event>
<event>
 6    0  0.7442036E+002  0.2311450E+03  0.7546771E-02  0.1125836E+00
         21   -1    0    0  505  501  0.00000000000E+00  0.00000000000E+00  0.17955790032E+03  0.17955790032E+03  0.00000000000E+00 0.  1.
         21   -1    0    0  506  502 -0.00000000000E+00 -0.00000000000E+00 -0.55557488326E+03  0.55557488326E+03  0.00000000000E+00 0.  1.
         21    1    1    2  503  501  0.99457902337E+02  0.21476490490E+03 -0.20916739116E+03  0.31585888659E+03  0.00000000000E+00 0.  1.
         21    1    1    2  504  502 -0.39859236043E+02 -0.21872644567E+03 -0.85564860333E+02  0.23822544377E+03  0.00000000000E+00 0.  1.
         21    1    1    2  505  504 -0.11746658808E+02 -0.28972555317E+02  0.37498646463E+02  0.48821526413E+02  0.00000000000E+00 0.  1.
         21    1    1    2  506  503 -0.47852007486E+02  0.32934096087E+02 -0.11878337791E+03  0.13222692681E+03  0.00000000000E+00 0.  1.
<scales pt_clust_3="14000.00000" pt_clust_4="231.14495" pt_clust_5="31.26328" pt_clust_6="57.77715"></scales>
<clustering>
<clus scale="   31.263">  1  5  2 -1</clus>
<clus scale="   57.777">  2  6  1 -1</clus>
<clus scale="  231.145">  1  4  2 -1</clus>
<clus scale="   31.263">  1  3  2 -1</clus>
</clustering>
</event>
<event>
 6    0  0.7442036E+002  0.2187000E+03  0.7546771E-02  0.1134856E+00
         21   -1    0    0  503  501  0.00000000000E+00  0.00000000000E+00  0.15671878677E+04  0.15671878677E+04  0.00000000000E+00 0.  1.
         21   -1    0    0  504  502 -0.00000000000E+00 -0.00000000000E+00 -0.66189739925E+03  0.66189739925E+03  0.00000000000E+00 0.  1.
         21    1    1    2  503  506 -0.57739982866E+02  0.24336832709E+02  0.10844716779E+04  0.10862803539E+04  0.00000000000E+00 0.  1.
         21    1    1    2  504  501 -0.10145637965E+03 -0.22813100274E+03 -0.52438797680E+03  0.58079247722E+03  0.00000000000E+00 0.  1.
         21    1    1    2  505  502  0.15084007513E+03  0.76362991029E+02 -0.24533902162E+02  0.17083895054E+03  0.00000000000E+00 0.  1.
         21    1    1    2  506  505  0.83562873833E+01  0.12743117900E+03  0.36974066950E+03  0.39117348531E+03  0.00000000000E+00 0.  1.
<scales pt_clust_3="62.65929" pt_clust_4="14000.00000" pt_clust_5="218.70002" pt_clust_6="151.30235"></scales>
<clustering>
<clus scale="   62.659">  1  3  2 -1</clus>
<clus scale="  151.302">  1  6  2 -1</clus>
<clus scale="  218.700">  1  5  2 -1</clus>
<clus scale="   62.659">  1  3  2 -1</clus>
</clustering>
</event>
<event>
 6    0  0.7442036E+002  0.1177095E+03  0.7546771E-02  0.1246924E+00
         21   -1    0    0  503  501  0.00000000000E+00  0.00000000000E+00  0.93983559584E+03  0.93983559584E+03  0.00000000000E+00 0.  1.
         21   -1    0    0  505  502 -0.00000000000E+00 -0.00000000000E+00 -0.28022661908E+03  0.28022661908E+03  0.00000000000E+00 0. -1.
         21    1    1    2  503  502 -0.55458298794E+02 -0.79795370186E+02  0.69092392049E+03  0.69772400554E+03  0.00000000000E+00 0.  1.
         21    1    1    2  504  506  0.56032681786E+02  0.33459374099E+02 -0.67486878120E+02  0.93881147530E+02  0.00000000000E+00 0.  1.
         21    1    1    2  505  504  0.46521863648E+02  0.36750853984E+02 -0.18906854050E+03  0.19814596153E+03  0.00000000000E+00 0. -1.
         21    1    1    2  506  501 -0.47096246640E+02  0.95851421040E+01  0.22524047490E+03  0.23031110031E+03  0.00000000000E+00 0.  1.
<scales pt_clust_3="14000.00000" pt_clust_4="117.70953" pt_clust_5="59.08944" pt_clust_6="48.06175"></scales>
<clustering>
<clus scale="   48.062">  1  6  2 -1</clus>
<clus scale="   59.089">  2  5  1 -1</clus>
<clus scale="  117.710">  2  4  1 -1</clus>
<clus scale="   48.062">  1  3  2 -1</clus>
</clustering>
</event>
<event>
 6    0  0.7442036E+002  0.1117883E+03  0.7546771E-02  0.1257294E+00
         21   -1    0    0  505  501  0.00000000000E+00  0.00000000000E+00  0.54300195725E+03  0.54300195725E+03  0.00000000000E+00 0. -1.
         21   -1    0    0  503  502 -0.00000000000E+00 -0.00000000000E+00 -0.19924107401E+04  0.19924107401E+04  0.00000000000E+00 0. -1.
         21    1    1    2  503  506 -0.16413604767E+02 -0.77132159236E+02 -0.16314084754E+04  0.16333133166E+04  0.00000000000E+00 0. -1.
         21    1    1    2  504  501  0.50718779009E+02  0.25291491081E+02  0.42682462207E+03  0.43057091410E+03  0.00000000000E+00 0. -1.
         21    1    1    2  505  502 -0.74398748291E+02  0.59705024762E+01 -0.34571000549E+03  0.35367531514E+03  0.00000000000E+00 0.  1.
         21    1    1    2  506  504  0.40093574049E+02  0.45870165678E+02  0.10088507596E+03  0.11785315155E+03  0.00000000000E+00 0. -1.
<scales pt_clust_3="14000.00000" pt_clust_4="56.67499" pt_clust_5="72.95404" pt_clust_6="111.78829"></scales>
<clustering>
<clus scale="   56.675">  1  4  2 -1</clus>
<clus scale="   72.954">  2  5  1 -1</clus>
<clus scale="  111.788">  1  6  2 -1</clus>
<clus scale="   56.675">  1  3  2 -1</clus>
</clustering>
</event>
<event>
 6    0  0.7442036E+002  0.1963991E+03  0.7546771E-02  0.1152813E+00
         21   -1    0    0  505  501  0.00000000000E+00  0.00000000000E+00  0.61073633495E+02  0.61073633495E+02  0.00000000000E+00 0. -1.
         21   -1    0    0  506  502 -0.00000000000E+00 -0.00000000000E+00 -0.89784298749E+03  0.89784298749E+03  0.00000000000E+00 0. -1.
         21    1    1    2  503  501  0.17297965114E+03  0.48315503370E+02 -0.17291992164E+03  0.24931435353E+03  0.00000000000E+00 0. -1.
         21    1    1    2  504  503 -0.69179709014E+02 -0.61891805562E+02 -0.22873052018E+03  0.24684829065E+03  0.00000000000E+00 0. -1.
         21    1    1    2  505  502 -0.56249597727E+01  0.30933582662E+02 -0.23552014742E+02  0.39283891192E+02  0.00000000000E+00 0.  1.
         21    1    1    2  506  504 -0.98174982358E+02 -0.17357280470E+02 -0.41156689743E+03  0.42347008561E+03  0.00000000000E+00 0. -1.
<scales pt_clust_3="183.07008" pt_clust_4="67.59843" pt_clust_5="31.44084" pt_clust_6="67.59843"></scales>
<clustering>
<clus scale="   31.441">  1  5  2 -1</clus>
<clus scale="   67.598">  4  6 -1 -1</clus>
<clus scale="  183.070">  1  3  2 -1</clus>
<clus scale="   31.441">  1  3  2 -1</clus>
</clustering>
</event>
<event>
 6    0  0.7442036E+002  0.1847407E+03  0.7546771E-02  0.1163292E+00
         21   -1    0    0  505  501  0.00000000000E+00  0.00000000000E+00  0.60293286309E+03  0.60293286309E+03  0.00000000000E+00 0. -1.
         21   -1    0    0  504  502 -0.00000000000E+00 -0.00000000000E+00 -0.18709871605E+04  0.18709871605E+04  0.00000000000E+00 0. -1.
         21    1    1    2  503  501 -0.16707572960E+03  0.32727825197E+02  0.40071913241E+03  0.43538630323E+03  0.00000000000E+00 0. -1.
         21    1    1    2  504  503 -0.11078582326E+03  0.53349326737E+02 -0.15560410598E+03  0.19832369272E+03  0.00000000000E+00 0. -1.
         21    1    1    2  505  506  0.30387667537E+03 -0.12739093932E+03 -0.32634157582E+01  0.32951499986E+03  0.00000000000E+00 0. -1.
         21    1    1    2  506  502 -0.26015122514E+02  0.41313787382E+02 -0.15099059081E+04  0.15106950277E+04  0.00000000000E+00 0. -1.
<scales pt_clust_3="184.74072" pt_clust_4="143.82034" pt_clust_5="14000.00000" pt_clust_6="48.82229"></scales>
<clustering>
<clus scale="   48.822">  2  6  1 -1</clus>
<clus scale="  143.820">  2  4  1 -1</clus>
<clus scale="  184.741">  1  3  2 -1</clus>
<clus scale="  184.741">  1  3  2 -1</clus>
</clustering>
</event>
<event>
 6    0  0.7442036E+002  0.7245929E+02  0.7546771E-02  0.1351924E+00
         21   -1    0    0  503  501  0.00000000000E+00  0.00000000000E+00  0.18442158522E+03  0.18442158522E+03  0.00000000000E+00 0. -1.
         21   -1    0    0  506  502 -0.00000000000E+00 -0.00000000000E+00 -0.24776335723E+03  0.24776335723E+03  0.00000000000E+00 0.  1.
         21    1    1    2  503  502  0.73829100244E+02  0.43025458902E+01 -0.19502344170E+03  0.20857466470E+03  0.00000000000E+00 0.  1.
         21    1    1    2  504  501  0.20498959038E+02 -0.30665805998E+02  0.13395370264E+02  0.39243278707E+02  0.00000000000E+00 0. -1.
         21    1    1    2  505  504 -0.40954458216E+02 -0.39201606552E+02  0.42896668561E+02  0.71092600020E+02  0.00000000000E+00 0. -1.
         21    1    1    2  506  505 -0.53373601065E+02  0.65564866660E+02  0.75389630863E+02  0.11327439902E+03  0.00000000000E+00 0. -1.
<scales pt_clust_3="72.45929" pt_clust_4="36.88630" pt_clust_5="60.43424" pt_clust_6="14000.00000"></scales>
<clustering>
<clus scale="   36.886">  1  4  2 -1</clus>
<clus scale="   60.434">  1  5  2 -1</clus>
<clus scale="   72.459">  2  3  1 -1</clus>
<clus scale="   36.886">  1  3  2 -1</clus>
</clustering>
</event>
<event>
 6    0  0.7442036E+002  0.8151650E+02  0.7546771E-02  0.1324802E+00
         21   -1    0    0  502  501  0.00000000000E+00  0.00000000000E+00  0.36944642551E+03  0.36944642551E+03  0.00000000000E+00 0. -1.
         21   -1    0    0  504  502 -0.00000000000E+00 -0.00000000000E+00 -0.12721793788E+03  0.12721793788E+03  0.00000000000E+00 0. -1.
         21    1    1    2  503  506  0.76253777605E+02 -0.64973891590E+02  0.83437800761E+02  0.13037680692E+03  0.00000000000E+00 0. -1.
         21    1    1    2  504  505 -0.31675955795E+02  0.28970695014E+01 -0.59028524480E+02  0.67053157193E+02  0.00000000000E+00 0. -1.
         21    1    1    2  505  503 -0.36576384008E+02 -0.19822873885E+02 -0.21023755153E+02  0.46613050500E+02  0.00000000000E+00 0. -1.
         21    1    1    2  506  501 -0.80014378014E+01  0.81899695974E+02  0.23884296650E+03  0.25262134877E+03  0.00000000000E+00 0. -1.
<scales pt_clust_3="81.51650" pt_clust_4="31.80816" pt_clust_5="56.32274" pt_clust_6="14000.00000"></scales>
<clustering>
<clus scale="   31.808">  2  4  1 -1</clus>
<clus scale="   56.323">  2  5  1 -1</clus>
<clus scale="   81.516">  2  3  1 -1</clus>
<clus scale="   81.516">  1  3  2 -1</clus>
</clustering>
</event>
<event>
 6    0  0.7442036E+002  0.9408080E+02  0.7546771E-02  0.1293260E+00
         21   -1    0    0  503  501  0.00000000000E+00  0.00000000000E+00  0.62899501706E+02  0.62899501706E+02  0.00000000000E+00 0. -1.
         21   -1    0    0  506  502 -0.00000000000E+00 -0.00000000000E+00 -0.35224029969E+03  0.35224029969E+03  0.00000000000E+00 0. -1.
         21    1    1    2  503  502 -0.23451744388E+02 -0.51668440532E+02 -0.92722599447E+02  0.10870645110E+03  0.00000000000E+00 0.  1.
         21    1    1    2  504  501 -0.40206349224E+02 -0.31654770052E+01 -0.59276148162E+01  0.40764045187E+02  0.00000000000E+00 0. -1.
         21    1    1    2  505  504 -0.40073648377E+02  0.33586175839E+02 -0.58031436663E+01  0.52608031499E+02  0.00000000000E+00 0. -1.
         21    1    1    2  506  505  0.10373174199E+03  0.21247741698E+02 -0.18488744005E+03  0.21306127361E+03  0.00000000000E+00 0. -1.
<scales pt_clust_3="56.74163" pt_clust_4="30.55572" pt_clust_5="30.55572" pt_clust_6="87.41144"></scales>
<clustering>
<clus scale="   30.556">  4  5 -1 -1</clus>
<clus scale="   56.742">  2  3  1 -1</clus>
<clus scale="   87.411">  2  6  1 -1</clus>
<clus scale="   94.081">  1  3  2 -1</clus>
</clustering>
</event>
<event>
 6    0  0.7442036E+002  0.1392077E+03  0.7546771E-02  0.1214399E+00
         21   -1    0    0  504  501  0.00000000000E+00  0.00000000000E+00  0.23170978976E+03  0.23170978976E+03  0.00000000000E+00 0.  1.
         21   -1    0    0  501  502 -0.00000000000E+00 -0.00000000000E+00 -0.18361048487E+04  0.18361048487E+04  0.00000000000E+00 0.  1.
         21    1    1    2  503  506  0.45713341649E+02 -0.24137395692E+02 -0.16791101980E+03  0.17568845735E+03  0.00000000000E+00 0. -1.
         21    1    1    2  504  505 -0.12139365352E+03  0.40528139895E+02  0.19869149347E+03  0.23634140309E+03  0.00000000000E+00 0.  1.
         21    1    1    2  505  503  0.19522584851E+02 -0.75062124740E+02 -0.15441674846E+03  0.17280042273E+03  0.00000000000E+00 0.  1.
         21    1    1    2  506  502  0.56157727018E+02  0.58671380537E+02 -0.14807587841E+04  0.14829843553E+04  0.00000000000E+00 0.  1.
<scales pt_clust_3="47.97399" pt_clust_4="126.19722" pt_clust_5="47.97399" pt_clust_6="81.21589"></scales>
<clustering>
<clus scale="   47.974">  3  5 -1 -1</clus>
<clus scale="   81.216">  2  6  1 -1</clus>
<clus scale="  126.197">  1  4  2 -1</clus>
<clus scale="  126.197">  1  3  2 -1</clus>
</clustering>
</event>
<event>
 6    0  0.7442036E+002  0.1463305E+03  0.7546771E-02  0.1205056E+00
         21   -1    0    0  503  501  0.00000000000E+00  0.00000000000E+00  0.17266300204E+04  0.17266300204E+04  0.00000000000E+00 0. -1.
         21   -1    0    0  506  502 -0.00000000000E+00 -0.00000000000E+00 -0.15444724891E+03  0.15444724891E+03  0.00000000000E+00 0.  1.
         21    1    1    2  503  504 -0.50254399603E+02  0.83954887704E+02 -0.76414852421E+02  0.12414973830E+03  0.00000000000E+00 0.  1.
         21    1    1    2  504  502  0.14071778861E+02  0.46382696505E+02 -0.39661468818E+02  0.62629079541E+02  0.00000000000E+00 0.  1.
         21    1    1    2  505  501  0.22739361917E+02 -0.41367252333E+02  0.37482423822E+03  0.37778504166E+03  0.00000000000E+00 0. -1.
         21    1    1    2  506  505  0.13443258826E+02 -0.88970331876E+02  0.13134348545E+04  0.13165134098E+04  0.00000000000E+00 0. -1.
<scales pt_clust_3="39.28551" pt_clust_4="39.28551" pt_clust_5="33.43912" pt_clust_6="142.92823"></scales>
<clustering>
<clus scale="   33.439">  5  6 -1 -1</clus>
<clus scale="   39.286">  3  4 -1 -1</clus>
<clus scale="  142.928">  1  5  2 -1</clus>
<clus scale="  142.928">  1  3  2 -1</clus>
</clustering>
</event>
<event>
 6    0  0.7442036E+002  0.1146956E+03  0.7546771E-02  0.1252113E+00
         21   -1    0    0  505  501  0.00000000000E+00  0.00000000000E+00  0.11937196918E+04  0.11937196918E+04  0.00000000000E+00 0. -1.
         21   -1    0    0  506  502 -0.00000000000E+00 -0.00000000000E+00 -0.26283952013E+03  0.26283952013E+03  0.00000000000E+00 0.  1.
         21    1    1    2  503  504 -0.37816438843E+02 -0.36113391130E+02 -0.18018319872E+03  0.18761728377E+03  0.00000000000E+00 0.  1.
         21    1    1    2  504  501  0.10587892776E+02 -0.82310970248E+02  0.65120543540E+02  0.10548878845E+03  0.00000000000E+00 0.  1.
         21    1    1    2  505  502  0.64663319400E+02  0.10460156750E+03  0.10940554316E+04  0.11009451032E+04  0.00000000000E+00 0. -1.
         21    1    1    2  506  503 -0.37434773333E+02  0.13822793874E+02 -0.48112604802E+02  0.62508036490E+02  0.00000000000E+00 0. -1.
<scales pt_clust_3="74.89287" pt_clust_4="14000.00000" pt_clust_5="114.69562" pt_clust_6="39.90529"></scales>
<clustering>
<clus scale="   39.905">  2  6  1 -1</clus>
<clus scale="   74.893">  2  3  1 -1</clus>
<clus scale="  114.696">  1  5  2 -1</clus>
<clus scale="  114.696">  1  3  2 -1</clus>
</clustering>
</event>
<event>
 6    0  0.7442036E+002  0.1163254E+03  0.7546771E-02  0.1249285E+00
         21   -1    0    0  505  501  0.00000000000E+00  0.00000000000E+00  0.18450566659E+04  0.18450566659E+04  0.00000000000E+00 0. -1.
         21   -1    0    0  504  502 -0.00000000000E+00 -0.00000000000E+00 -0.13408126802E+03  0.13408126802E+03  0.00000000000E+00 0.  1.
         21    1    1    2  503  501 -0.74051697366E+01  0.53081172586E+02  0.31544627949E+02  0.62189315596E+02  0.00000000000E+00 0.  1.
         21    1    1    2  504  503 -0.37280380727E+02  0.40826649753E+01 -0.19190174964E+02  0.42127873855E+02  0.00000000000E+00 0.  1.
         21    1    1    2  505  506  0.65605844213E+02 -0.97995633936E+02  0.17786598320E+04  0.17825650252E+04  0.00000000000E+00 0. -1.
         21    1    1    2  506  502 -0.20920293750E+02  0.40831796375E+02 -0.80038887113E+02  0.92255719259E+02  0.00000000000E+00 0.  1.
<scales pt_clust_3="55.22077" pt_clust_4="37.50327" pt_clust_5="14000.00000" pt_clust_6="116.32539"></scales>
<clustering>
<clus scale="   37.503">  2  4  1 -1</clus>
<clus scale="   55.221">  2  3  1 -1</clus>
<clus scale="  116.325">  2  6  1 -1</clus>
<clus scale="  116.325">  1  3  2 -1</clus>
</clustering>
</event>
<event>
 6    0  0.7442036E+002  0.1070103E+03  0.7546771E-02  0.1266209E+00
         21   -1    0    0  504  501  0.00000000000E+00  0.00000000000E+00  0.28345567990E+03  0.28345567990E+03  0.00000000000E+00 0. -1.
         21   -1    0    0  503  502 -0.00000000000E+00 -0.00000000000E+00 -0.11507947691E+03  0.11507947691E+03  0.00000000000E+00 0. -1.
         21    1    1    2  503  506  0.28080621322E+02  0.63003066307E+02 -0.48638861550E+02  0.84401697321E+02  0.00000000000E+00 0. -1.
         21    1    1    2  504  502  0.39671154468E+02 -0.87393500934E+02  0.15165481828E+03  0.17947314119E+03  0.00000000000E+00 0. -1.
         21    1    1    2  505  501 -0.55628850843E+02 -0.12550305956E+02  0.75370292298E+02  0.94513280478E+02  0.00000000000E+00 0.  1.
         21    1    1    2  506  505 -0.12122924946E+02  0.36940740583E+02 -0.10010046034E+02  0.40147037819E+02  0.00000000000E+00 0. -1.
<scales pt_clust_3="32.11029" pt_clust_4="98.09142" pt_clust_5="57.02700" pt_clust_6="32.11029"></scales>
<clustering>
<clus scale="   32.110">  3  6 -1 -1</clus>
<clus scale="   57.027">  1  5  2 -1</clus>
<clus scale="   98.091">  1  4  2 -1</clus>
<clus scale="   57.027">  1  3  2 -1</clus>
</clustering>
</event>
<event>
 6    0  0.7442036E+002  0.2191293E+03  0.7546771E-02  0.1134534E+00
         21   -1    0    0  505  501  0.00000000000E+00  0.00000000000E+00  0.21223619119E+03  0.21223619119E+03  0.00000000000E+00 0.  1.
         21   -1    0    0  501  502 -0.00000000000E+00 -0.00000000000E+00 -0.28507820408E+03  0.28507820408E+03  0.00000000000E+00 0.  1.
         21    1    1    2  503  506  0.32320110724E+02  0.22920303154E+02 -0.50134723831E+01  0.39938261845E+02  0.00000000000E+00 0. -1.
         21    1    1    2  504  502 -0.18060931585E+03 -0.34751147454E+02 -0.13696240076E+03  0.22931652021E+03  0.00000000000E+00 0.  1.
         21    1    1    2  505  503  0.17369705757E+03 -0.99504220217E+01  0.81831437962E+02  0.19226560521E+03  0.00000000000E+00 0.  1.
         21    1    1    2  506  504 -0.25407852449E+02  0.21781266322E+02 -0.12697577707E+02  0.35794007994E+02  0.00000000000E+00 0.  1.
<scales pt_clust_3="35.08892" pt_clust_4="218.82752" pt_clust_5="35.08892" pt_clust_6="30.97874"></scales>
<clustering>
<clus scale="   30.979">  4  6 -1 -1</clus>
<clus scale="   35.089">  3  5 -1 -1</clus>
<clus scale="  218.828">  2  4  1 -1</clus>
<clus scale="  219.129">  1  3  2 -1</clus>
</clustering>
</event>
<event>
 6    0  0.7442036E+002  0.1716573E+03  0.7546771E-02  0.1176131E+00
         21   -1    0    0  505  501  0.00000000000E+00  0.00000000000E+00  0.31977624362E+03  0.31977624362E+03  0.00000000000E+00 0.  1.
         21   -1    0    0  503  502 -0.00000000000E+00 -0.00000000000E+00 -0.51306425209E+03  0.51306425209E+03  0.00000000000E+00 0. -1.
         21    1    1    2  503  506 -0.25002930718E+02  0.39001542523E+02  0.11301665510E+03  0.12214348609E+03  0.00000000000E+00 0.  1.
         21    1    1    2  504  502  0.10722438292E+03 -0.12680576603E+03 -0.45217914304E+03  0.48170815645E+03  0.00000000000E+00 0. -1.
         21    1    1    2  505  504  0.73542571238E+01  0.52807928967E+02 -0.11211436522E+01  0.53329348606E+02  0.00000000000E+00 0. -1.
         21    1    1    2  506  501 -0.89575709325E+02  0.34996294539E+02  0.14699562312E+03  0.17565950458E+03  0.00000000000E+00 0.  1.
<scales pt_clust_3="34.53850" pt_clust_4="164.28610" pt_clust_5="53.31756" pt_clust_6="34.53850"></scales>
<clustering>
<clus scale="   34.538">  3  6 -1 -1</clus>
<clus scale="   53.318">  1  5  2 -1</clus>
<clus scale="  164.286">  2  4  1 -1</clus>
<clus scale="   53.318">  1  3  2 -1</clus>
</clustering>
</event>
<event>
 6    0  0.7442036E+002  0.1329029E+03  0.7546771E-02  0.1223211E+00
         21   -1    0    0  503  501  0.00000000000E+00  0.00000000000E+00  0.65217988951E+02  0.65217988951E+02  0.00000000000E+00 0.  1.
         21   -1    0    0  505  502 -0.00000000000E+00 -0.00000000000E+00 -0.80370622474E+03  0.80370622474E+03  0.00000000000E+00 0.  1.
         21    1    1    2  503  506 -0.20293157951E+02 -0.25998535965E+02  0.12373489270E+02  0.35225549941E+02  0.00000000000E+00 0.  1.
         21    1    1    2  504  502  0.14224195282E+03  0.29084752062E+02 -0.63181289776E+03  0.64827944107E+03  0.00000000000E+00 0.  1.
         21    1    1    2  505  501 -0.29108340582E+02  0.31668973682E+02 -0.36865307990E+02  0.56650422052E+02  0.00000000000E+00 0.  1.
         21    1    1    2  506  504 -0.92840454284E+02 -0.34755189779E+02 -0.82183519310E+02  0.12876880063E+03  0.00000000000E+00 0.  1.
<scales pt_clust_3="32.98084" pt_clust_4="14000.00000" pt_clust_5="42.43982" pt_clust_6="132.90288"></scales>
<clustering>
<clus scale="   32.981">  1  3  2 -1</clus>
<clus scale="   42.440">  1  5  2 -1</clus>
<clus scale="  132.903">  1  6  2 -1</clus>
<clus scale="   32.981">  1  3  2 -1</clus>
</clustering>
</event>
<event>
 6    0  0.7442036E+002  0.1496024E+03  0.7546771E-02  0.1200962E+00
         21   -1    0    0  503  501  0.00000000000E+00  0.00000000000E+00  0.48655099554E+03  0.48655099554E+03  0.00000000000E+00 0. -1.
         21   -1    0    0  505  502 -0.00000000000E+00 -0.00000000000E+00 -0.20414180762E+04  0.20414180762E+04  0.00000000000E+00 0.  1.
         21    1    1    2  503  504  0.52197100472E+02 -0.13243437569E+02  0.68921784766E+02  0.87465069323E+02  0.00000000000E+00 0. -1.
         21    1    1    2  504  502 -0.17753746037E+01 -0.97525851290E+02 -0.38350969905E+03  0.39571976560E+03  0.00000000000E+00 0.  1.
         21    1    1    2  505  506  0.17168262570E+02 -0.54372247444E+02 -0.16222175128E+04  0.16232192549E+04  0.00000000000E+00 0.  1.
         21    1    1    2  506  501 -0.67589988438E+02  0.16514153630E+03  0.38193834642E+03  0.42156498196E+03  0.00000000000E+00 0. -1.
<scales pt_clust_3="53.85096" pt_clust_4="149.60238" pt_clust_5="57.05313" pt_clust_6="14000.00000"></scales>
<clustering>
<clus scale="   53.851">  1  3  2 -1</clus>
<clus scale="   57.053">  2  5  1 -1</clus>
<clus scale="  149.602">  2  4  1 -1</clus>
<clus scale="   53.851">  1  3  2 -1</clus>
</clustering>
</event>
<event>
 6    0  0.7442036E+002  0.3227303E+03  0.7546771E-02  0.1074400E+00
         21   -1    0    0  506  501  0.00000000000E+00  0.00000000000E+00  0.56462571387E+03  0.56462571387E+03  0.00000000000E+00 0.  1.
         21   -1    0    0  504  502 -0.00000000000E+00 -0.00000000000E+00 -0.30700248605E+03  0.30700248605E+03  0.00000000000E+00 0.  1.
         21    1    1    2  503  502 -0.20667145945E+03 -0.87099826500E+02 -0.66438276869E+02  0.23390920581E+03  0.00000000000E+00 0.  1.
         21    1    1    2  504  505  0.25631109937E+03  0.12957348438E+03  0.22894078602E+03  0.36728538089E+03  0.00000000000E+00 0.  1.
         21    1    1    2  505  501  0.32310404478E+02  0.30852705941E+02  0.14350169866E+03  0.15029500730E+03  0.00000000000E+00 0.  1.
         21    1    1    2  506  503 -0.81950044395E+02 -0.73326363821E+02 -0.48380979985E+02  0.12013860592E+03  0.00000000000E+00 0.  1.
<scales pt_clust_3="39.15925" pt_clust_4="317.84806" pt_clust_5="44.67496" pt_clust_6="39.15925"></scales>
<clustering>
<clus scale="   39.159">  3  6 -1 -1</clus>
<clus scale="   44.675">  1  5  2 -1</clus>
<clus scale="  317.848">  1  4  2 -1</clus>
<clus scale="   44.675">  1  3  2 -1</clus>
</clustering>
</event>
<event>
 6    0  0.7442036E+002  0.1017017E+03  0.7546771E-02  0.1276758E+00
         21   -1    0    0  506  501  0.00000000000E+00  0.00000000000E+00  0.37431823308E+03  0.37431823308E+03  0.00000000000E+00 0. -1.
         21   -1    0    0  505  502 -0.00000000000E+00 -0.00000000000E+00 -0.16863188443E+03  0.16863188443E+03  0.00000000000E+00 0. -1.
         21    1    1    2  503  502  0.38154167587E+01 -0.48617518226E+02 -0.10335621438E+03  0.11428354008E+03  0.00000000000E+00 0. -1.
         21    1    1    2  504  503 -0.45612841099E+02  0.20836223389E+02  0.42400326233E+00  0.50148372426E+02  0.00000000000E+00 0. -1.
         21    1    1    2  505  501  0.83116093850E+02 -0.65453403578E+02  0.21705147297E+03  0.24146174649E+03  0.00000000000E+00 0. -1.
         21    1    1    2  506  504 -0.41318669510E+02  0.93234698415E+02  0.91567086785E+02  0.13705645852E+03  0.00000000000E+00 0. -1.
<scales pt_clust_3="48.76700" pt_clust_4="44.03135" pt_clust_5="14000.00000" pt_clust_6="101.70172"></scales>
<clustering>
<clus scale="   48.767">  2  3  1 -1</clus>
<clus scale="   44.031">  2  4  1 -1</clus>
<clus scale="  101.702">  2  6  1 -1</clus>
<clus scale="  101.702">  1  3  2 -1</clus>
</clustering>
</event>
<event>
 6    0  0.7442036E+002  0.1115911E+03  0.7546771E-02  0.1257651E+00
         21   -1    0    0  504  501  0.00000000000E+00  0.00000000000E+00  0.13184023436E+04  0.13184023436E+04  0.00000000000E+00 0.  1.
         21   -1    0    0  505  502 -0.00000000000E+00 -0.00000000000E+00 -0.23905430134E+03  0.23905430134E+03  0.00000000000E+00 0. -1.
         21    1    1    2  503  501  0.45343732738E+02  0.88827232746E+02  0.10117710870E+04  0.10166745122E+04  0.00000000000E+00 0.  1.
         21    1    1    2  504  506 -0.11801382426E+03 -0.16921370999E+03  0.24364635448E+03  0.31925552214E+03  0.00000000000E+00 0. -1.
         21    1    1    2  505  503  0.51389628628E+02  0.52686774710E+02 -0.17108279773E+03  0.18624208397E+03  0.00000000000E+00 0. -1.
         21    1    1    2  506  502  0.21280462891E+02  0.27699702536E+02 -0.49866014871E+01  0.35284526578E+02  0.00000000000E+00 0. -1.
<scales pt_clust_3="100.11597" pt_clust_4="14000.00000" pt_clust_5="111.59113" pt_clust_6="34.93038"></scales>
<clustering>
<clus scale="   34.930">  2  6  1 -1</clus>
<clus scale="  100.116">  1  3  2 -1</clus>
<clus scale="  111.591">  2  5  1 -1</clus>
<clus scale="  100.116">  1  3  2 -1</clus>
</clustering>
</event>
<event>
 6    0  0.7442036E+002  0.1119503E+03  0.7546771E-02  0.1257000E+00
         21   -1    0    0  505  501  0.00000000000E+00  0.00000000000E+00  0.27796399747E+02  0.27796399747E+02  0.00000000000E+00 0. -1.
         21   -1    0    0  503  502 -0.00000000000E+00 -0.00000000000E+00 -0.25704087230E+04  0.25704087230E+04  0.00000000000E+00 0. -1.
         21    1    1    2  503  504  0.14626061172E+03  0.48814161428E+02 -0.16013809110E+04  0.16087870620E+04  0.00000000000E+00 0. -1.
         21    1    1    2  504  501  0.21731640321E+02  0.39873724140E+02 -0.55203573073E+02  0.71481553900E+02  0.00000000000E+00 0. -1.
         21    1    1    2  505  506 -0.12031305177E+03 -0.37063694185E+02 -0.26993379818E+03  0.29784761751E+03  0.00000000000E+00 0. -1.
         21    1    1    2  506  502 -0.47679200272E+02 -0.51624191383E+02 -0.61609404106E+03  0.62008888936E+03  0.00000000000E+00 0. -1.
<scales pt_clust_3="14000.00000" pt_clust_4="45.41121" pt_clust_5="111.95031" pt_clust_6="65.80851"></scales>
<clustering>
<clus scale="   45.411">  1  4  2 -1</clus>
<clus scale="   65.809">  2  6  1 -1</clus>
<clus scale="  111.950">  1  5  2 -1</clus>
<clus scale="   45.411">  1  3  2 -1</clus>
</clustering>
</event>
<event>
 6    0  0.7442036E+002  0.1167795E+03  0.7546771E-02  0.1248506E+00
         21   -1    0    0  505  501  0.00000000000E+00  0.00000000000E+00  0.13510848899E+04  0.13510848899E+04  0.00000000000E+00 0.  1.
         21   -1    0    0  504  502 -0.00000000000E+00 -0.00000000000E+00 -0.31411021249E+02  0.31411021249E+02  0.00000000000E+00 0. -1.
         21    1    1    2  503  502  0.63755581750E+02 -0.71811625019E+02  0.14004272300E+03  0.16980473479E+03  0.00000000000E+00 0. -1.
         21    1    1    2  504  506 -0.83406975630E+02  0.21224703196E+02  0.14890819478E+03  0.17199087790E+03  0.00000000000E+00 0. -1.
         21    1    1    2  505  503  0.69114609756E+02  0.44228146777E+02  0.82275221250E+03  0.82683381729E+03  0.00000000000E+00 0.  1.
         21    1    1    2  506  501 -0.49463215876E+02  0.63587750457E+01  0.20797073842E+03  0.21386648120E+03  0.00000000000E+00 0. -1.
<scales pt_clust_3="102.61318" pt_clust_4="42.43724" pt_clust_5="82.05461" pt_clust_6="42.43724"></scales>
<clustering>
<clus scale="   42.437">  4  6 -1 -1</clus>
<clus scale="   82.055">  1  5  2 -1</clus>
<clus scale="  102.613">  2  3  1 -1</clus>
<clus scale="   82.055">  1  3  2 -1</clus>
</clustering>
</event>
<event>
 6    0  0.7442036E+002  0.1873868E+03  0.7546771E-02  0.1160840E+00
         21   -1    0    0  503  501  0.00000000000E+00  0.00000000000E+00  0.38163012109E+03  0.38163012109E+03  0.00000000000E+00 0.  1.
         21   -1    0    0  506  502 -0.00000000000E+00 -0.00000000000E+00 -0.63743197639E+03  0.63743197639E+03  0.00000000000E+00 0. -1.
         21    1    1    2  503  504 -0.14875798920E+03 -0.11581524238E+03  0.31708148602E+03  0.36889399358E+03  0.00000000000E+00 0.  1.
         21    1    1    2  504  502 -0.53766353466E+02  0.14674258264E+02 -0.13280226297E+03  0.14402289981E+03  0.00000000000E+00 0. -1.
         21    1    1    2  505  501  0.18333059984E+03  0.43132531313E+02 -0.31685311606E+03  0.36860062568E+03  0.00000000000E+00 0. -1.
         21    1    1    2  506  505  0.19193742832E+02  0.58008452807E+02 -0.12322796230E+03  0.13754457842E+03  0.00000000000E+00 0. -1.
<scales pt_clust_3="187.38681" pt_clust_4="55.73289" pt_clust_5="14000.00000" pt_clust_6="62.05630"></scales>
<clustering>
<clus scale="   55.733">  2  4  1 -1</clus>
<clus scale="   62.056">  2  6  1 -1</clus>
<clus scale="  187.387">  1  3  2 -1</clus>
<clus scale="  187.387">  1  3  2 -1</clus>
</clustering>
</event>
<event>
 6    0  0.7442036E+002  0.1079612E+03  0.7546771E-02  0.1264393E+00
         21   -1    0    0  505  501  0.00000000000E+00  0.00000000000E+00  0.18757461082E+03  0.18757461082E+03  0.00000000000E+00 0.  1.
         21   -1    0    0  503  502 -0.00000000000E+00 -0.00000000000E+00 -0.48668510517E+03  0.48668510517E+03  0.00000000000E+00 0. -1.
         21    1    1    2  503  506  0.99723757983E+01  0.51455337185E+02 -0.25828336136E+03  0.26354770869E+03  0.00000000000E+00 0. -1.
         21    1    1    2  504  501  0.35419187983E+02  0.14854911450E+01  0.68345597882E+02  0.76992508150E+02  0.00000000000E+00 0.  1.
         21    1    1    2  505  502 -0.12121262071E+03 -0.73170792898E+02  0.54891541309E+02  0.15185369821E+03  0.00000000000E+00 0.  1.
         21    1    1    2  506  504  0.75821056932E+02  0.20229964568E+02 -0.16406427219E+03  0.18186580093E+03  0.00000000000E+00 0. -1.
<scales pt_clust_3="52.60650" pt_clust_4="35.45033" pt_clust_5="14000.00000" pt_clust_6="107.96123"></scales>
<clustering>
<clus scale="   35.450">  1  4  2 -1</clus>
<clus scale="   52.606">  2  3  1 -1</clus>
<clus scale="  107.961">  2  6  1 -1</clus>
<clus scale="   35.450">  1  3  2 -1</clus>
</clustering>
</event>
<event>
 6    0  0.7442036E+002  0.7470183E+02  0.7546771E-02  0.1344797E+00
         21   -1    0    0  505  501  0.00000000000E+00  0.00000000000E+00  0.52658251638E+03  0.52658251638E+03  0.00000000000E+00 0.  1.
         21   -1    0    0  504  502 -0.00000000000E+00 -0.00000000000E+00 -0.55841192869E+03  0.55841192869E+03  0.00000000000E+00 0.  1.
         21    1    1    2  503  501 -0.67873707600E+02 -0.29897873208E+02  0.47582875514E+03  0.48157421777E+03  0.00000000000E+00 0.  1.
         21    1    1    2  504  503 -0.66689882720E+02  0.10729438718E+02 -0.79703717997E+02  0.10447652356E+03  0.00000000000E+00 0.  1.
         21    1    1    2  505  506  0.24382720602E+02 -0.29875910293E+02  0.13849538225E+02  0.40974343056E+02  0.00000000000E+00 0.  1.
         21    1    1    2  506  502  0.11018086972E+03  0.49044344784E+02 -0.44180398768E+03  0.45796936069E+03  0.00000000000E+00 0.  1.
<scales pt_clust_3="74.70183" pt_clust_4="66.83539" pt_clust_5="38.56277" pt_clust_6="14000.00000"></scales>
<clustering>
<clus scale="   38.563">  1  5  2 -1</clus>
<clus scale="   66.835">  2  4  1 -1</clus>
<clus scale="   74.702">  1  3  2 -1</clus>
<clus scale="   38.563">  1  3  2 -1</clus>
</clustering>
</event>
<event>
 6    0  0.7442036E+002  0.3617810E+03  0.7546771E-02  0.1057881E+00
         21   -1    0    0  503  501  0.00000000000E+00  0.00000000000E+00  0.73323295442E+03  0.73323295442E+03  0.00000000000E+00 0. -1.
         21   -1    0    0  501  502 -0.00000000000E+00 -0.00000000000E+00 -0.40371490802E+03  0.40371490802E+03  0.00000000000E+00 0. -1.
         21    1    1    2  503  504  0.27382682240E+02 -0.42879829467E+02  0.24606708339E+03  0.25127176640E+03  0.00000000000E+00 0. -1.
         21    1    1    2  504  505 -0.24510367374E+03 -0.22917490899E+03  0.30943685110E+03  0.45645165637E+03  0.00000000000E+00 0. -1.
         21    1    1    2  505  506  0.13703192557E+03  0.87213605411E+02 -0.86747078140E+02  0.18414401201E+03  0.00000000000E+00 0. -1.
         21    1    1    2  506  502  0.80689065930E+02  0.18484113304E+03 -0.13923880995E+03  0.24508042766E+03  0.00000000000E+00 0. -1.
<scales pt_clust_3="50.87722" pt_clust_4="345.16329" pt_clust_5="98.03787" pt_clust_6="98.03787"></scales>
<clustering>
<clus scale="   50.877">  1  3  2 -1</clus>
<clus scale="   98.038">  5  6 -1 -1</clus>
<clus scale="  345.163">  1  4  2 -1</clus>
<clus scale="   50.877">  1  3  2 -1</clus>
</clustering>
</event>
<event>
 6    0  0.7442036E+002  0.1579394E+03  0.7546771E-02  0.1191043E+00
         21   -1    0    0  503  501  0.00000000000E+00  0.00000000000E+00  0.33828977185E+03  0.33828977185E+03  0.00000000000E+00 0. -1.
         21   -1    0    0  504  502 -0.00000000000E+00 -0.00000000000E+00 -0.61924827058E+03  0.61924827058E+03  0.00000000000E+00 0. -1.
         21    1    1    2  503  506  0.10774250627E+03  0.59703051537E+02  0.27549839772E+03  0.30178182378E+03  0.00000000000E+00 0. -1.
         21    1    1    2  504  505 -0.63396538039E+02 -0.95680697998E+02 -0.26509131634E+03  0.28887250303E+03  0.00000000000E+00 0. -1.
         21    1    1    2  505  501  0.23044265574E+02  0.46497036860E+02  0.14197102959E+02  0.53801211372E+02  0.00000000000E+00 0.  1.
         21    1    1    2  506  502 -0.67390233806E+02 -0.10519390400E+02 -0.30556268306E+03  0.31308250425E+03  0.00000000000E+00 0. -1.
<scales pt_clust_3="14000.00000" pt_clust_4="157.93938" pt_clust_5="51.89424" pt_clust_6="67.83839"></scales>
<clustering>
<clus scale="   51.894">  1  5  2 -1</clus>
<clus scale="   67.838">  2  6  1 -1</clus>
<clus scale="  157.939">  2  4  1 -1</clus>
<clus scale="   51.894">  1  3  2 -1</clus>
</clustering>
</event>
<event>
 6    0  0.7442036E+002  0.2592493E+03  0.7546771E-02  0.1107595E+00
         21   -1    0    0  506  501  0.00000000000E+00  0.00000000000E+00  0.95612559390E+03  0.95612559390E+03  0.00000000000E+00 0. -1.
         21   -1    0    0  505  502 -0.00000000000E+00 -0.00000000000E+00 -0.19786996444E+03  0.19786996444E+03  0.00000000000E+00 0. -1.
         21    1    1    2  503  502  0.19613600916E+03 -0.35392894725E+02 -0.63691628141E+02  0.20923339739E+03  0.00000000000E+00 0. -1.
         21    1    1    2  504  501 -0.20979160357E+02 -0.35969086478E+02  0.52794913191E+03  0.52958869534E+03  0.00000000000E+00 0. -1.
         21    1    1    2  505  504 -0.21374600994E+03  0.10327753391E+03  0.27038642274E+03  0.35980887062E+03  0.00000000000E+00 0. -1.
         21    1    1    2  506  503  0.38589161139E+02 -0.31915552707E+02  0.23611702956E+02  0.55364594991E+02  0.00000000000E+00 0. -1.
<scales pt_clust_3="47.60242" pt_clust_4="41.64013" pt_clust_5="241.72468" pt_clust_6="47.60242"></scales>
<clustering>
<clus scale="   41.640">  1  4  2 -1</clus>
<clus scale="   47.602">  3  6 -1 -1</clus>
<clus scale="  241.725">  1  5  2 -1</clus>
<clus scale="   41.640">  1  3  2 -1</clus>
</clustering>
</event>
<event>
 6    0  0.7442036E+002  0.1418625E+03  0.7546771E-02  0.1210845E+00
         21   -1    0    0  505  501  0.00000000000E+00  0.00000000000E+00  0.19840383145E+03  0.19840383145E+03  0.00000000000E+00 0. -1.
         21   -1    0    0  504  502 -0.00000000000E+00 -0.00000000000E+00 -0.26479714574E+03  0.26479714574E+03  0.00000000000E+00 0.  1.
         21    1    1    2  503  502 -0.53561206348E+02  0.62406511104E+02 -0.12546491287E+03  0.15001606519E+03  0.00000000000E+00 0.  1.
         21    1    1    2  504  501  0.22692338094E+02  0.29960432858E+02 -0.10519474084E+02  0.39028567489E+02  0.00000000000E+00 0.  1.
         21    1    1    2  505  506  0.23730464196E+02 -0.13352714785E+03  0.13832875759E+03  0.19372010562E+03  0.00000000000E+00 0. -1.
         21    1    1    2  506  503  0.71384040584E+01  0.41160203890E+02 -0.68737684932E+02  0.80436238889E+02  0.00000000000E+00 0.  1.
<scales pt_clust_3="35.72451" pt_clust_4="37.58417" pt_clust_5="132.71206" pt_clust_6="35.72451"></scales>
<clustering>
<clus scale="   35.725">  3  6 -1 -1</clus>
<clus scale="   37.584">  2  4  1 -1</clus>
<clus scale="  132.712">  1  5  2 -1</clus>
<clus scale="  132.712">  1  3  2 -1</clus>
</clustering>
</event>
<event>
 6    0  0.7442036E+002  0.8885611E+02  0.7546771E-02  0.1305646E+00
         21   -1    0    0  504  501  0.00000000000E+00  0.00000000000E+00  0.41152165969E+02  0.41152165969E+02  0.00000000000E+00 0.  1.
         21   -1    0    0  506  502 -0.00000000000E+00 -0.00000000000E+00 -0.12045950501E+04  0.12045950501E+04  0.00000000000E+00 0.  1.
         21    1    1    2  503  505  0.71487684667E+02  0.11496825715E+02 -0.51724158204E+03  0.52228490334E+03  0.00000000000E+00 0.  1.
         21    1    1    2  504  503  0.43129278906E+01  0.68452195304E+02 -0.97124420664E+02  0.11890104069E+03  0.00000000000E+00 0. -1.
         21    1    1    2  505  502  0.23203246797E+02 -0.20405999996E+02 -0.45369286463E+03  0.45474389596E+03  0.00000000000E+00 0.  1.
         21    1    1    2  506  501 -0.99003859355E+02 -0.59543021022E+02 -0.95384016841E+02  0.14981737612E+03  0.00000000000E+00 0.  1.
<scales pt_clust_3="14000.00000" pt_clust_4="65.96032" pt_clust_5="30.89977" pt_clust_6="88.85611"></scales>
<clustering>
<clus scale="   30.900">  2  5  1 -1</clus>
<clus scale="   65.960">  1  4  2 -1</clus>
<clus scale="   88.856">  1  6  2 -1</clus>
<clus scale="   65.960">  1  3  2 -1</clus>
</clustering>
</event>
<event>
 6    0  0.7442036E+002  0.3134812E+03  0.7546771E-02  0.1078689E+00
         21   -1    0    0  502  501  0.00000000000E+00  0.00000000000E+00  0.10697899118E+04  0.10697899118E+04  0.00000000000E+00 0. -1.
         21   -1    0    0  504  502 -0.00000000000E+00 -0.00000000000E+00 -0.14191726614E+04  0.14191726614E+04  0.00000000000E+00 0. -1.
         21    1    1    2  503  505  0.11159155543E+03  0.47113922068E+02 -0.60243736683E+03  0.61449424557E+03  0.00000000000E+00 0. -1.
         21    1    1    2  504  503  0.41488262532E+02  0.18560002302E+03 -0.76837126566E+03  0.79155735507E+03  0.00000000000E+00 0. -1.
         21    1    1    2  505  506 -0.16752014129E+03 -0.26595615135E+03  0.81856054063E+03  0.87683352516E+03  0.00000000000E+00 0. -1.
         21    1    1    2  506  501  0.14440323329E+02  0.33242206261E+02  0.20286534232E+03  0.20607744740E+03  0.00000000000E+00 0.  1.
<scales pt_clust_3="113.58284" pt_clust_4="113.58284" pt_clust_5="279.27559" pt_clust_6="36.24317"></scales>
<clustering>
<clus scale="   36.243">  1  6  2 -1</clus>
<clus scale="  113.583">  3  4 -1 -1</clus>
<clus scale="  279.276">  1  5  2 -1</clus>
<clus scale="   36.243">  1  3  2 -1</clus>
</clustering>
</event>
<event>
 6    0  0.7442036E+002  0.2032121E+03  0.7546771E-02  0.1147057E+00
         21   -1    0    0  505  501  0.00000000000E+00  0.00000000000E+00  0.22640284513E+04  0.22640284513E+04  0.00000000000E+00 0.  1.
         21   -1    0    0  503  502 -0.00000000000E+00 -0.00000000000E+00 -0.26237410756E+03  0.26237410756E+03  0.00000000000E+00 0. -1.
         21    1    1    2  503  504  0.14025590493E+02 -0.19947032701E+03 -0.15150963401E+03  0.25087905003E+03  0.00000000000E+00 0. -1.
         21    1    1    2  504  501  0.76492366395E+02  0.12701827733E+02  0.43385902217E+03  0.44073355859E+03  0.00000000000E+00 0. -1.
         21    1    1    2  505  506  0.22906808385E+02 -0.20819135422E+02  0.15339613553E+04  0.15342736385E+04  0.00000000000E+00 0.  1.
         21    1    1    2  506  502 -0.11342476527E+03  0.20758763470E+03  0.18534360027E+03  0.30051631173E+03  0.00000000000E+00 0. -1.
<scales pt_clust_3="203.21213" pt_clust_4="90.21633" pt_clust_5="30.95413" pt_clust_6="14000.00000"></scales>
<clustering>
<clus scale="   30.954">  1  5  2 -1</clus>
<clus scale="   90.216">  1  4  2 -1</clus>
<clus scale="  203.212">  2  3  1 -1</clus>
<clus scale="   30.954">  1  3  2 -1</clus>
</clustering>
</event>
<event>
 6    0  0.7442036E+002  0.2023034E+03  0.7546771E-02  0.1147810E+00
         21   -1    0    0  504  501  0.00000000000E+00  0.00000000000E+00  0.49512729399E+02  0.49512729399E+02  0.00000000000E+00 0. -1.
         21   -1    0    0  506  502 -0.00000000000E+00 -0.00000000000E+00 -0.12234551258E+04  0.12234551258E+04  0.00000000000E+00 0. -1.
         21    1    1    2  503  502 -0.41631138912E+02 -0.50995324547E+02 -0.30536851488E+03  0.31238374595E+03  0.00000000000E+00 0.  1.
         21    1    1    2  504  503  0.15739314560E+03 -0.11470390423E+03 -0.33508526933E+03  0.38757157487E+03  0.00000000000E+00 0. -1.
         21    1    1    2  505  501 -0.45073479767E+02  0.24893290492E+02 -0.13836261842E+03  0.14763302024E+03  0.00000000000E+00 0. -1.
         21    1    1    2  506  505 -0.70688526923E+02  0.14080593828E+03 -0.39512599378E+03  0.42537951415E+03  0.00000000000E+00 0. -1.
<scales pt_clust_3="65.83065" pt_clust_4="195.06527" pt_clust_5="30.65906" pt_clust_6="30.65906"></scales>
<clustering>
<clus scale="   30.659">  5  6 -1 -1</clus>
<clus scale="   65.831">  2  3  1 -1</clus>
<clus scale="  195.065">  1  4  2 -1</clus>
<clus scale="  195.065">  1  3  2 -1</clus>
</clustering>
</event>
<event>
 6    0  0.1209199E+003  0.1324826E+03  0.7546771E-02  0.1223818E+00
         21   -1    0    0  503  501  0.00000000000E+00  0.00000000000E+00  0.12601750239E+03  0.12601750239E+03  0.00000000000E+00 0.  1.
         21   -1    0    0  504  502 -0.00000000000E+00 -0.00000000000E+00 -0.80208738452E+03  0.80208738452E+03  0.00000000000E+00 0.  1.
         21    1    1    2  503  505 -0.16859160874E+02 -0.50445404195E+02 -0.14289334591E+02  0.55074088216E+02  0.00000000000E+00 0. -1.
         21    1    1    2  504  506  0.44540110670E+02  0.11869921688E+03 -0.67912401301E+03  0.69085653402E+03  0.00000000000E+00 0.  1.
         21    1    1    2  505  502 -0.27422193297E+02 -0.36856324324E+02 -0.73155374676E+02  0.86383297992E+02  0.00000000000E+00 0.  1.
         21    1    1    2  506  501 -0.25875649916E+00 -0.31397488359E+02  0.90498840146E+02  0.95790966683E+02  0.00000000000E+00 0.  1.
<scales pt_clust_3="44.47147" pt_clust_4="121.53378" pt_clust_5="44.47147" pt_clust_6="31.39855"></scales>
<clustering>
<clus scale="   31.399">  1  6  2 -1</clus>
<clus scale="   44.471">  3  5 -1 -1</clus>
<clus scale="  121.534">  2  4  1 -1</clus>
<clus scale="   31.399">  1  3  2 -1</clus>
</clustering>
</event>
<event>
 6    0  0.7442036E+002  0.6721781E+02  0.7546771E-02  0.1369818E+00
         21   -1    0    0  505  501  0.00000000000E+00  0.00000000000E+00  0.51521081092E+03  0.51521081092E+03  0.00000000000E+00 0.  1.
         21   -1    0    0  506  502 -0.00000000000E+00 -0.00000000000E+00 -0.19305272410E+04  0.19305272410E+04  0.00000000000E+00 0. -1.
         21    1    1    2  503  502  0.89107491043E+02 -0.38262709910E+02 -0.70991308039E+03  0.71650593971E+03  0.00000000000E+00 0. -1.
         21    1    1    2  504  501  0.30181721172E+02  0.51993734504E+02  0.39877836922E+03  0.40328460481E+03  0.00000000000E+00 0.  1.
         21    1    1    2  505  503 -0.57447787602E+02 -0.79214512807E+01  0.10244672509E+03  0.11772140490E+03  0.00000000000E+00 0.  1.
         21    1    1    2  506  504 -0.61841424613E+02 -0.58095733139E+01 -0.12066284440E+04  0.12082261025E+04  0.00000000000E+00 0. -1.
<scales pt_clust_3="67.21781" pt_clust_4="51.59010" pt_clust_5="57.99136" pt_clust_6="14000.00000"></scales>
<clustering>
<clus scale="   57.991">  1  5  2 -1</clus>
<clus scale="   51.590">  1  4  2 -1</clus>
<clus scale="   67.218">  1  3  2 -1</clus>
<clus scale="   57.991">  1  3  2 -1</clus>
</clustering>
</event>
<event>
 6    0  0.7442036E+002  0.1491567E+03  0.7546771E-02  0.1201513E+00
         21   -1    0    0  504  501  0.00000000000E+00  0.00000000000E+00  0.83425815361E+02  0.83425815361E+02  0.00000000000E+00 0.  1.
         21   -1    0    0  503  502 -0.00000000000E+00 -0.00000000000E+00 -0.79071307231E+03  0.79071307231E+03  0.00000000000E+00 0.  1.
         21    1    1    2  503  505  0.26723841643E+02  0.11425829967E+03 -0.61042153187E+03  0.62159759437E+03  0.00000000000E+00 0.  1.
         21    1    1    2  504  502 -0.21856507641E+02  0.24402070870E+02 -0.95557306727E+02  0.10101666624E+03  0.00000000000E+00 0.  1.
         21    1    1    2  505  506 -0.29233131587E+02 -0.99420190520E+02  0.95743089349E+01  0.10407025347E+03  0.00000000000E+00 0.  1.
         21    1    1    2  506  501  0.24365797584E+02 -0.39240180023E+02 -0.10882727288E+02  0.47454373596E+02  0.00000000000E+00 0.  1.
<scales pt_clust_3="136.16207" pt_clust_4="32.75924" pt_clust_5="40.27541" pt_clust_6="40.27541"></scales>
<clustering>
<clus scale="   32.759">  2  4  1 -1</clus>
<clus scale="   40.275">  5  6 -1 -1</clus>
<clus scale="  136.162">  2  3  1 -1</clus>
<clus scale="  149.157">  1  3  2 -1</clus>
</clustering>
</event>
<event>
 6    0  0.7442036E+002  0.1201619E+03  0.7546771E-02  0.1242830E+00
         21   -1    0    0  505  501  0.00000000000E+00  0.00000000000E+00  0.14410040969E+04  0.14410040969E+04  0.00000000000E+00 0.  1.
         21   -1    0    0  506  502 -0.00000000000E+00 -0.00000000000E+00 -0.39499180740E+02  0.39499180740E+02  0.00000000000E+00 0.  1.
         21    1    1    2  503  501  0.19572379773E+02  0.40235525342E+02  0.72618349749E+03  0.72756061437E+03  0.00000000000E+00 0.  1.
         21    1    1    2  504  502 -0.10787637004E+03  0.90983003471E+01  0.20827781047E+03  0.23473333086E+03  0.00000000000E+00 0.  1.
         21    1    1    2  505  504 -0.36051600430E+02 -0.81173919340E+01  0.31647292138E+03  0.31862316286E+03  0.00000000000E+00 0.  1.
         21    1    1    2  506  503  0.12435559070E+03 -0.41216433755E+02  0.15057068684E+03  0.19958616957E+03  0.00000000000E+00 0.  1.
<scales pt_clust_3="35.18432" pt_clust_4="120.16189" pt_clust_5="36.95416" pt_clust_6="14000.00000"></scales>
<clustering>
<clus scale="   36.954">  1  5  2 -1</clus>
<clus scale="   35.184">  1  3  2 -1</clus>
<clus scale="  120.162">  1  4  2 -1</clus>
<clus scale="   36.954">  1  3  2 -1</clus>
</clustering>
</event>
<event>
 6    0  0.7442036E+002  0.1245663E+03  0.7546771E-02  0.1235749E+00
         21   -1    0    0  504  501  0.00000000000E+00  0.00000000000E+00  0.11492383087E+04  0.11492383087E+04  0.00000000000E+00 0. -1.
         21   -1    0    0  503  502 -0.00000000000E+00 -0.00000000000E+00 -0.61944380064E+02  0.61944380064E+02  0.00000000000E+00 0.  1.
         21    1    1    2  503  501 -0.70925668888E+02 -0.98525295902E+02  0.10419681685E+04  0.10490163720E+04  0.00000000000E+00 0. -1.
         21    1    1    2  504  505  0.85588496926E+01  0.34564823762E+02  0.51396740694E+02  0.62526841467E+02  0.00000000000E+00 0.  1.
         21    1    1    2  505  506  0.25872332811E+02  0.45963971891E+02  0.13560803335E+02  0.54460625264E+02  0.00000000000E+00 0.  1.
         21    1    1    2  506  502  0.36494486384E+02  0.17996500249E+02 -0.19631783885E+02  0.45178850098E+02  0.00000000000E+00 0.  1.
<scales pt_clust_3="117.13483" pt_clust_4="34.82272" pt_clust_5="34.82272" pt_clust_6="40.69056"></scales>
<clustering>
<clus scale="   34.823">  4  5 -1 -1</clus>
<clus scale="   40.691">  2  6  1 -1</clus>
<clus scale="  117.135">  1  3  2 -1</clus>
<clus scale="  117.135">  1  3  2 -1</clus>
</clustering>
</event>
<event>
 6    0  0.7442036E+002  0.1370179E+03  0.7546771E-02  0.1217399E+00
         21   -1    0    0  503  501  0.00000000000E+00  0.00000000000E+00  0.52726924618E+02  0.52726924618E+02  0.00000000000E+00 0.  1.
         21   -1    0    0  504  502 -0.00000000000E+00 -0.00000000000E+00 -0.11384620194E+04  0.11384620194E+04  0.00000000000E+00 0.  1.
         21    1    1    2  503  506  0.11223864565E+02  0.33668082849E+02  0.18415221671E+02  0.39982937957E+02  0.00000000000E+00 0.  1.
         21    1    1    2  504  501 -0.13866704780E+03 -0.15400160877E+02 -0.24921553692E+03  0.28561179763E+03  0.00000000000E+00 0.  1.
         21    1    1    2  505  502  0.73128992523E+02  0.34741068966E+00 -0.36093234724E+03  0.36826638392E+03  0.00000000000E+00 0.  1.
         21    1    1    2  506  505  0.54314190716E+02 -0.18615332662E+02 -0.49400243232E+03  0.49732782454E+03  0.00000000000E+00 0.  1.
<scales pt_clust_3="35.48965" pt_clust_4="130.42054" pt_clust_5="36.74138" pt_clust_6="36.74138"></scales>
<clustering>
<clus scale="   35.490">  1  3  2 -1</clus>
<clus scale="   36.741">  5  6 -1 -1</clus>
<clus scale="  130.421">  1  4  2 -1</clus>
<clus scale="   35.490">  1  3  2 -1</clus>
</clustering>
</event>
<event>
 6    0  0.7442036E+002  0.5951320E+03  0.7546771E-02  0.9915557E-01
         21   -1    0    0  506  501  0.00000000000E+00  0.00000000000E+00  0.20250984511E+04  0.20250984511E+04  0.00000000000E+00 0.  1.
         21   -1    0    0  505  502 -0.00000000000E+00 -0.00000000000E+00 -0.58048647327E+03  0.58048647327E+03  0.00000000000E+00 0.  1.
         21    1    1    2  503  502 -0.63955415534E+03 -0.12250365723E+03  0.52066920095E+03  0.83374641257E+03  0.00000000000E+00 0.  1.
         21    1    1    2  504  501  0.11469565515E+03 -0.94596246780E+02  0.32919815969E+03  0.36121319406E+03  0.00000000000E+00 0.  1.
         21    1    1    2  505  504  0.52267234029E+03  0.25897109355E+03 -0.19858491569E+03  0.61618858423E+03  0.00000000000E+00 0.  1.
         21    1    1    2  506  503  0.21861598996E+01 -0.41871189539E+02  0.79332953292E+03  0.79443673354E+03  0.00000000000E+00 0.  1.
<scales pt_clust_3="14000.00000" pt_clust_4="156.85478" pt_clust_5="595.13200" pt_clust_6="41.92822"></scales>
<clustering>
<clus scale="   41.928">  1  6  2 -1</clus>
<clus scale="  156.855">  1  4  2 -1</clus>
<clus scale="  595.132">  2  5  1 -1</clus>
<clus scale="   41.928">  1  3  2 -1</clus>
</clustering>
</event>
<event>
 6    0  0.7442036E+002  0.1814041E+03  0.7546771E-02  0.1166451E+00
         21   -1    0    0  504  501  0.00000000000E+00  0.00000000000E+00  0.64315933012E+03  0.64315933012E+03  0.00000000000E+00 0.  1.
         21   -1    0    0  506  502 -0.00000000000E+00 -0.00000000000E+00 -0.16134452822E+04  0.16134452822E+04  0.00000000000E+00 0. -1.
         21    1    1    2  503  501  0.28414603496E+02  0.11095212745E+02  0.26059197112E+03  0.26237124242E+03  0.00000000000E+00 0.  1.
         21    1    1    2  504  502 -0.26239470135E+02 -0.12487748649E+03 -0.77621503028E+03  0.78663375827E+03  0.00000000000E+00 0. -1.
         21    1    1    2  505  503 -0.58363421583E+02  0.16988252512E+03  0.35298320476E+03  0.39605997547E+03  0.00000000000E+00 0.  1.
         21    1    1    2  506  505  0.56188288222E+02 -0.56100251375E+02 -0.80764609766E+03  0.81153963613E+03  0.00000000000E+00 0. -1.
<scales pt_clust_3="30.50399" pt_clust_4="14000.00000" pt_clust_5="181.40414" pt_clust_6="79.46272"></scales>
<clustering>
<clus scale="   30.504">  1  3  2 -1</clus>
<clus scale="   79.463">  2  6  1 -1</clus>
<clus scale="  181.404">  1  5  2 -1</clus>
<clus scale="   30.504">  1  3  2 -1</clus>
</clustering>
</event>
<event>
 6    0  0.7442036E+002  0.9100130E+02  0.7546771E-02  0.1300445E+00
         21   -1    0    0  506  501  0.00000000000E+00  0.00000000000E+00  0.72776460358E+02  0.72776460358E+02  0.00000000000E+00 0.  1.
         21   -1    0    0  505  502 -0.00000000000E+00 -0.00000000000E+00 -0.17499182037E+04  0.17499182037E+04  0.00000000000E+00 0.  1.
         21    1    1    2  503  501  0.79728364503E+01  0.36314480738E+02  0.19110318542E+02  0.41803252350E+02  0.00000000000E+00 0.  1.
         21    1    1    2  504  502  0.10963367447E+02  0.35641195566E+02 -0.36313563921E+03  0.36504517900E+03  0.00000000000E+00 0. -1.
         21    1    1    2  505  503 -0.70937740533E+02 -0.10273198424E+03 -0.55201687363E+02  0.13650366261E+03  0.00000000000E+00 0.  1.
         21    1    1    2  506  504  0.52001536636E+02  0.30776307934E+02 -0.12779147353E+04  0.12793425701E+04  0.00000000000E+00 0.  1.
<scales pt_clust_3="37.17940" pt_clust_4="38.12530" pt_clust_5="14000.00000" pt_clust_6="91.00130"></scales>
<clustering>
<clus scale="   37.179">  1  3  2 -1</clus>
<clus scale="   38.125">  2  4  1 -1</clus>
<clus scale="   91.001">  2  6  1 -1</clus>
<clus scale="   37.179">  1  3  2 -1</clus>
</clustering>
</event>
<event>
 6    0  0.7442036E+002  0.1092513E+03  0.7546771E-02  0.1261963E+00
         21   -1    0    0  505  501  0.00000000000E+00  0.00000000000E+00  0.14771617446E+04  0.14771617446E+04  0.00000000000E+00 0. -1.
         21   -1    0    0  503  502 -0.00000000000E+00 -0.00000000000E+00 -0.17446501341E+03  0.17446501341E+03  0.00000000000E+00 0. -1.
         21    1    1    2  503  501 -0.93561503155E+02 -0.24660933721E+02 -0.19943203017E+02  0.98790930106E+02  0.00000000000E+00 0. -1.
         21    1    1    2  504  502  0.12373905120E+01  0.45671338013E+02 -0.23189531501E+02  0.51236282285E+02  0.00000000000E+00 0. -1.
         21    1    1    2  505  506 -0.29008288677E+02 -0.72169953632E+02  0.13661511326E+04  0.13683635848E+04  0.00000000000E+00 0. -1.
         21    1    1    2  506  504  0.12133240132E+03  0.51159549341E+02 -0.20321666963E+02  0.13323596079E+03  0.00000000000E+00 0. -1.
<scales pt_clust_3="109.25125" pt_clust_4="45.68810" pt_clust_5="77.43648" pt_clust_6="14000.00000"></scales>
<clustering>
<clus scale="   45.688">  2  4  1 -1</clus>
<clus scale="   77.436">  1  5  2 -1</clus>
<clus scale="  109.251">  2  3  1 -1</clus>
<clus scale="   77.436">  1  3  2 -1</clus>
</clustering>
</event>
<event>
 6    0  0.7442036E+002  0.4295249E+03  0.7546771E-02  0.1034010E+00
         21   -1    0    0  503  501  0.00000000000E+00  0.00000000000E+00  0.13887160002E+04  0.13887160002E+04  0.00000000000E+00 0. -1.
         21   -1    0    0  504  502 -0.00000000000E+00 -0.00000000000E+00 -0.37713451147E+03  0.37713451147E+03  0.00000000000E+00 0. -1.
         21    1    1    2  503  505  0.35934953688E+03  0.23394198856E+03 -0.11568051424E+03  0.44412039476E+03  0.00000000000E+00 0. -1.
         21    1    1    2  504  506 -0.40579372130E+01 -0.53961248868E+02  0.26523929949E+02  0.60264434734E+02  0.00000000000E+00 0. -1.
         21    1    1    2  505  502 -0.61776374105E+00  0.62505960797E+02 -0.16342905318E+02  0.64610117794E+02  0.00000000000E+00 0.  1.
         21    1    1    2  506  501 -0.35467383592E+03 -0.24248670049E+03  0.11170809783E+04  0.11968555644E+04  0.00000000000E+00 0. -1.
<scales pt_clust_3="429.52488" pt_clust_4="54.11361" pt_clust_5="56.45350" pt_clust_6="14000.00000"></scales>
<clustering>
<clus scale="   54.114">  2  4  1 -1</clus>
<clus scale="   56.454">  2  5  1 -1</clus>
<clus scale="  429.525">  2  3  1 -1</clus>
<clus scale="  429.525">  1  3  2 -1</clus>
</clustering>
</event>
<event>
 6    0  0.7442036E+002  0.1701764E+03  0.7546771E-02  0.1177664E+00
         21   -1    0    0  505  501  0.00000000000E+00  0.00000000000E+00  0.51489760957E+02  0.51489760957E+02  0.00000000000E+00 0. -1.
         21   -1    0    0  504  502 -0.00000000000E+00 -0.00000000000E+00 -0.12573399459E+04  0.12573399459E+04  0.00000000000E+00 0.  1.
         21    1    1    2  503  501 -0.31158960947E+02 -0.98081264312E+00 -0.15854570979E+02  0.34974422964E+02  0.00000000000E+00 0.  1.
         21    1    1    2  504  506 -0.95478209050E+02 -0.15334765369E+03 -0.77856723039E+03  0.79924872445E+03  0.00000000000E+00 0.  1.
         21    1    1    2  505  502  0.26627982373E+02  0.34313761933E+02 -0.11031951371E+02  0.44812806811E+02  0.00000000000E+00 0. -1.
         21    1    1    2  506  503  0.10000918762E+03  0.12001470440E+03 -0.40039643219E+03  0.42979375262E+03  0.00000000000E+00 0. -1.
<scales pt_clust_3="31.17439" pt_clust_4="170.17638" pt_clust_5="36.72355" pt_clust_6="14000.00000"></scales>
<clustering>
<clus scale="   31.174">  1  3  2 -1</clus>
<clus scale="   36.724">  1  5  2 -1</clus>
<clus scale="  170.176">  2  4  1 -1</clus>
<clus scale="   31.174">  1  3  2 -1</clus>
</clustering>
</event>
<event>
 6    0  0.7442036E+002  0.1185837E+03  0.7546771E-02  0.1245452E+00
         21   -1    0    0  505  501  0.00000000000E+00  0.00000000000E+00  0.32389658380E+03  0.32389658380E+03  0.00000000000E+00 0.  1.
         21   -1    0    0  506  502 -0.00000000000E+00 -0.00000000000E+00 -0.39904601533E+03  0.39904601533E+03  0.00000000000E+00 0. -1.
         21    1    1    2  503  502  0.74442986186E+02  0.45206102648E+01 -0.21560347500E+03  0.22813823122E+03  0.00000000000E+00 0. -1.
         21    1    1    2  504  501 -0.16727373639E+02 -0.42426499843E+02  0.19903906904E+03  0.20419687540E+03  0.00000000000E+00 0.  1.
         21    1    1    2  505  503  0.28286788261E+02  0.36149489982E+02 -0.15484941609E+03  0.16150934858E+03  0.00000000000E+00 0. -1.
         21    1    1    2  506  504 -0.86002400808E+02  0.17563995962E+01  0.96264390521E+02  0.12909814393E+03  0.00000000000E+00 0.  1.
<scales pt_clust_3="38.29224" pt_clust_4="45.60497" pt_clust_5="38.29224" pt_clust_6="108.07253"></scales>
<clustering>
<clus scale="   38.292">  3  5 -1 -1</clus>
<clus scale="   45.605">  1  4  2 -1</clus>
<clus scale="  108.073">  1  6  2 -1</clus>
<clus scale="   45.605">  1  3  2 -1</clus>
</clustering>
</event>
<event>
 6    0  0.7442036E+002  0.7718933E+02  0.7546771E-02  0.1337222E+00
         21   -1    0    0  503  501  0.00000000000E+00  0.00000000000E+00  0.81839225707E+03  0.81839225707E+03  0.00000000000E+00 0.  1.
         21   -1    0    0  504  502 -0.00000000000E+00 -0.00000000000E+00 -0.20790023128E+03  0.20790023128E+03  0.00000000000E+00 0. -1.
         21    1    1    2  503  505 -0.68229465890E+02  0.17772799881E+02  0.64500430773E+02  0.95558557969E+02  0.00000000000E+00 0. -1.
         21    1    1    2  504  506  0.33604059415E+02  0.98626244173E+02 -0.54715705853E+02  0.11768677630E+03  0.00000000000E+00 0. -1.
         21    1    1    2  505  502 -0.67051192425E+02 -0.32567727665E+02 -0.86000440042E+02  0.11380946788E+03  0.00000000000E+00 0. -1.
         21    1    1    2  506  501  0.10167659890E+03 -0.83831316388E+02  0.68670774092E+03  0.69923768621E+03  0.00000000000E+00 0.  1.
<scales pt_clust_3="70.50626" pt_clust_4="14000.00000" pt_clust_5="75.55651" pt_clust_6="77.18933"></scales>
<clustering>
<clus scale="   70.506">  1  3  2 -1</clus>
<clus scale="   75.557">  2  5  1 -1</clus>
<clus scale="   77.189">  1  6  2 -1</clus>
<clus scale="   70.506">  1  3  2 -1</clus>
</clustering>
</event>
<event>
 6    0  0.7442036E+002  0.2333797E+03  0.7546771E-02  0.1124283E+00
         21   -1    0    0  505  501  0.00000000000E+00  0.00000000000E+00  0.15697539072E+03  0.15697539072E+03  0.00000000000E+00 0. -1.
         21   -1    0    0  503  502 -0.00000000000E+00 -0.00000000000E+00 -0.20003736975E+04  0.20003736975E+04  0.00000000000E+00 0.  1.
         21    1    1    2  503  506 -0.62404538193E+02  0.10595292154E+03 -0.10513697876E+04  0.10585361487E+04  0.00000000000E+00 0.  1.
         21    1    1    2  504  501  0.36622371634E+02 -0.23016211712E+03 -0.84112050052E+02  0.24777133657E+03  0.00000000000E+00 0. -1.
         21    1    1    2  505  502  0.40702271486E+02  0.16027460255E+02  0.60636590505E+02  0.74768646467E+02  0.00000000000E+00 0. -1.
         21    1    1    2  506  504 -0.14920104926E+02  0.10818173533E+03 -0.76855305966E+03  0.77627295644E+03  0.00000000000E+00 0.  1.
<scales pt_clust_3="47.95042" pt_clust_4="227.80153" pt_clust_5="43.74419" pt_clust_6="47.95042"></scales>
<clustering>
<clus scale="   43.744">  1  5  2 -1</clus>
<clus scale="   47.950">  3  6 -1 -1</clus>
<clus scale="  227.802">  1  4  2 -1</clus>
<clus scale="   43.744">  1  3  2 -1</clus>
</clustering>
</event>
<event>
 6    0  0.7442036E+002  0.9057742E+02  0.7546771E-02  0.1301459E+00
         21   -1    0    0  506  501  0.00000000000E+00  0.00000000000E+00  0.24645368153E+03  0.24645368153E+03  0.00000000000E+00 0. -1.
         21   -1    0    0  503  502 -0.00000000000E+00 -0.00000000000E+00 -0.41551717453E+03  0.41551717453E+03  0.00000000000E+00 0. -1.
         21    1    1    2  503  505 -0.17219994996E+00 -0.42720469525E+02 -0.28471729521E+03  0.28790450910E+03  0.00000000000E+00 0. -1.
         21    1    1    2  504  502 -0.25496765597E+02  0.11830549761E+03  0.70980795887E+01  0.12122977585E+03  0.00000000000E+00 0. -1.
         21    1    1    2  505  501 -0.44157752632E+02 -0.60721822991E+02 -0.42131262324E+02  0.86093496676E+02  0.00000000000E+00 0. -1.
         21    1    1    2  506  504  0.69826718180E+02 -0.14863205091E+02  0.15068698495E+03  0.16674307443E+03  0.00000000000E+00 0. -1.
<scales pt_clust_3="42.72082" pt_clust_4="14000.00000" pt_clust_5="90.57742" pt_clust_6="71.98015"></scales>
<clustering>
<clus scale="   42.721">  2  3  1 -1</clus>
<clus scale="   71.980">  1  6  2 -1</clus>
<clus scale="   90.577">  2  5  1 -1</clus>
<clus scale="   71.980">  1  3  2 -1</clus>
</clustering>
</event>
<event>
 6    0  0.7442036E+002  0.1083767E+03  0.7546771E-02  0.1263606E+00
         21   -1    0    0  503  501  0.00000000000E+00  0.00000000000E+00  0.46152866602E+03  0.46152866602E+03  0.00000000000E+00 0. -1.
         21   -1    0    0  506  502 -0.00000000000E+00 -0.00000000000E+00 -0.50309149908E+03  0.50309149908E+03  0.00000000000E+00 0. -1.
         21    1    1    2  503  505  0.33943950612E+02 -0.48431663176E+02  0.27864632027E+02  0.65377790564E+02  0.00000000000E+00 0. -1.
         21    1    1    2  504  501  0.74248082698E+02  0.26001903186E+02  0.38846283686E+03  0.39634865002E+03  0.00000000000E+00 0. -1.
         21    1    1    2  505  502 -0.80409193487E+01 -0.49524096968E+02 -0.31999802760E+02  0.59508654338E+02  0.00000000000E+00 0.  1.
         21    1    1    2  506  504 -0.10015111396E+03  0.71953856958E+02 -0.42589049919E+03  0.44338507018E+03  0.00000000000E+00 0. -1.
<scales pt_clust_3="60.63336" pt_clust_4="108.37668" pt_clust_5="50.17263" pt_clust_6="14000.00000"></scales>
<clustering>
<clus scale="   50.173">  2  5  1 -1</clus>
<clus scale="   60.633">  1  3  2 -1</clus>
<clus scale="  108.377">  1  4  2 -1</clus>
<clus scale="   60.633">  1  3  2 -1</clus>
</clustering>
</event>
<event>
 6    0  0.7442036E+002  0.9806578E+02  0.7546771E-02  0.1284417E+00
         21   -1    0    0  505  501  0.00000000000E+00  0.00000000000E+00  0.83695289318E+03  0.83695289318E+03  0.00000000000E+00 0.  1.
         21   -1    0    0  501  502 -0.00000000000E+00 -0.00000000000E+00 -0.36066317160E+02  0.36066317160E+02  0.00000000000E+00 0. -1.
         21    1    1    2  503  506  0.90219857274E+02 -0.12656753156E+02  0.45945896001E+03  0.46840404779E+03  0.00000000000E+00 0.  1.
         21    1    1    2  504  502 -0.62370147511E+01  0.30995541520E+02  0.66232069223E+01  0.32303108474E+02  0.00000000000E+00 0. -1.
         21    1    1    2  505  503  0.36642291289E+01 -0.43858523310E+02  0.22618331362E+03  0.23042544999E+03  0.00000000000E+00 0.  1.
         21    1    1    2  506  504 -0.87647071651E+02  0.25519734945E+02  0.10862109547E+03  0.14188660409E+03  0.00000000000E+00 0. -1.
<scales pt_clust_3="98.06578" pt_clust_4="31.61683" pt_clust_5="41.14451" pt_clust_6="14000.00000"></scales>
<clustering>
<clus scale="   31.617">  2  4  1 -1</clus>
<clus scale="   41.145">  1  5  2 -1</clus>
<clus scale="   98.066">  1  3  2 -1</clus>
<clus scale="   41.145">  1  3  2 -1</clus>
</clustering>
</event>
<event>
 6    0  0.7442036E+002  0.1225837E+03  0.7546771E-02  0.1238895E+00
         21   -1    0    0  506  501  0.00000000000E+00  0.00000000000E+00  0.42711125122E+03  0.42711125122E+03  0.00000000000E+00 0. -1.
         21   -1    0    0  503  502 -0.00000000000E+00 -0.00000000000E+00 -0.10442992250E+04  0.10442992250E+04  0.00000000000E+00 0.  1.
         21    1    1    2  503  505  0.43331020057E+02 -0.85489553136E+02 -0.95946758096E+03  0.96424274947E+03  0.00000000000E+00 0.  1.
         21    1    1    2  504  501  0.27708405144E+02  0.30525474246E+02  0.32908057075E+03  0.33165280390E+03  0.00000000000E+00 0. -1.
         21    1    1    2  505  504 -0.75298631507E+02  0.85420171953E+02  0.52683733458E+02  0.12546738801E+03  0.00000000000E+00 0. -1.
         21    1    1    2  506  502  0.42592063062E+01 -0.30456093063E+02 -0.39484696979E+02  0.50047534790E+02  0.00000000000E+00 0.  1.
<scales pt_clust_3="14000.00000" pt_clust_4="41.20040" pt_clust_5="122.58371" pt_clust_6="30.75247"></scales>
<clustering>
<clus scale="   30.752">  2  6  1 -1</clus>
<clus scale="   41.200">  1  4  2 -1</clus>
<clus scale="  122.584">  1  5  2 -1</clus>
<clus scale="   41.200">  1  3  2 -1</clus>
</clustering>
</event>
<event>
 6    0  0.7442036E+002  0.1256222E+03  0.7546771E-02  0.1234100E+00
         21   -1    0    0  506  501  0.00000000000E+00  0.00000000000E+00  0.19636868810E+03  0.19636868810E+03  0.00000000000E+00 0.  1.
         21   -1    0    0  505  502 -0.00000000000E+00 -0.00000000000E+00 -0.74123864137E+03  0.74123864137E+03  0.00000000000E+00 0.  1.
         21    1    1    2  503  504 -0.69883338142E+02  0.14432101790E+03 -0.18008497556E+02  0.16135843065E+03  0.00000000000E+00 0.  1.
         21    1    1    2  504  502  0.63560828868E+02 -0.17808482360E+03 -0.39814116958E+03  0.44076135751E+03  0.00000000000E+00 0.  1.
         21    1    1    2  505  501 -0.86202332621E+02  0.82288976653E+02 -0.18251263277E+03  0.21797517966E+03  0.00000000000E+00 0.  1.
         21    1    1    2  506  503  0.92524841896E+02 -0.48525170950E+02  0.53792346633E+02  0.11751236165E+03  0.00000000000E+00 0.  1.
<scales pt_clust_3="125.62218" pt_clust_4="14000.00000" pt_clust_5="103.19214" pt_clust_6="104.47745"></scales>
<clustering>
<clus scale="  104.477">  1  6  2 -1</clus>
<clus scale="  103.192">  2  5  1 -1</clus>
<clus scale="  125.622">  1  3  2 -1</clus>
<clus scale="  104.477">  1  3  2 -1</clus>
</clustering>
</event>
<event>
 6    0  0.7442036E+002  0.1288951E+03  0.7546771E-02  0.1229105E+00
         21   -1    0    0  504  501  0.00000000000E+00  0.00000000000E+00  0.55655073851E+03  0.55655073851E+03  0.00000000000E+00 0. -1.
         21   -1    0    0  503  502 -0.00000000000E+00 -0.00000000000E+00 -0.70865030831E+03  0.70865030831E+03  0.00000000000E+00 0.  1.
         21    1    1    2  503  505  0.47263780722E+02 -0.46010330331E+02 -0.63349898866E+02  0.91455044429E+02  0.00000000000E+00 0. -1.
         21    1    1    2  504  506  0.49960187373E+01 -0.11580571714E+03  0.83943565570E+02  0.14311689811E+03  0.00000000000E+00 0. -1.
         21    1    1    2  505  501 -0.42648030519E+02 -0.90404600503E+01  0.41563666773E+03  0.41791676682E+03  0.00000000000E+00 0.  1.
         21    1    1    2  506  502 -0.96117689400E+01  0.17085650752E+03 -0.58832990423E+03  0.61271233746E+03  0.00000000000E+00 0.  1.
<scales pt_clust_3="63.62669" pt_clust_4="14000.00000" pt_clust_5="43.59569" pt_clust_6="128.89506"></scales>
<clustering>
<clus scale="   43.596">  1  5  2 -1</clus>
<clus scale="   63.627">  2  3  1 -1</clus>
<clus scale="  128.895">  2  6  1 -1</clus>
<clus scale="   43.596">  1  3  2 -1</clus>
</clustering>
</event>
<event>
 6    0  0.7442036E+002  0.8695143E+02  0.7546771E-02  0.1310407E+00
         21   -1    0    0  504  501  0.00000000000E+00  0.00000000000E+00  0.17521393770E+03  0.17521393770E+03  0.00000000000E+00 0. -1.
         21   -1    0    0  506  502 -0.00000000000E+00 -0.00000000000E+00 -0.26617678613E+03  0.26617678613E+03  0.00000000000E+00 0. -1.
         21    1    1    2  503  501 -0.26822548458E+02  0.49869411196E+02  0.66651906980E+02  0.87457898345E+02  0.00000000000E+00 0. -1.
         21    1    1    2  504  505  0.28493992301E+02 -0.16464338223E+02  0.45792582016E+02  0.56390979758E+02  0.00000000000E+00 0. -1.
         21    1    1    2  505  502  0.84056717742E+02 -0.42932028914E+02 -0.22361799444E+02  0.96998664829E+02  0.00000000000E+00 0. -1.
         21    1    1    2  506  503 -0.85728161585E+02  0.95269559421E+01 -0.18104553799E+03  0.20054318089E+03  0.00000000000E+00 0. -1.
<scales pt_clust_3="40.68678" pt_clust_4="32.90869" pt_clust_5="86.95143" pt_clust_6="14000.00000"></scales>
<clustering>
<clus scale="   32.909">  1  4  2 -1</clus>
<clus scale="   40.687">  1  3  2 -1</clus>
<clus scale="   86.951">  1  5  2 -1</clus>
<clus scale="   32.909">  1  3  2 -1</clus>
</clustering>
</event>
<event>
 6    0  0.7442036E+002  0.1299586E+03  0.7546771E-02  0.1227517E+00
         21   -1    0    0  505  501  0.00000000000E+00  0.00000000000E+00  0.21897645629E+03  0.21897645629E+03  0.00000000000E+00 0.  1.
         21   -1    0    0  506  502 -0.00000000000E+00 -0.00000000000E+00 -0.77151138792E+03  0.77151138792E+03  0.00000000000E+00 0.  1.
         21    1    1    2  503  502 -0.17919185803E+03 -0.40650488567E+02 -0.62427673571E+03  0.65075619624E+03  0.00000000000E+00 0.  1.
         21    1    1    2  504  501  0.27241356926E+02  0.27182265315E+02 -0.60223126145E+02  0.71468818358E+02  0.00000000000E+00 0. -1.
         21    1    1    2  505  503  0.12348122049E+03 -0.36767040962E+02  0.15888216073E+03  0.20455553797E+03  0.00000000000E+00 0.  1.
         21    1    1    2  506  504  0.28469280612E+02  0.50235264214E+02 -0.26917230514E+02  0.63707291637E+02  0.00000000000E+00 0. -1.
<scales pt_clust_3="14000.00000" pt_clust_4="32.47089" pt_clust_5="129.95859" pt_clust_6="103.33992"></scales>
<clustering>
<clus scale="   32.471">  4  6 -1 -1</clus>
<clus scale="  103.340">  2  4  1 -1</clus>
<clus scale="  129.959">  1  5  2 -1</clus>
<clus scale="  129.959">  1  3  2 -1</clus>
</clustering>
</event>
<event>
 6    0  0.7442036E+002  0.2149795E+03  0.7546771E-02  0.1137682E+00
         21   -1    0    0  506  501  0.00000000000E+00  0.00000000000E+00  0.72760483561E+03  0.72760483561E+03  0.00000000000E+00 0.  1.
         21   -1    0    0  501  502 -0.00000000000E+00 -0.00000000000E+00 -0.10963070617E+03  0.10963070617E+03  0.00000000000E+00 0.  1.
         21    1    1    2  503  504 -0.80848383265E+02  0.17691431054E+02  0.45941337402E+01  0.82888804275E+02  0.00000000000E+00 0.  1.
         21    1    1    2  504  502 -0.11023894312E+03  0.61337489501E+02  0.52160221119E+02  0.13651227368E+03  0.00000000000E+00 0.  1.
         21    1    1    2  505  503  0.19168902590E+03 -0.11305976494E+03  0.45918371671E+03  0.51027137759E+03  0.00000000000E+00 0.  1.
         21    1    1    2  506  505 -0.60169951161E+00  0.34030844389E+02  0.10203605788E+03  0.10756308623E+03  0.00000000000E+00 0. -1.
<scales pt_clust_3="37.34766" pt_clust_4="37.34766" pt_clust_5="209.90561" pt_clust_6="34.03616"></scales>
<clustering>
<clus scale="   34.036">  1  6  2 -1</clus>
<clus scale="   37.348">  3  4 -1 -1</clus>
<clus scale="  209.906">  1  5  2 -1</clus>
<clus scale="   34.036">  1  3  2 -1</clus>
</clustering>
</event>
<event>
 6    0  0.7442036E+002  0.7584307E+02  0.7546771E-02  0.1341280E+00
         21   -1    0    0  503  501  0.00000000000E+00  0.00000000000E+00  0.34143332226E+02  0.34143332226E+02  0.00000000000E+00 0. -1.
         21   -1    0    0  505  502 -0.00000000000E+00 -0.00000000000E+00 -0.13068037810E+04  0.13068037810E+04  0.00000000000E+00 0. -1.
         21    1    1    2  503  506  0.21170772183E+02 -0.38605914060E+02 -0.10917197227E+03  0.11771634434E+03  0.00000000000E+00 0. -1.
         21    1    1    2  504  501 -0.89852158425E+01  0.11922141028E+03 -0.10258383642E+03  0.15753705046E+03  0.00000000000E+00 0. -1.
         21    1    1    2  505  504 -0.34440779271E+02 -0.32078258888E+02 -0.54782828707E+03  0.54984635497E+03  0.00000000000E+00 0. -1.
         21    1    1    2  506  502  0.22255222930E+02 -0.48537237328E+02 -0.51307635302E+03  0.51584736345E+03  0.00000000000E+00 0. -1.
<scales pt_clust_3="44.02974" pt_clust_4="75.84307" pt_clust_5="47.45314" pt_clust_6="14000.00000"></scales>
<clustering>
<clus scale="   44.030">  1  3  2 -1</clus>
<clus scale="   47.453">  2  5  1 -1</clus>
<clus scale="   75.843">  1  4  2 -1</clus>
<clus scale="   44.030">  1  3  2 -1</clus>
</clustering>
</event>
<event>
 6    0  0.7442036E+002  0.1058364E+03  0.7546771E-02  0.1268480E+00
         21   -1    0    0  505  501  0.00000000000E+00  0.00000000000E+00  0.34237888073E+02  0.34237888073E+02  0.00000000000E+00 0. -1.
         21   -1    0    0  504  502 -0.00000000000E+00 -0.00000000000E+00 -0.76205090310E+03  0.76205090310E+03  0.00000000000E+00 0. -1.
         21    1    1    2  503  502  0.66753634585E+02  0.89952291719E+02 -0.18894493036E+03  0.21965347533E+03  0.00000000000E+00 0. -1.
         21    1    1    2  504  506 -0.26811310468E+02 -0.14633918779E+02 -0.25309185257E+03  0.25492838953E+03  0.00000000000E+00 0. -1.
         21    1    1    2  505  503  0.38338777120E+02 -0.14681313935E+02 -0.42689947775E+02  0.59226974015E+02  0.00000000000E+00 0. -1.
         21    1    1    2  506  501 -0.78281101237E+02 -0.60637059005E+02 -0.24308628432E+03  0.26247995230E+03  0.00000000000E+00 0. -1.
<scales pt_clust_3="14000.00000" pt_clust_4="30.54502" pt_clust_5="39.13671" pt_clust_6="105.83642"></scales>
<clustering>
<clus scale="   30.545">  2  4  1 -1</clus>
<clus scale="   39.137">  1  5  2 -1</clus>
<clus scale="  105.836">  1  6  2 -1</clus>
<clus scale="   39.137">  1  3  2 -1</clus>
</clustering>
</event>
<event>
 6    0  0.7442036E+002  0.1335884E+03  0.7546771E-02  0.1222226E+00
         21   -1    0    0  505  501  0.00000000000E+00  0.00000000000E+00  0.17249196105E+03  0.17249196105E+03  0.00000000000E+00 0. -1.
         21   -1    0    0  503  502 -0.00000000000E+00 -0.00000000000E+00 -0.26696842926E+04  0.26696842926E+04  0.00000000000E+00 0. -1.
         21    1    1    2  503  506  0.21696037574E+02  0.28616987739E+02 -0.88143816720E+02  0.95178687003E+02  0.00000000000E+00 0. -1.
         21    1    1    2  504  501  0.12611062605E+03  0.73335714698E+02  0.10303031946E+03  0.17859805089E+03  0.00000000000E+00 0. -1.
         21    1    1    2  505  502 -0.36523075408E+02 -0.11010845241E+03 -0.24225880232E+04  0.24253640008E+04  0.00000000000E+00 0. -1.
         21    1    1    2  506  504 -0.11128358822E+03  0.81557499777E+01 -0.89490811081E+02  0.14303551493E+03  0.00000000000E+00 0. -1.
<scales pt_clust_3="35.91170" pt_clust_4="133.58840" pt_clust_5="84.74931" pt_clust_6="14000.00000"></scales>
<clustering>
<clus scale="   35.912">  2  3  1 -1</clus>
<clus scale="   84.749">  2  5  1 -1</clus>
<clus scale="  133.588">  1  4  2 -1</clus>
<clus scale="  133.588">  1  3  2 -1</clus>
</clustering>
</event>
<event>
 6    0  0.7442036E+002  0.1407182E+03  0.7546771E-02  0.1212366E+00
         21   -1    0    0  502  501  0.00000000000E+00  0.00000000000E+00  0.34465361120E+03  0.34465361120E+03  0.00000000000E+00 0. -1.
         21   -1    0    0  505  502 -0.00000000000E+00 -0.00000000000E+00 -0.32660346627E+03  0.32660346627E+03  0.00000000000E+00 0. -1.
         21    1    1    2  503  506 -0.97994451399E+02 -0.87217410230E+01  0.24993606626E+03  0.26860197037E+03  0.00000000000E+00 0. -1.
         21    1    1    2  504  503  0.91918262142E+02 -0.46485873940E+01 -0.44087066527E+02  0.10205021173E+03  0.00000000000E+00 0. -1.
         21    1    1    2  505  504  0.43157740075E+02 -0.69393814446E+01 -0.23395970582E+03  0.23800817106E+03  0.00000000000E+00 0. -1.
         21    1    1    2  506  501 -0.37081550819E+02  0.20309709861E+02  0.46160851019E+02  0.62596724296E+02  0.00000000000E+00 0.  1.
<scales pt_clust_3="39.54755" pt_clust_4="127.13075" pt_clust_5="43.71208" pt_clust_6="39.54755"></scales>
<clustering>
<clus scale="   39.548">  3  6 -1 -1</clus>
<clus scale="   43.712">  2  5  1 -1</clus>
<clus scale="  127.131">  2  4  1 -1</clus>
<clus scale="  140.718">  1  3  2 -1</clus>
</clustering>
</event>
<event>
 6    0  0.7442036E+002  0.9009214E+02  0.7546771E-02  0.1302629E+00
         21   -1    0    0  504  501  0.00000000000E+00  0.00000000000E+00  0.25498107267E+03  0.25498107267E+03  0.00000000000E+00 0. -1.
         21   -1    0    0  506  502 -0.00000000000E+00 -0.00000000000E+00 -0.91751993012E+03  0.91751993012E+03  0.00000000000E+00 0. -1.
         21    1    1    2  503  505 -0.59335234352E+02  0.36940548683E+02  0.16465875385E+03  0.17887923131E+03  0.00000000000E+00 0. -1.
         21    1    1    2  504  502  0.13166462027E+03  0.51548791602E+02 -0.76768949653E+03  0.78060234001E+03  0.00000000000E+00 0. -1.
         21    1    1    2  505  501 -0.30263061082E+02 -0.15038294941E+02  0.58639570681E+02  0.67680147978E+02  0.00000000000E+00 0.  1.
         21    1    1    2  506  503 -0.42066324833E+02 -0.73451045344E+02 -0.11814768545E+03  0.14533928349E+03  0.00000000000E+00 0. -1.
<scales pt_clust_3="14000.00000" pt_clust_4="90.09214" pt_clust_5="33.79354" pt_clust_6="86.64531"></scales>
<clustering>
<clus scale="   33.794">  1  5  2 -1</clus>
<clus scale="   86.645">  2  6  1 -1</clus>
<clus scale="   90.092">  2  4  1 -1</clus>
<clus scale="   33.794">  1  3  2 -1</clus>
</clustering>
</event>
<event>
 6    0  0.7442036E+002  0.1181970E+03  0.7546771E-02  0.1246101E+00
         21   -1    0    0  504  501  0.00000000000E+00  0.00000000000E+00  0.22727658826E+04  0.22727658826E+04  0.00000000000E+00 0.  1.
         21   -1    0    0  501  502 -0.00000000000E+00 -0.00000000000E+00 -0.25040542942E+03  0.25040542942E+03  0.00000000000E+00 0. -1.
         21    1    1    2  503  502  0.11327711390E+02  0.59818626460E+02 -0.90468400216E+02  0.10904639634E+03  0.00000000000E+00 0. -1.
         21    1    1    2  504  505 -0.53373645156E+02 -0.29799322664E+02  0.19229289426E+04  0.19239003258E+04  0.00000000000E+00 0.  1.
         21    1    1    2  505  506  0.52223358836E+02 -0.84643261357E+02  0.32726669096E+03  0.34204568103E+03  0.00000000000E+00 0.  1.
         21    1    1    2  506  503 -0.10177425070E+02  0.54623957562E+02 -0.13736678015E+03  0.14817890879E+03  0.00000000000E+00 0. -1.
<scales pt_clust_3="32.50311" pt_clust_4="61.12893" pt_clust_5="113.19440" pt_clust_6="32.50311"></scales>
<clustering>
<clus scale="   32.503">  3  6 -1 -1</clus>
<clus scale="   61.129">  1  4  2 -1</clus>
<clus scale="  113.194">  1  5  2 -1</clus>
<clus scale="   61.129">  1  3  2 -1</clus>
</clustering>
</event>
<event>
 6    0  0.7442036E+002  0.1597119E+03  0.7546771E-02  0.1189022E+00
         21   -1    0    0  503  501  0.00000000000E+00  0.00000000000E+00  0.28462737670E+03  0.28462737670E+03  0.00000000000E+00 0. -1.
         21   -1    0    0  506  502 -0.00000000000E+00 -0.00000000000E+00 -0.38690092779E+03  0.38690092779E+03  0.00000000000E+00 0.  1.
         21    1    1    2  503  502  0.14856200824E+03 -0.96738497528E+02 -0.88845147679E+02  0.19829893460E+03  0.00000000000E+00 0.  1.
         21    1    1    2  504  501  0.29901944466E+02  0.17007758902E+02  0.10948194384E+03  0.11475925311E+03  0.00000000000E+00 0. -1.
         21    1    1    2  505  504 -0.20860970323E+02  0.68024564150E+02  0.76206508878E+02  0.10425906870E+03  0.00000000000E+00 0. -1.
         21    1    1    2  506  505 -0.15760298238E+03  0.11706174476E+02 -0.19911685613E+03  0.25421104809E+03  0.00000000000E+00 0. -1.
<scales pt_clust_3="14000.00000" pt_clust_4="34.40044" pt_clust_5="77.09771" pt_clust_6="159.71185"></scales>
<clustering>
<clus scale="   34.400">  1  4  2 -1</clus>
<clus scale="   77.098">  1  5  2 -1</clus>
<clus scale="  159.712">  2  6  1 -1</clus>
<clus scale="   34.400">  1  3  2 -1</clus>
</clustering>
</event>
<event>
 6    0  0.7442036E+002  0.1594987E+03  0.7546771E-02  0.1189264E+00
         21   -1    0    0  502  501  0.00000000000E+00  0.00000000000E+00  0.25576234241E+02  0.25576234241E+02  0.00000000000E+00 0. -1.
         21   -1    0    0  505  502 -0.00000000000E+00 -0.00000000000E+00 -0.16847956934E+04  0.16847956934E+04  0.00000000000E+00 0.  1.
         21    1    1    2  503  504  0.11195249780E+03 -0.12037225271E+03 -0.55176469138E+03  0.57573180878E+03  0.00000000000E+00 0. -1.
         21    1    1    2  504  501 -0.67513181201E+02 -0.29712856932E+02 -0.20163455874E+03  0.21470300133E+03  0.00000000000E+00 0. -1.
         21    1    1    2  505  506 -0.23656123959E+02  0.86058779890E+02 -0.41246805673E+03  0.42201377184E+03  0.00000000000E+00 0. -1.
         21    1    1    2  506  503 -0.20783192641E+02  0.64026329754E+02 -0.49335215232E+03  0.49792334570E+03  0.00000000000E+00 0.  1.
<scales pt_clust_3="155.45476" pt_clust_4="73.76234" pt_clust_5="30.99387" pt_clust_6="30.99387"></scales>
<clustering>
<clus scale="   30.994">  5  6 -1 -1</clus>
<clus scale="   73.762">  1  4  2 -1</clus>
<clus scale="  155.455">  1  3  2 -1</clus>
<clus scale="   73.762">  1  3  2 -1</clus>
</clustering>
</event>
<event>
 6    0  0.7442036E+002  0.1328497E+03  0.7546771E-02  0.1223287E+00
         21   -1    0    0  504  501  0.00000000000E+00  0.00000000000E+00  0.16867691101E+03  0.16867691101E+03  0.00000000000E+00 0.  1.
         21   -1    0    0  505  502 -0.00000000000E+00 -0.00000000000E+00 -0.32920550447E+03  0.32920550447E+03  0.00000000000E+00 0.  1.
         21    1    1    2  503  501  0.10139259160E+03 -0.94976268188E+02  0.74880323818E+02  0.15782272348E+03  0.00000000000E+00 0.  1.
         21    1    1    2  504  502  0.34932641393E+02  0.52077266915E+01 -0.16083546062E+02  0.38808379326E+02  0.00000000000E+00 0.  1.
         21    1    1    2  505  506 -0.86399293670E+02 -0.11466253973E+02 -0.59282301027E+02  0.10540732490E+03  0.00000000000E+00 0.  1.
         21    1    1    2  506  503 -0.49925939325E+02  0.10123479547E+03 -0.16004307019E+03  0.19584398778E+03  0.00000000000E+00 0.  1.
<scales pt_clust_3="14000.00000" pt_clust_4="35.31869" pt_clust_5="77.52038" pt_clust_6="132.84974"></scales>
<clustering>
<clus scale="   35.319">  2  4  1 -1</clus>
<clus scale="   77.520">  2  5  1 -1</clus>
<clus scale="  132.850">  2  6  1 -1</clus>
<clus scale="  132.850">  1  3  2 -1</clus>
</clustering>
</event>
<event>
 6    0  0.7442036E+002  0.1057929E+03  0.7546771E-02  0.1268565E+00
         21   -1    0    0  506  501  0.00000000000E+00  0.00000000000E+00  0.26019578001E+03  0.26019578001E+03  0.00000000000E+00 0. -1.
         21   -1    0    0  504  502 -0.00000000000E+00 -0.00000000000E+00 -0.66138215688E+03  0.66138215688E+03  0.00000000000E+00 0. -1.
         21    1    1    2  503  505 -0.15430791383E+03 -0.61083953500E+02  0.16540577164E+03  0.23431015970E+03  0.00000000000E+00 0. -1.
         21    1    1    2  504  503  0.20496673691E+02  0.23082600529E+02 -0.38260036663E+02  0.49160456518E+02  0.00000000000E+00 0. -1.
         21    1    1    2  505  501  0.56697030930E+02  0.22161815068E+02  0.34382102830E+02  0.69913005646E+02  0.00000000000E+00 0. -1.
         21    1    1    2  506  502  0.77114209212E+02  0.15839537903E+02 -0.56271421468E+03  0.56819431502E+03  0.00000000000E+00 0. -1.
<scales pt_clust_3="14000.00000" pt_clust_4="30.86940" pt_clust_5="61.66654" pt_clust_6="105.79294"></scales>
<clustering>
<clus scale="   30.869">  2  4  1 -1</clus>
<clus scale="   61.667">  1  5  2 -1</clus>
<clus scale="  105.793">  2  6  1 -1</clus>
<clus scale="   61.667">  1  3  2 -1</clus>
</clustering>
</event>
<event>
 6    0  0.7442036E+002  0.1727451E+03  0.7546771E-02  0.1175015E+00
         21   -1    0    0  504  501  0.00000000000E+00  0.00000000000E+00  0.17692985684E+03  0.17692985684E+03  0.00000000000E+00 0. -1.
         21   -1    0    0  506  502 -0.00000000000E+00 -0.00000000000E+00 -0.31513620768E+03  0.31513620768E+03  0.00000000000E+00 0. -1.
         21    1    1    2  503  505  0.71383939220E+02 -0.43412139806E+02 -0.63625438088E+02  0.10501655599E+03  0.00000000000E+00 0.  1.
         21    1    1    2  504  503 -0.17915025512E+03  0.76863058246E+02 -0.54278522651E+02  0.20235834960E+03  0.00000000000E+00 0. -1.
         21    1    1    2  505  502  0.72398843566E+02  0.18424239015E+02 -0.71703747065E+02  0.10354937217E+03  0.00000000000E+00 0. -1.
         21    1    1    2  506  501  0.35367472334E+02 -0.51875157455E+02  0.51401356963E+02  0.81141786756E+02  0.00000000000E+00 0. -1.
<scales pt_clust_3="58.96126" pt_clust_4="161.09929" pt_clust_5="58.96126" pt_clust_6="62.78447"></scales>
<clustering>
<clus scale="   58.961">  3  5 -1 -1</clus>
<clus scale="   62.784">  1  6  2 -1</clus>
<clus scale="  161.099">  1  4  2 -1</clus>
<clus scale="   62.784">  1  3  2 -1</clus>
</clustering>
</event>
<event>
 6    0  0.1047204E+003  0.1019761E+03  0.7546771E-02  0.1276194E+00
         21   -1    0    0  505  501  0.00000000000E+00  0.00000000000E+00  0.31502280490E+03  0.31502280490E+03  0.00000000000E+00 0.  1.
         21   -1    0    0  503  502 -0.00000000000E+00 -0.00000000000E+00 -0.75473386173E+03  0.75473386173E+03  0.00000000000E+00 0. -1.
         21    1    1    2  503  506  0.36717728865E+02  0.14579414012E+02 -0.97986885966E+02  0.10565122218E+03  0.00000000000E+00 0. -1.
         21    1    1    2  504  501  0.56308482991E+02 -0.52564506953E+01  0.29804986712E+03  0.30336776167E+03  0.00000000000E+00 0.  1.
         21    1    1    2  505  502 -0.12681216832E+03  0.68088754657E+01 -0.51787078186E+03  0.53321462238E+03  0.00000000000E+00 0. -1.
         21    1    1    2  506  504  0.33785956462E+02 -0.16131838782E+02 -0.12190325613E+03  0.12752306039E+03  0.00000000000E+00 0. -1.
<scales pt_clust_3="31.47545" pt_clust_4="56.55330" pt_clust_5="96.71471" pt_clust_6="31.47545"></scales>
<clustering>
<clus scale="   31.475">  3  6 -1 -1</clus>
<clus scale="   56.553">  1  4  2 -1</clus>
<clus scale="   96.715">  1  5  2 -1</clus>
<clus scale="   56.553">  1  3  2 -1</clus>
</clustering>
</event>
<event>
 6    0  0.7442036E+002  0.6845646E+02  0.7546771E-02  0.1365422E+00
         21   -1    0    0  506  501  0.00000000000E+00  0.00000000000E+00  0.90373734832E+03  0.90373734832E+03  0.00000000000E+00 0. -1.
         21   -1    0    0  504  502 -0.00000000000E+00 -0.00000000000E+00 -0.64238282369E+02  0.64238282369E+02  0.00000000000E+00 0. -1.
         21    1    1    2  503  505 -0.99122040253E+01 -0.11037282486E+03  0.23822157674E+03  0.26273547892E+03  0.00000000000E+00 0. -1.
         21    1    1    2  504  503 -0.70509452620E+02  0.27960125504E+02 -0.52687247912E+01  0.76033617485E+02  0.00000000000E+00 0. -1.
         21    1    1    2  505  501  0.23584950930E+02  0.54947446909E+02  0.51227210993E+03  0.51575012016E+03  0.00000000000E+00 0. -1.
         21    1    1    2  506  502  0.56836705716E+02  0.27465252446E+02  0.94274104068E+02  0.11345641413E+03  0.00000000000E+00 0. -1.
<scales pt_clust_3="75.24099" pt_clust_4="68.45646" pt_clust_5="59.79525" pt_clust_6="14000.00000"></scales>
<clustering>
<clus scale="   59.795">  1  5  2 -1</clus>
<clus scale="   75.241">  1  3  2 -1</clus>
<clus scale="   68.456">  2  4  1 -1</clus>
<clus scale="   59.795">  1  3  2 -1</clus>
</clustering>
</event>
<event>
 6    0  0.7442036E+002  0.1351893E+03  0.7546771E-02  0.1219953E+00
         21   -1    0    0  502  501  0.00000000000E+00  0.00000000000E+00  0.44734606491E+03  0.44734606491E+03  0.00000000000E+00 0.  1.
         21   -1    0    0  505  502 -0.00000000000E+00 -0.00000000000E+00 -0.16123569528E+03  0.16123569528E+03  0.00000000000E+00 0.  1.
         21    1    1    2  503  501  0.13789097501E+02 -0.27692545129E+02  0.29543426951E+03  0.29704953099E+03  0.00000000000E+00 0.  1.
         21    1    1    2  504  506  0.30968690934E+02  0.54952098918E+02 -0.23655502600E+02  0.67367468388E+02  0.00000000000E+00 0.  1.
         21    1    1    2  505  504  0.60361138759E+02  0.36106874690E+02 -0.66825232623E+02  0.97019509313E+02  0.00000000000E+00 0.  1.
         21    1    1    2  506  503 -0.10511892719E+03 -0.63366428480E+02  0.81156835351E+02  0.14714525149E+03  0.00000000000E+00 0.  1.
<scales pt_clust_3="30.93568" pt_clust_4="43.65284" pt_clust_5="43.65284" pt_clust_6="126.77819"></scales>
<clustering>
<clus scale="   30.936">  1  3  2 -1</clus>
<clus scale="   43.653">  4  5 -1 -1</clus>
<clus scale="  126.778">  1  6  2 -1</clus>
<clus scale="   30.936">  1  3  2 -1</clus>
</clustering>
</event>
<event>
 6    0  0.7442036E+002  0.7416774E+02  0.7546771E-02  0.1346468E+00
         21   -1    0    0  506  501  0.00000000000E+00  0.00000000000E+00  0.36856856314E+03  0.36856856314E+03  0.00000000000E+00 0. -1.
         21   -1    0    0  505  502 -0.00000000000E+00 -0.00000000000E+00 -0.25620576639E+03  0.25620576639E+03  0.00000000000E+00 0.  1.
         21    1    1    2  503  502  0.78800695944E+02 -0.13458076059E+02 -0.19055306601E+03  0.20664254271E+03  0.00000000000E+00 0.  1.
         21    1    1    2  504  501 -0.33965747178E+02  0.26213699722E+02  0.21517235365E+03  0.21940823095E+03  0.00000000000E+00 0. -1.
         21    1    1    2  505  504 -0.34967507167E+02  0.65692324170E+02 -0.76633177094E+01  0.74812662368E+02  0.00000000000E+00 0.  1.
         21    1    1    2  506  503 -0.98674415982E+01 -0.78447947832E+02  0.95406826821E+02  0.12391089349E+03  0.00000000000E+00 0. -1.
<scales pt_clust_3="14000.00000" pt_clust_4="42.90490" pt_clust_5="74.16774" pt_clust_6="68.72629"></scales>
<clustering>
<clus scale="   42.905">  1  4  2 -1</clus>
<clus scale="   68.726">  1  6  2 -1</clus>
<clus scale="   74.168">  1  5  2 -1</clus>
<clus scale="   42.905">  1  3  2 -1</clus>
</clustering>
</event>
<event>
 6    0  0.7442036E+002  0.9800067E+02  0.7546771E-02  0.1284557E+00
         21   -1    0    0  506  501  0.00000000000E+00  0.00000000000E+00  0.16379303396E+04  0.16379303396E+04  0.00000000000E+00 0. -1.
         21   -1    0    0  504  502 -0.00000000000E+00 -0.00000000000E+00 -0.10713365464E+03  0.10713365464E+03  0.00000000000E+00 0. -1.
         21    1    1    2  503  502 -0.34311909990E+01 -0.57862325848E+02  0.48732023085E+01  0.58168461600E+02  0.00000000000E+00 0.  1.
         21    1    1    2  504  501 -0.24645362905E+02 -0.89229440485E+02  0.78693336618E+03  0.79235939432E+03  0.00000000000E+00 0. -1.
         21    1    1    2  505  503  0.80316822704E+02  0.33116470834E+02 -0.46886611197E+02  0.98721056312E+02  0.00000000000E+00 0. -1.
         21    1    1    2  506  505 -0.52240268800E+02  0.11397529550E+03  0.78587672762E+03  0.79581508197E+03  0.00000000000E+00 0. -1.
<scales pt_clust_3="57.96397" pt_clust_4="14000.00000" pt_clust_5="79.57005" pt_clust_6="98.00067"></scales>
<clustering>
<clus scale="   57.964">  2  3  1 -1</clus>
<clus scale="   79.570">  2  5  1 -1</clus>
<clus scale="   98.001">  2  6  1 -1</clus>
<clus scale="   98.001">  1  3  2 -1</clus>
</clustering>
</event>
<event>
 6    0  0.7442036E+002  0.1122960E+03  0.7546771E-02  0.1256376E+00
         21   -1    0    0  506  501  0.00000000000E+00  0.00000000000E+00  0.67286509242E+03  0.67286509242E+03  0.00000000000E+00 0.  1.
         21   -1    0    0  503  502 -0.00000000000E+00 -0.00000000000E+00 -0.10459852369E+03  0.10459852369E+03  0.00000000000E+00 0.  1.
         21    1    1    2  503  505 -0.11104352474E+02  0.95366252909E+02  0.11658110536E+03  0.15102709348E+03  0.00000000000E+00 0.  1.
         21    1    1    2  504  502  0.45455420475E+02 -0.41762656643E+02 -0.44837123508E+02  0.76293396732E+02  0.00000000000E+00 0.  1.
         21    1    1    2  505  501 -0.61484864767E+02 -0.11339726706E+02  0.49599099668E+03  0.49991603973E+03  0.00000000000E+00 0.  1.
         21    1    1    2  506  504  0.27133796766E+02 -0.42263869560E+02  0.53159020580E+00  0.50227086171E+02  0.00000000000E+00 0.  1.
<scales pt_clust_3="104.38193" pt_clust_4="37.35282" pt_clust_5="62.52182" pt_clust_6="37.35282"></scales>
<clustering>
<clus scale="   37.353">  4  6 -1 -1</clus>
<clus scale="   62.522">  1  5  2 -1</clus>
<clus scale="  104.382">  1  3  2 -1</clus>
<clus scale="   62.522">  1  3  2 -1</clus>
</clustering>
</event>
<event>
 6    0  0.7442036E+002  0.2242482E+03  0.7546771E-02  0.1130755E+00
         21   -1    0    0  503  501  0.00000000000E+00  0.00000000000E+00  0.14113691912E+03  0.14113691912E+03  0.00000000000E+00 0. -1.
         21   -1    0    0  506  502 -0.00000000000E+00 -0.00000000000E+00 -0.12281943988E+04  0.12281943988E+04  0.00000000000E+00 0. -1.
         21    1    1    2  503  502  0.46264942549E+02  0.22236900694E+03 -0.10864516045E+04  0.11099394168E+04  0.00000000000E+00 0. -1.
         21    1    1    2  504  505 -0.10196985684E+02 -0.54807704899E+02  0.41769711799E+02  0.69660403796E+02  0.00000000000E+00 0. -1.
         21    1    1    2  505  501 -0.11891550416E+01 -0.79787488622E+02 -0.51295473621E+02  0.94861388586E+02  0.00000000000E+00 0. -1.
         21    1    1    2  506  504 -0.34878801823E+02 -0.87773813419E+02  0.89198866630E+01  0.94870108658E+02  0.00000000000E+00 0. -1.
<scales pt_clust_3="219.42589" pt_clust_4="35.53652" pt_clust_5="79.79635" pt_clust_6="35.53652"></scales>
<clustering>
<clus scale="   35.537">  4  6 -1 -1</clus>
<clus scale="   79.796">  1  5  2 -1</clus>
<clus scale="  219.426">  2  3  1 -1</clus>
<clus scale="   79.796">  1  3  2 -1</clus>
</clustering>
</event>
<event>
 6    0  0.7442036E+002  0.1570895E+03  0.7546771E-02  0.1192022E+00
         21   -1    0    0  503  501  0.00000000000E+00  0.00000000000E+00  0.19772036751E+03  0.19772036751E+03  0.00000000000E+00 0.  1.
         21   -1    0    0  506  502 -0.00000000000E+00 -0.00000000000E+00 -0.86728061528E+03  0.86728061528E+03  0.00000000000E+00 0.  1.
         21    1    1    2  503  504  0.94774323291E+02  0.88870088926E+01 -0.29687954017E+02  0.99712215381E+02  0.00000000000E+00 0.  1.
         21    1    1    2  504  502  0.31140714095E+02 -0.10094246251E+02 -0.17999867180E+03  0.18295124960E+03  0.00000000000E+00 0.  1.
         21    1    1    2  505  501  0.11258860795E+02 -0.12589920779E+03  0.11924538304E+03  0.17377236214E+03  0.00000000000E+00 0.  1.
         21    1    1    2  506  505 -0.13717389818E+03  0.12710644515E+03 -0.57911900500E+03  0.60856515566E+03  0.00000000000E+00 0.  1.
<scales pt_clust_3="98.03383" pt_clust_4="32.73588" pt_clust_5="157.08950" pt_clust_6="14000.00000"></scales>
<clustering>
<clus scale="   32.736">  2  4  1 -1</clus>
<clus scale="   98.034">  1  3  2 -1</clus>
<clus scale="  157.089">  1  5  2 -1</clus>
<clus scale="   98.034">  1  3  2 -1</clus>
</clustering>
</event>
<event>
 6    0  0.7442036E+002  0.1131727E+03  0.7546771E-02  0.1254805E+00
         21   -1    0    0  506  501  0.00000000000E+00  0.00000000000E+00  0.18464241339E+04  0.18464241339E+04  0.00000000000E+00 0.  1.
         21   -1    0    0  503  502 -0.00000000000E+00 -0.00000000000E+00 -0.19972854050E+02  0.19972854050E+02  0.00000000000E+00 0.  1.
         21    1    1    2  503  504 -0.12841244459E+03  0.40003550781E+01  0.31750720911E+03  0.34251508960E+03  0.00000000000E+00 0.  1.
         21    1    1    2  504  501 -0.18350979411E+02 -0.31876279104E+02  0.42373711487E+03  0.42533045756E+03  0.00000000000E+00 0. -1.
         21    1    1    2  505  502  0.28666731368E+02  0.30141982796E+02  0.14169577051E+03  0.14767536015E+03  0.00000000000E+00 0.  1.
         21    1    1    2  506  505  0.11809669263E+03 -0.22660587699E+01  0.94351118539E+03  0.95087608067E+03  0.00000000000E+00 0.  1.
<scales pt_clust_3="113.17271" pt_clust_4="36.78119" pt_clust_5="37.97014" pt_clust_6="14000.00000"></scales>
<clustering>
<clus scale="   36.781">  1  4  2 -1</clus>
<clus scale="   37.970">  2  5  1 -1</clus>
<clus scale="  113.173">  2  3  1 -1</clus>
<clus scale="   36.781">  1  3  2 -1</clus>
</clustering>
</event>
<event>
 6    0  0.7442036E+002  0.1228762E+03  0.7546771E-02  0.1238426E+00
         21   -1    0    0  502  501  0.00000000000E+00  0.00000000000E+00  0.57373504592E+03  0.57373504592E+03  0.00000000000E+00 0. -1.
         21   -1    0    0  503  502 -0.00000000000E+00 -0.00000000000E+00 -0.12170371769E+03  0.12170371769E+03  0.00000000000E+00 0.  1.
         21    1    1    2  503  506  0.30773097000E+02  0.41640192734E+02 -0.28980291565E+02  0.59335878262E+02  0.00000000000E+00 0.  1.
         21    1    1    2  504  505 -0.35849675013E+00 -0.84808038501E+02  0.85153577936E+02  0.12018179458E+03  0.00000000000E+00 0. -1.
         21    1    1    2  505  501 -0.10542182016E+02 -0.34263325590E+02  0.42819122076E+03  0.42968923028E+03  0.00000000000E+00 0. -1.
         21    1    1    2  506  504 -0.19872418233E+02  0.77431171357E+02 -0.32333178900E+02  0.86231860481E+02  0.00000000000E+00 0.  1.
<scales pt_clust_3="45.10093" pt_clust_4="109.38353" pt_clust_5="35.84847" pt_clust_6="45.10093"></scales>
<clustering>
<clus scale="   35.848">  1  5  2 -1</clus>
<clus scale="   45.101">  3  6 -1 -1</clus>
<clus scale="  109.384">  1  4  2 -1</clus>
<clus scale="   35.848">  1  3  2 -1</clus>
</clustering>
</event>
<event>
 6    0  0.7442036E+002  0.2314937E+03  0.7546771E-02  0.1125593E+00
         21   -1    0    0  506  501  0.00000000000E+00  0.00000000000E+00  0.52047915771E+03  0.52047915771E+03  0.00000000000E+00 0. -1.
         21   -1    0    0  503  502 -0.00000000000E+00 -0.00000000000E+00 -0.27044388945E+03  0.27044388945E+03  0.00000000000E+00 0. -1.
         21    1    1    2  503  505 -0.30174549087E+02 -0.14039619704E+03 -0.15313741979E+03  0.20993490633E+03  0.00000000000E+00 0. -1.
         21    1    1    2  504  502  0.18684360956E+02  0.94717792195E+02  0.23961471195E+03  0.25833268412E+03  0.00000000000E+00 0. -1.
         21    1    1    2  505  501 -0.24191216533E+02 -0.77104486678E+02 -0.33721489733E+02  0.87564009119E+02  0.00000000000E+00 0.  1.
         21    1    1    2  506  504  0.35681404664E+02  0.12278289152E+03  0.19727946583E+03  0.23509144759E+03  0.00000000000E+00 0. -1.
<scales pt_clust_3="43.27035" pt_clust_4="41.93173" pt_clust_5="43.27035" pt_clust_6="229.32695"></scales>
<clustering>
<clus scale="   41.932">  4  6 -1 -1</clus>
<clus scale="   43.270">  3  5 -1 -1</clus>
<clus scale="  229.327">  1  4  2 -1</clus>
<clus scale="  229.327">  1  3  2 -1</clus>
</clustering>
</event>
<event>
 6    0  0.7442036E+002  0.1037727E+03  0.7546771E-02  0.1272557E+00
         21   -1    0    0  506  501  0.00000000000E+00  0.00000000000E+00  0.18067091539E+04  0.18067091539E+04  0.00000000000E+00 0.  1.
         21   -1    0    0  503  502 -0.00000000000E+00 -0.00000000000E+00 -0.36456490093E+03  0.36456490093E+03  0.00000000000E+00 0.  1.
         21    1    1    2  503  504 -0.25478502595E+02  0.26816662893E+02 -0.27566540551E+03  0.27813612368E+03  0.00000000000E+00 0.  1.
         21    1    1    2  504  501  0.35741824171E+02  0.49210581929E+02  0.13607372681E+04  0.13620958381E+04  0.00000000000E+00 0.  1.
         21    1    1    2  505  502  0.78528779911E+02  0.57904786786E+02 -0.37869763391E+02  0.10466065443E+03  0.00000000000E+00 0.  1.
         21    1    1    2  506  505 -0.88792101488E+02 -0.13393203161E+03  0.39494215378E+03  0.42638143863E+03  0.00000000000E+00 0.  1.
<scales pt_clust_3="36.99037" pt_clust_4="60.87348" pt_clust_5="14000.00000" pt_clust_6="103.77268"></scales>
<clustering>
<clus scale="   36.990">  2  3  1 -1</clus>
<clus scale="   60.873">  1  4  2 -1</clus>
<clus scale="  103.773">  1  6  2 -1</clus>
<clus scale="   60.873">  1  3  2 -1</clus>
</clustering>
</event>
<event>
 6    0  0.7442036E+002  0.1736047E+03  0.7546771E-02  0.1174140E+00
         21   -1    0    0  506  501  0.00000000000E+00  0.00000000000E+00  0.32361137924E+03  0.32361137924E+03  0.00000000000E+00 0. -1.
         21   -1    0    0  505  502 -0.00000000000E+00 -0.00000000000E+00 -0.42417747206E+03  0.42417747206E+03  0.00000000000E+00 0. -1.
         21    1    1    2  503  501  0.71117358962E+01 -0.15861794344E+03 -0.38743951817E+02  0.16343598921E+03  0.00000000000E+00 0. -1.
         21    1    1    2  504  502  0.33686862691E+02 -0.13239454120E+02  0.39607473224E+01  0.36411198590E+02  0.00000000000E+00 0. -1.
         21    1    1    2  505  503 -0.75866738906E+02  0.16747379990E+03 -0.27772776849E+03  0.33307048670E+03  0.00000000000E+00 0. -1.
         21    1    1    2  506  504  0.35068140319E+02  0.43835976604E+01  0.21194488015E+03  0.21487117679E+03  0.00000000000E+00 0. -1.
<scales pt_clust_3="14000.00000" pt_clust_4="41.99408" pt_clust_5="173.60469" pt_clust_6="35.34106"></scales>
<clustering>
<clus scale="   35.341">  1  6  2 -1</clus>
<clus scale="   41.994">  1  4  2 -1</clus>
<clus scale="  173.605">  2  5  1 -1</clus>
<clus scale="   35.341">  1  3  2 -1</clus>
</clustering>
</event>
<event>
 6    0  0.7442036E+002  0.1701826E+03  0.7546771E-02  0.1177658E+00
         21   -1    0    0  504  501  0.00000000000E+00  0.00000000000E+00  0.12553506792E+04  0.12553506792E+04  0.00000000000E+00 0.  1.
         21   -1    0    0  503  502 -0.00000000000E+00 -0.00000000000E+00 -0.21655662300E+03  0.21655662300E+03  0.00000000000E+00 0.  1.
         21    1    1    2  503  501 -0.61995842789E+01  0.39339647496E+02  0.82906907544E+02  0.91976073133E+02  0.00000000000E+00 0. -1.
         21    1    1    2  504  505 -0.15483617584E+03 -0.82441656683E+02  0.11258905768E+04  0.11394737641E+04  0.00000000000E+00 0.  1.
         21    1    1    2  505  506  0.84499342226E+02  0.25884625118E+02 -0.66584957925E+02  0.11065129586E+03  0.00000000000E+00 0.  1.
         21    1    1    2  506  502  0.76536417896E+02  0.17217384068E+02 -0.10341847018E+03  0.12980616916E+03  0.00000000000E+00 0.  1.
<scales pt_clust_3="39.82515" pt_clust_4="166.83466" pt_clust_5="31.64803" pt_clust_6="31.64803"></scales>
<clustering>
<clus scale="   31.648">  5  6 -1 -1</clus>
<clus scale="   39.825">  1  3  2 -1</clus>
<clus scale="  166.835">  1  4  2 -1</clus>
<clus scale="   39.825">  1  3  2 -1</clus>
</clustering>
</event>
<event>
 6    0  0.9766660E+002  0.1065615E+03  0.7546771E-02  0.1267073E+00
         21   -1    0    0  504  501  0.00000000000E+00  0.00000000000E+00  0.86747092977E+03  0.86747092977E+03  0.00000000000E+00 0.  1.
         21   -1    0    0  505  502 -0.00000000000E+00 -0.00000000000E+00 -0.11749672247E+04  0.11749672247E+04  0.00000000000E+00 0. -1.
         21    1    1    2  503  501  0.40671219353E+02 -0.79028709398E+02  0.83224897544E+03  0.83698150644E+03  0.00000000000E+00 0.  1.
         21    1    1    2  504  506 -0.31743381157E+02  0.32312896423E+02 -0.85529862575E+02  0.96783898013E+02  0.00000000000E+00 0. -1.
         21    1    1    2  505  503  0.21022652264E+02 -0.62210072797E+02 -0.95810266157E+03  0.96035032940E+03  0.00000000000E+00 0. -1.
         21    1    1    2  506  502 -0.29950490460E+02  0.10892588577E+03 -0.96112746214E+02  0.14832242061E+03  0.00000000000E+00 0.  1.
<scales pt_clust_3="89.59245" pt_clust_4="36.53258" pt_clust_5="65.66616" pt_clust_6="36.53258"></scales>
<clustering>
<clus scale="   36.533">  4  6 -1 -1</clus>
<clus scale="   65.666">  2  5  1 -1</clus>
<clus scale="   89.592">  1  3  2 -1</clus>
<clus scale="   89.592">  1  3  2 -1</clus>
</clustering>
</event>
<event>
 6    0  0.7442036E+002  0.1365009E+03  0.7546771E-02  0.1218116E+00
         21   -1    0    0  506  501  0.00000000000E+00  0.00000000000E+00  0.94523535777E+03  0.94523535777E+03  0.00000000000E+00 0. -1.
         21   -1    0    0  503  502 -0.00000000000E+00 -0.00000000000E+00 -0.14563158154E+04  0.14563158154E+04  0.00000000000E+00 0. -1.
         21    1    1    2  503  505 -0.35637660670E+02  0.38624025059E+02 -0.77847981847E+03  0.78025168115E+03  0.00000000000E+00 0. -1.
         21    1    1    2  504  502  0.16744793270E+03 -0.73729146797E+02 -0.65740182206E+03  0.68238695247E+03  0.00000000000E+00 0. -1.
         21    1    1    2  505  501 -0.19182676285E+02  0.43565490649E+02  0.21728809343E+03  0.22244109915E+03  0.00000000000E+00 0. -1.
         21    1    1    2  506  504 -0.11262759575E+03 -0.84603689113E+01  0.70751308946E+03  0.71647144041E+03  0.00000000000E+00 0. -1.
<scales pt_clust_3="52.60838" pt_clust_4="14000.00000" pt_clust_5="47.60175" pt_clust_6="136.50092"></scales>
<clustering>
<clus scale="   47.602">  1  5  2 -1</clus>
<clus scale="   52.608">  2  3  1 -1</clus>
<clus scale="  136.501">  1  6  2 -1</clus>
<clus scale="   47.602">  1  3  2 -1</clus>
</clustering>
</event>
<event>
 6    0  0.7442036E+002  0.1129810E+03  0.7546771E-02  0.1255147E+00
         21   -1    0    0  505  501  0.00000000000E+00  0.00000000000E+00  0.86943239040E+03  0.86943239040E+03  0.00000000000E+00 0. -1.
         21   -1    0    0  506  502 -0.00000000000E+00 -0.00000000000E+00 -0.83725161645E+02  0.83725161645E+02  0.00000000000E+00 0.  1.
         21    1    1    2  503  502  0.12981959821E+03  0.25142237693E+02  0.13016589862E+01  0.13223824905E+03  0.00000000000E+00 0.  1.
         21    1    1    2  504  501 -0.45762392969E+02  0.46325618620E+01  0.34820384745E+03  0.35122866713E+03  0.00000000000E+00 0. -1.
         21    1    1    2  505  503 -0.13626041174E+01 -0.43536018268E+02  0.33703352788E+03  0.33983649082E+03  0.00000000000E+00 0. -1.
         21    1    1    2  506  504 -0.82694601125E+02  0.13761218713E+02  0.99168194440E+02  0.12985414504E+03  0.00000000000E+00 0. -1.
<scales pt_clust_3="14000.00000" pt_clust_4="52.48883" pt_clust_5="43.55734" pt_clust_6="112.98104"></scales>
<clustering>
<clus scale="   43.557">  1  5  2 -1</clus>
<clus scale="   52.489">  1  4  2 -1</clus>
<clus scale="  112.981">  1  6  2 -1</clus>
<clus scale="   43.557">  1  3  2 -1</clus>
</clustering>
</event>
<event>
 6    0  0.7442036E+002  0.3068705E+03  0.7546771E-02  0.1081856E+00
         21   -1    0    0  505  501  0.00000000000E+00  0.00000000000E+00  0.86202600947E+03  0.86202600947E+03  0.00000000000E+00 0.  1.
         21   -1    0    0  504  502 -0.00000000000E+00 -0.00000000000E+00 -0.30255564296E+03  0.30255564296E+03  0.00000000000E+00 0. -1.
         21    1    1    2  503  501  0.12861384175E+03 -0.68579716006E+02 -0.66316473937E+02  0.16013298365E+03  0.00000000000E+00 0. -1.
         21    1    1    2  504  503  0.15840408483E+03 -0.39915388573E+02 -0.51362798626E+02  0.17124026810E+03  0.00000000000E+00 0. -1.
         21    1    1    2  505  506 -0.31363057747E+02 -0.47947324535E+02  0.45885250313E+03  0.46241562144E+03  0.00000000000E+00 0.  1.
         21    1    1    2  506  502 -0.25565486883E+03  0.15644242911E+03  0.21829713593E+03  0.37079277925E+03  0.00000000000E+00 0.  1.
<scales pt_clust_3="40.17963" pt_clust_4="40.17963" pt_clust_5="57.29387" pt_clust_6="303.90817"></scales>
<clustering>
<clus scale="   40.180">  3  4 -1 -1</clus>
<clus scale="   57.294">  1  5  2 -1</clus>
<clus scale="  303.908">  1  6  2 -1</clus>
<clus scale="   57.294">  1  3  2 -1</clus>
</clustering>
</event>
<event>
 6    0  0.7442036E+002  0.8114111E+02  0.7546771E-02  0.1325844E+00
         21   -1    0    0  504  501  0.00000000000E+00  0.00000000000E+00  0.13542303480E+03  0.13542303480E+03  0.00000000000E+00 0. -1.
         21   -1    0    0  503  502 -0.00000000000E+00 -0.00000000000E+00 -0.62942384805E+03  0.62942384805E+03  0.00000000000E+00 0.  1.
         21    1    1    2  503  505  0.27711778477E+02 -0.33292224196E+02 -0.16289937538E+03  0.16856014166E+03  0.00000000000E+00 0.  1.
         21    1    1    2  504  506  0.48639672997E+02 -0.59035216039E+01  0.60180799985E+02  0.77604110996E+02  0.00000000000E+00 0. -1.
         21    1    1    2  505  501 -0.12356676070E+03  0.39592775855E+02 -0.53420188765E+01  0.12986481207E+03  0.00000000000E+00 0. -1.
         21    1    1    2  506  502  0.47215309221E+02 -0.39703005520E+00 -0.38594021898E+03  0.38881781812E+03  0.00000000000E+00 0.  1.
<scales pt_clust_3="43.31645" pt_clust_4="49.59197" pt_clust_5="14000.00000" pt_clust_6="81.14111"></scales>
<clustering>
<clus scale="   43.316">  2  3  1 -1</clus>
<clus scale="   49.592">  1  4  2 -1</clus>
<clus scale="   81.141">  2  6  1 -1</clus>
<clus scale="   49.592">  1  3  2 -1</clus>
</clustering>
</event>
<event>
 6    0  0.7442036E+002  0.1676495E+03  0.7546771E-02  0.1180321E+00
         21   -1    0    0  504  501  0.00000000000E+00  0.00000000000E+00  0.97138016302E+03  0.97138016302E+03  0.00000000000E+00 0.  1.
         21   -1    0    0  505  502 -0.00000000000E+00 -0.00000000000E+00 -0.14030544110E+03  0.14030544110E+03  0.00000000000E+00 0.  1.
         21    1    1    2  503  501  0.14052249551E+03  0.80680823349E+02  0.75761936694E+03  0.77475355576E+03  0.00000000000E+00 0.  1.
         21    1    1    2  504  506  0.46347727644E+02 -0.25953513599E+02  0.26464849418E+02  0.59347156466E+02  0.00000000000E+00 0.  1.
         21    1    1    2  505  503 -0.22110514526E+03 -0.71124332561E+02  0.55235498406E+02  0.23874068826E+03  0.00000000000E+00 0.  1.
         21    1    1    2  506  502  0.34234922104E+02  0.16397022811E+02 -0.82449928537E+01  0.38844203631E+02  0.00000000000E+00 0.  1.
<scales pt_clust_3="167.64945" pt_clust_4="56.36728" pt_clust_5="14000.00000" pt_clust_6="37.95909"></scales>
<clustering>
<clus scale="   37.959">  2  6  1 -1</clus>
<clus scale="   56.367">  2  4  1 -1</clus>
<clus scale="  167.649">  1  3  2 -1</clus>
<clus scale="  167.649">  1  3  2 -1</clus>
</clustering>
</event>
<event>
 6    0  0.7442036E+002  0.6779360E+02  0.7546771E-02  0.1367761E+00
         21   -1    0    0  503  501  0.00000000000E+00  0.00000000000E+00  0.82731424033E+03  0.82731424033E+03  0.00000000000E+00 0.  1.
         21   -1    0    0  506  502 -0.00000000000E+00 -0.00000000000E+00 -0.79287148533E+02  0.79287148533E+02  0.00000000000E+00 0.  1.
         21    1    1    2  503  504  0.43349828287E+02 -0.16310727209E+02  0.22602699634E+03  0.23072375368E+03  0.00000000000E+00 0.  1.
         21    1    1    2  504  502 -0.32049962453E+02 -0.55603990451E+02 -0.14510366656E+02  0.65799350968E+02  0.00000000000E+00 0.  1.
         21    1    1    2  505  501 -0.86585239090E+02  0.34149874082E+02  0.51473514809E+03  0.52308268009E+03  0.00000000000E+00 0.  1.
         21    1    1    2  506  505  0.75285373255E+02  0.37764843577E+02  0.21775314012E+02  0.86995604124E+02  0.00000000000E+00 0.  1.
<scales pt_clust_3="46.31682" pt_clust_4="67.79360" pt_clust_5="52.95723" pt_clust_6="14000.00000"></scales>
<clustering>
<clus scale="   46.317">  1  3  2 -1</clus>
<clus scale="   52.957">  1  5  2 -1</clus>
<clus scale="   67.794">  2  4  1 -1</clus>
<clus scale="   46.317">  1  3  2 -1</clus>
</clustering>
</event>
<event>
 6    0  0.7442036E+002  0.1431321E+03  0.7546771E-02  0.1209176E+00
         21   -1    0    0  503  501  0.00000000000E+00  0.00000000000E+00  0.41029903870E+03  0.41029903870E+03  0.00000000000E+00 0.  1.
         21   -1    0    0  504  502 -0.00000000000E+00 -0.00000000000E+00 -0.20945683770E+03  0.20945683770E+03  0.00000000000E+00 0.  1.
         21    1    1    2  503  502  0.13296070159E+02  0.28083272782E+02  0.55301853978E+02  0.63433041431E+02  0.00000000000E+00 0.  1.
         21    1    1    2  504  506 -0.56329590334E+02  0.57024149598E+02  0.12550242602E+02  0.81131282339E+02  0.00000000000E+00 0.  1.
         21    1    1    2  505  501 -0.12950341825E+03  0.37689300775E+02  0.21022614126E+03  0.24977319552E+03  0.00000000000E+00 0.  1.
         21    1    1    2  506  505  0.17253693842E+03 -0.12279672316E+03 -0.77236036840E+02  0.22541835712E+03  0.00000000000E+00 0.  1.
<scales pt_clust_3="31.07178" pt_clust_4="81.66727" pt_clust_5="14000.00000" pt_clust_6="143.13208"></scales>
<clustering>
<clus scale="   31.072">  1  3  2 -1</clus>
<clus scale="   81.667">  2  4  1 -1</clus>
<clus scale="  143.132">  2  6  1 -1</clus>
<clus scale="   31.072">  1  3  2 -1</clus>
</clustering>
</event>
<event>
 6    0  0.7442036E+002  0.8609950E+02  0.7546771E-02  0.1312582E+00
         21   -1    0    0  504  501  0.00000000000E+00  0.00000000000E+00  0.91626456802E+03  0.91626456802E+03  0.00000000000E+00 0. -1.
         21   -1    0    0  505  502 -0.00000000000E+00 -0.00000000000E+00 -0.53452606524E+03  0.53452606524E+03  0.00000000000E+00 0.  1.
         21    1    1    2  503  501  0.55384814678E+02  0.41424900857E+02  0.54998402114E+03  0.55431572557E+03  0.00000000000E+00 0. -1.
         21    1    1    2  504  502 -0.45387352407E+02  0.51298019372E+02  0.28642097815E+02  0.74241957930E+02  0.00000000000E+00 0. -1.
         21    1    1    2  505  506  0.58034357479E+02 -0.64598994801E+02 -0.50144302476E+03  0.50890679289E+03  0.00000000000E+00 0.  1.
         21    1    1    2  506  503 -0.68031819750E+02 -0.28123925428E+02  0.30455540858E+03  0.31332615687E+03  0.00000000000E+00 0. -1.
<scales pt_clust_3="78.73667" pt_clust_4="68.49451" pt_clust_5="86.09950" pt_clust_6="14000.00000"></scales>
<clustering>
<clus scale="   68.495">  1  4  2 -1</clus>
<clus scale="   78.737">  1  3  2 -1</clus>
<clus scale="   86.099">  2  5  1 -1</clus>
<clus scale="   68.495">  1  3  2 -1</clus>
</clustering>
</event>
<event>
 6    0  0.7442036E+002  0.7071848E+02  0.7546771E-02  0.1357667E+00
         21   -1    0    0  502  501  0.00000000000E+00  0.00000000000E+00  0.11529583937E+04  0.11529583937E+04  0.00000000000E+00 0. -1.
         21   -1    0    0  506  502 -0.00000000000E+00 -0.00000000000E+00 -0.12243843388E+03  0.12243843388E+03  0.00000000000E+00 0.  1.
         21    1    1    2  503  501 -0.38710191648E+02  0.40015980393E+02  0.43423873052E+03  0.43779336760E+03  0.00000000000E+00 0. -1.
         21    1    1    2  504  505 -0.21517087881E+02  0.48580617318E+02 -0.16474446548E+02  0.55627950160E+02  0.00000000000E+00 0.  1.
         21    1    1    2  505  503  0.98544425463E+02 -0.79584507407E+02  0.68665826863E+03  0.69824370781E+03  0.00000000000E+00 0. -1.
         21    1    1    2  506  504 -0.38317145934E+02 -0.90120903045E+01 -0.73902592798E+02  0.83731802002E+02  0.00000000000E+00 0.  1.
<scales pt_clust_3="56.51382" pt_clust_4="70.71848" pt_clust_5="14000.00000" pt_clust_6="39.36269"></scales>
<clustering>
<clus scale="   39.363">  2  6  1 -1</clus>
<clus scale="   56.514">  1  3  2 -1</clus>
<clus scale="   70.718">  2  4  1 -1</clus>
<clus scale="   56.514">  1  3  2 -1</clus>
</clustering>
</event>
<event>
 6    0  0.7442036E+002  0.8200390E+02  0.7546771E-02  0.1323459E+00
         21   -1    0    0  505  501  0.00000000000E+00  0.00000000000E+00  0.73688617889E+02  0.73688617889E+02  0.00000000000E+00 0.  1.
         21   -1    0    0  504  502 -0.00000000000E+00 -0.00000000000E+00 -0.50104451504E+03  0.50104451504E+03  0.00000000000E+00 0.  1.
         21    1    1    2  503  502 -0.12730478616E+02 -0.72416008919E+02 -0.23182686605E+03  0.24320739968E+03  0.00000000000E+00 0.  1.
         21    1    1    2  504  501 -0.43013423142E+02  0.14601822823E+02 -0.99756875748E+02  0.10961205253E+03  0.00000000000E+00 0. -1.
         21    1    1    2  505  506  0.44127410930E+02 -0.64028190779E+02 -0.35432387486E+02  0.85453447518E+02  0.00000000000E+00 0.  1.
         21    1    1    2  506  503  0.11616490829E+02  0.12184237687E+03 -0.60339767865E+02  0.13646023321E+03  0.00000000000E+00 0.  1.
<scales pt_clust_3="14000.00000" pt_clust_4="45.42431" pt_clust_5="72.32416" pt_clust_6="82.00390"></scales>
<clustering>
<clus scale="   45.424">  2  4  1 -1</clus>
<clus scale="   72.324">  1  5  2 -1</clus>
<clus scale="   82.004">  1  6  2 -1</clus>
<clus scale="   72.324">  1  3  2 -1</clus>
</clustering>
</event>
<event>
 6    0  0.7442036E+002  0.8955263E+02  0.7546771E-02  0.1303939E+00
         21   -1    0    0  505  501  0.00000000000E+00  0.00000000000E+00  0.67378602367E+02  0.67378602367E+02  0.00000000000E+00 0. -1.
         21   -1    0    0  503  502 -0.00000000000E+00 -0.00000000000E+00 -0.61265540824E+03  0.61265540824E+03  0.00000000000E+00 0. -1.
         21    1    1    2  503  501  0.38826788980E+02  0.30675151806E+02 -0.46596579550E+02  0.67968564105E+02  0.00000000000E+00 0. -1.
         21    1    1    2  504  502  0.47221718237E+02 -0.80269793693E+02 -0.43802153781E+03  0.44781245856E+03  0.00000000000E+00 0. -1.
         21    1    1    2  505  506 -0.40887590769E+02 -0.14561505478E+02  0.23366450486E+02  0.49293240196E+02  0.00000000000E+00 0. -1.
         21    1    1    2  506  504 -0.45160916448E+02  0.64156147365E+02 -0.84025139003E+02  0.11495974775E+03  0.00000000000E+00 0. -1.
<scales pt_clust_3="35.65679" pt_clust_4="89.55263" pt_clust_5="43.40314" pt_clust_6="14000.00000"></scales>
<clustering>
<clus scale="   43.403">  1  5  2 -1</clus>
<clus scale="   35.657">  1  3  2 -1</clus>
<clus scale="   89.553">  2  4  1 -1</clus>
<clus scale="   43.403">  1  3  2 -1</clus>
</clustering>
</event>
<event>
 6    0  0.7442036E+002  0.1398572E+03  0.7546771E-02  0.1213521E+00
         21   -1    0    0  504  501  0.00000000000E+00  0.00000000000E+00  0.29731745495E+03  0.29731745495E+03  0.00000000000E+00 0.  1.
         21   -1    0    0  506  502 -0.00000000000E+00 -0.00000000000E+00 -0.17913836635E+03  0.17913836635E+03  0.00000000000E+00 0.  1.
         21    1    1    2  503  502  0.49001858000E+02 -0.47475147232E+02 -0.60276796219E+02  0.91040451748E+02  0.00000000000E+00 0.  1.
         21    1    1    2  504  505 -0.14312502071E+03  0.96650491268E+02  0.12346566220E+03  0.21229662918E+03  0.00000000000E+00 0.  1.
         21    1    1    2  505  503  0.29518518612E+02 -0.55716862608E+02 -0.26947680882E+02  0.68570323208E+02  0.00000000000E+00 0.  1.
         21    1    1    2  506  501  0.64604644099E+02  0.65415185718E+01  0.81937903490E+02  0.10454841717E+03  0.00000000000E+00 0.  1.
<scales pt_clust_3="31.20175" pt_clust_4="136.03887" pt_clust_5="31.20175" pt_clust_6="64.93498"></scales>
<clustering>
<clus scale="   31.202">  3  5 -1 -1</clus>
<clus scale="   64.935">  1  6  2 -1</clus>
<clus scale="  136.039">  1  4  2 -1</clus>
<clus scale="   64.935">  1  3  2 -1</clus>
</clustering>
</event>
<event>
 6    0  0.7442036E+002  0.1177633E+03  0.7546771E-02  0.1246833E+00
         21   -1    0    0  504  501  0.00000000000E+00  0.00000000000E+00  0.84476497677E+02  0.84476497677E+02  0.00000000000E+00 0. -1.
         21   -1    0    0  506  502 -0.00000000000E+00 -0.00000000000E+00 -0.96896151453E+03  0.96896151453E+03  0.00000000000E+00 0. -1.
         21    1    1    2  503  505  0.90788298536E+02 -0.87041203948E+01 -0.38202125460E+03  0.39275757896E+03  0.00000000000E+00 0. -1.
         21    1    1    2  504  502 -0.99123305185E+02 -0.29018084031E+02 -0.22038585041E+02  0.10560860790E+03  0.00000000000E+00 0. -1.
         21    1    1    2  505  501 -0.33012121919E+02  0.34391424664E+02  0.20886936367E+02  0.52046463807E+02  0.00000000000E+00 0. -1.
         21    1    1    2  506  503  0.41347128568E+02  0.33307797616E+01 -0.50131211357E+03  0.50302536154E+03  0.00000000000E+00 0. -1.
<scales pt_clust_3="117.76329" pt_clust_4="14000.00000" pt_clust_5="46.80833" pt_clust_6="41.48107"></scales>
<clustering>
<clus scale="   41.481">  2  6  1 -1</clus>
<clus scale="   46.808">  1  5  2 -1</clus>
<clus scale="  117.763">  2  3  1 -1</clus>
<clus scale="   46.808">  1  3  2 -1</clus>
</clustering>
</event>
<event>
 6    0  0.7442036E+002  0.1269287E+03  0.7546771E-02  0.1232085E+00
         21   -1    0    0  505  501  0.00000000000E+00  0.00000000000E+00  0.47166165491E+03  0.47166165491E+03  0.00000000000E+00 0. -1.
         21   -1    0    0  503  502 -0.00000000000E+00 -0.00000000000E+00 -0.16040049767E+03  0.16040049767E+03  0.00000000000E+00 0. -1.
         21    1    1    2  503  504 -0.12632820122E+03 -0.60101496854E+02 -0.28214279842E+02  0.14271317366E+03  0.00000000000E+00 0. -1.
         21    1    1    2  504  501 -0.46639284029E+02  0.83669226510E+02  0.10924352597E+03  0.14529249893E+03  0.00000000000E+00 0. -1.
         21    1    1    2  505  506  0.14447545446E+03 -0.87139247046E+01  0.26171515448E+03  0.29907174977E+03  0.00000000000E+00 0. -1.
         21    1    1    2  506  502  0.28492030788E+02 -0.14853804951E+02 -0.31483243371E+02  0.44984730222E+02  0.00000000000E+00 0. -1.
<scales pt_clust_3="126.92869" pt_clust_4="91.86616" pt_clust_5="14000.00000" pt_clust_6="32.13147"></scales>
<clustering>
<clus scale="   32.131">  2  6  1 -1</clus>
<clus scale="   91.866">  1  4  2 -1</clus>
<clus scale="  126.929">  2  3  1 -1</clus>
<clus scale="   91.866">  1  3  2 -1</clus>
</clustering>
</event>
<event>
 6    0  0.7442036E+002  0.1369742E+03  0.7546771E-02  0.1217459E+00
         21   -1    0    0  503  501  0.00000000000E+00  0.00000000000E+00  0.65305333634E+03  0.65305333634E+03  0.00000000000E+00 0.  1.
         21   -1    0    0  505  502 -0.00000000000E+00 -0.00000000000E+00 -0.28084972887E+03  0.28084972887E+03  0.00000000000E+00 0.  1.
         21    1    1    2  503  502 -0.58329433243E+02  0.78850905221E+02  0.59239153411E+03  0.60045609142E+03  0.00000000000E+00 0.  1.
         21    1    1    2  504  501 -0.44924762488E+02 -0.25039398788E+01  0.25483627406E+02  0.51709953252E+02  0.00000000000E+00 0.  1.
         21    1    1    2  505  506  0.42113011458E+02 -0.31984102738E+01 -0.66440887212E+02  0.78728184635E+02  0.00000000000E+00 0.  1.
         21    1    1    2  506  504  0.61141184273E+02 -0.73148555069E+02 -0.17923066684E+03  0.20300883591E+03  0.00000000000E+00 0.  1.
<scales pt_clust_3="127.40089" pt_clust_4="44.99449" pt_clust_5="33.48465" pt_clust_6="33.48465"></scales>
<clustering>
<clus scale="   33.485">  5  6 -1 -1</clus>
<clus scale="   44.994">  1  4  2 -1</clus>
<clus scale="  127.401">  1  3  2 -1</clus>
<clus scale="   44.994">  1  3  2 -1</clus>
</clustering>
</event>
<event>
 6    0  0.7442036E+002  0.1159847E+03  0.7546771E-02  0.1249872E+00
         21   -1    0    0  506  501  0.00000000000E+00  0.00000000000E+00  0.13593560221E+04  0.13593560221E+04  0.00000000000E+00 0. -1.
         21   -1    0    0  504  502 -0.00000000000E+00 -0.00000000000E+00 -0.11329590344E+03  0.11329590344E+03  0.00000000000E+00 0. -1.
         21    1    1    2  503  501 -0.25304010073E+02  0.13229067494E+03  0.18402274545E+03  0.22804711452E+03  0.00000000000E+00 0.  1.
         21    1    1    2  504  505 -0.12588986617E+01 -0.44834259153E+02 -0.38334040966E+02  0.59001646727E+02  0.00000000000E+00 0. -1.
         21    1    1    2  505  503  0.47265308495E+02 -0.42986117986E+02 -0.17826785349E+02  0.66329556025E+02  0.00000000000E+00 0. -1.
         21    1    1    2  506  502 -0.20702399761E+02 -0.44470297796E+02  0.11181981995E+04  0.11192736083E+04  0.00000000000E+00 0. -1.
<scales pt_clust_3="103.57411" pt_clust_4="43.73706" pt_clust_5="43.73706" pt_clust_6="49.05300"></scales>
<clustering>
<clus scale="   43.737">  4  5 -1 -1</clus>
<clus scale="   49.053">  1  6  2 -1</clus>
<clus scale="  103.574">  1  3  2 -1</clus>
<clus scale="   49.053">  1  3  2 -1</clus>
</clustering>
</event>
<event>
 6    0  0.7442036E+002  0.1088176E+03  0.7546771E-02  0.1262775E+00
         21   -1    0    0  504  501  0.00000000000E+00  0.00000000000E+00  0.71546379149E+03  0.71546379149E+03  0.00000000000E+00 0. -1.
         21   -1    0    0  503  502 -0.00000000000E+00 -0.00000000000E+00 -0.11523731325E+04  0.11523731325E+04  0.00000000000E+00 0.  1.
         21    1    1    2  503  501 -0.52686547053E+02 -0.54364357088E+02  0.26165277829E+03  0.27238489670E+03  0.00000000000E+00 0. -1.
         21    1    1    2  504  505  0.12303928718E+02  0.28146758251E+02  0.40541535872E+03  0.40657747078E+03  0.00000000000E+00 0. -1.
         21    1    1    2  505  506 -0.59263899523E+02  0.73837220527E+02 -0.16868495914E+02  0.96170115297E+02  0.00000000000E+00 0. -1.
         21    1    1    2  506  502  0.99646517858E+02 -0.47619621690E+02 -0.10871089821E+04  0.10927044412E+04  0.00000000000E+00 0.  1.
<scales pt_clust_3="51.71673" pt_clust_4="30.71851" pt_clust_5="14000.00000" pt_clust_6="108.81758"></scales>
<clustering>
<clus scale="   30.719">  1  4  2 -1</clus>
<clus scale="   51.717">  1  3  2 -1</clus>
<clus scale="  108.818">  2  6  1 -1</clus>
<clus scale="   30.719">  1  3  2 -1</clus>
</clustering>
</event>
<event>
 6    0  0.7442036E+002  0.1594766E+03  0.7546771E-02  0.1189289E+00
         21   -1    0    0  506  501  0.00000000000E+00  0.00000000000E+00  0.93562358414E+02  0.93562358414E+02  0.00000000000E+00 0. -1.
         21   -1    0    0  504  502 -0.00000000000E+00 -0.00000000000E+00 -0.11290254312E+04  0.11290254312E+04  0.00000000000E+00 0.  1.
         21    1    1    2  503  502 -0.10719584865E+03 -0.84996197348E+02 -0.62046800319E+03  0.63537063712E+03  0.00000000000E+00 0.  1.
         21    1    1    2  504  505  0.18598079430E+02 -0.54727829858E+02 -0.28833385911E+03  0.29407046474E+03  0.00000000000E+00 0. -1.
         21    1    1    2  505  501  0.12185092827E+03  0.12654952156E+03 -0.16478828774E+03  0.24086844937E+03  0.00000000000E+00 0. -1.
         21    1    1    2  506  503 -0.33253159048E+02  0.13174505643E+02  0.38127077271E+02  0.52278238368E+02  0.00000000000E+00 0. -1.
<scales pt_clust_3="14000.00000" pt_clust_4="56.45027" pt_clust_5="159.47656" pt_clust_6="35.76787"></scales>
<clustering>
<clus scale="   35.768">  1  6  2 -1</clus>
<clus scale="   56.450">  2  4  1 -1</clus>
<clus scale="  159.477">  1  5  2 -1</clus>
<clus scale="   35.768">  1  3  2 -1</clus>
</clustering>
</event>
<event>
 6    0  0.7442036E+002  0.9438275E+02  0.7546771E-02  0.1292572E+00
         21   -1    0    0  503  501  0.00000000000E+00  0.00000000000E+00  0.83645774197E+03  0.83645774197E+03  0.00000000000E+00 0.  1.
         21   -1    0    0  506  502 -0.00000000000E+00 -0.00000000000E+00 -0.36075664987E+03  0.36075664987E+03  0.00000000000E+00 0. -1.
         21    1    1    2  503  505 -0.14178666486E+02 -0.12120809374E+03  0.45411404785E+03  0.47022548317E+03  0.00000000000E+00 0.  1.
         21    1    1    2  504  502  0.15604104551E+02  0.32758237003E+02 -0.13451976196E+03  0.13932751533E+03  0.00000000000E+00 0. -1.
         21    1    1    2  505  504 -0.42378542615E+02  0.58435451626E+02 -0.20792861211E+03  0.22010213678E+03  0.00000000000E+00 0. -1.
         21    1    1    2  506  501  0.40953104549E+02  0.30014405108E+02  0.36403541833E+03  0.36755925656E+03  0.00000000000E+00 0.  1.
<scales pt_clust_3="94.38275" pt_clust_4="36.28485" pt_clust_5="14000.00000" pt_clust_6="51.02590"></scales>
<clustering>
<clus scale="   36.285">  2  4  1 -1</clus>
<clus scale="   51.026">  1  6  2 -1</clus>
<clus scale="   94.383">  1  3  2 -1</clus>
<clus scale="   51.026">  1  3  2 -1</clus>
</clustering>
</event>
<event>
 6    0  0.7442036E+002  0.1111517E+03  0.7546771E-02  0.1258452E+00
         21   -1    0    0  506  501  0.00000000000E+00  0.00000000000E+00  0.11274667273E+03  0.11274667273E+03  0.00000000000E+00 0. -1.
         21   -1    0    0  503  502 -0.00000000000E+00 -0.00000000000E+00 -0.18491351879E+03  0.18491351879E+03  0.00000000000E+00 0. -1.
         21    1    1    2  503  505 -0.22095540926E+02  0.84562849118E+02 -0.37890796748E+02  0.95261749186E+02  0.00000000000E+00 0. -1.
         21    1    1    2  504  501 -0.24102146054E+02 -0.73952709836E+02  0.30125376829E+02  0.83411360531E+02  0.00000000000E+00 0. -1.
         21    1    1    2  505  504  0.45298464221E+01 -0.42391979712E+02 -0.10705717668E+02  0.43956931686E+02  0.00000000000E+00 0.  1.
         21    1    1    2  506  502  0.41667840559E+02  0.31781840430E+02 -0.53695708473E+02  0.75030150115E+02  0.00000000000E+00 0. -1.
<scales pt_clust_3="102.11906" pt_clust_4="32.49452" pt_clust_5="32.49452" pt_clust_6="52.40510"></scales>
<clustering>
<clus scale="   32.495">  4  5 -1 -1</clus>
<clus scale="   52.405">  2  6  1 -1</clus>
<clus scale="  102.119">  2  3  1 -1</clus>
<clus scale="  111.152">  1  3  2 -1</clus>
</clustering>
</event>
<event>
 6    0  0.7442036E+002  0.1146362E+03  0.7546771E-02  0.1252217E+00
         21   -1    0    0  503  501  0.00000000000E+00  0.00000000000E+00  0.20697034723E+04  0.20697034723E+04  0.00000000000E+00 0.  1.
         21   -1    0    0  505  502 -0.00000000000E+00 -0.00000000000E+00 -0.16520421769E+03  0.16520421769E+03  0.00000000000E+00 0.  1.
         21    1    1    2  503  506  0.36462979252E+02  0.17935300685E+02  0.11986392331E+04  0.11993278263E+04  0.00000000000E+00 0.  1.
         21    1    1    2  504  502  0.26082416353E+02 -0.84730550246E+02 -0.12465554545E+03  0.15296589031E+03  0.00000000000E+00 0.  1.
         21    1    1    2  505  501  0.39794261600E+02 -0.10058661024E+02 -0.12447681033E+01  0.41064697314E+02  0.00000000000E+00 0.  1.
         21    1    1    2  506  504 -0.10233965720E+03  0.76853910585E+02  0.83176033510E+03  0.84154927607E+03  0.00000000000E+00 0.  1.
<scales pt_clust_3="40.63525" pt_clust_4="114.63621" pt_clust_5="41.75801" pt_clust_6="14000.00000"></scales>
<clustering>
<clus scale="   40.635">  1  3  2 -1</clus>
<clus scale="   41.758">  2  5  1 -1</clus>
<clus scale="  114.636">  2  4  1 -1</clus>
<clus scale="   40.635">  1  3  2 -1</clus>
</clustering>
</event>
<event>
 6    0  0.7442036E+002  0.2753318E+03  0.7546771E-02  0.1098266E+00
         21   -1    0    0  505  501  0.00000000000E+00  0.00000000000E+00  0.21549254665E+04  0.21549254665E+04  0.00000000000E+00 0. -1.
         21   -1    0    0  503  502 -0.00000000000E+00 -0.00000000000E+00 -0.24405999024E+03  0.24405999024E+03  0.00000000000E+00 0. -1.
         21    1    1    2  503  504  0.59297336081E+02 -0.23970657311E+02 -0.91389312142E+02  0.11154717770E+03  0.00000000000E+00 0. -1.
         21    1    1    2  504  506  0.20176698029E+03 -0.84037645045E+02 -0.38357873691E+02  0.22190891509E+03  0.00000000000E+00 0. -1.
         21    1    1    2  505  502 -0.26103959146E+03  0.55978992961E+02  0.17600890722E+04  0.17802215755E+04  0.00000000000E+00 0. -1.
         21    1    1    2  506  501 -0.24724914164E-01  0.52029309395E+02  0.28052358989E+03  0.28530778842E+03  0.00000000000E+00 0. -1.
<scales pt_clust_3="63.85452" pt_clust_4="275.33178" pt_clust_5="14000.00000" pt_clust_6="52.02932"></scales>
<clustering>
<clus scale="   52.029">  1  6  2 -1</clus>
<clus scale="   63.855">  2  3  1 -1</clus>
<clus scale="  275.332">  2  4  1 -1</clus>
<clus scale="   52.029">  1  3  2 -1</clus>
</clustering>
</event>
<event>
 6    0  0.7442036E+002  0.1072283E+03  0.7546771E-02  0.1265791E+00
         21   -1    0    0  503  501  0.00000000000E+00  0.00000000000E+00  0.32484972325E+03  0.32484972325E+03  0.00000000000E+00 0. -1.
         21   -1    0    0  504  502 -0.00000000000E+00 -0.00000000000E+00 -0.78129771318E+03  0.78129771318E+03  0.00000000000E+00 0. -1.
         21    1    1    2  503  506 -0.41696377187E+02  0.99461562949E+02  0.29584489468E+03  0.31488949186E+03  0.00000000000E+00 0. -1.
         21    1    1    2  504  505  0.40107122111E+02  0.30711758730E+02 -0.29142355207E+03  0.29576930210E+03  0.00000000000E+00 0. -1.
         21    1    1    2  505  501 -0.12958798452E+02 -0.90249096643E+02 -0.43769003335E+03  0.44708544507E+03  0.00000000000E+00 0. -1.
         21    1    1    2  506  502  0.14548053528E+02 -0.39924225035E+02 -0.23179299206E+02  0.48403197392E+02  0.00000000000E+00 0. -1.
<scales pt_clust_3="14000.00000" pt_clust_4="48.22492" pt_clust_5="107.22826" pt_clust_6="42.49223"></scales>
<clustering>
<clus scale="   42.492">  2  6  1 -1</clus>
<clus scale="   48.225">  2  4  1 -1</clus>
<clus scale="  107.228">  2  5  1 -1</clus>
<clus scale="  107.228">  1  3  2 -1</clus>
</clustering>
</event>
<event>
 6    0  0.7442036E+002  0.1616185E+03  0.7546771E-02  0.1186882E+00
         21   -1    0    0  503  501  0.00000000000E+00  0.00000000000E+00  0.14813498351E+04  0.14813498351E+04  0.00000000000E+00 0.  1.
         21   -1    0    0  505  502 -0.00000000000E+00 -0.00000000000E+00 -0.74557193318E+02  0.74557193318E+02  0.00000000000E+00 0.  1.
         21    1    1    2  503  504  0.36006252477E+02  0.90526885895E+02  0.98037206773E+03  0.98520097365E+03  0.00000000000E+00 0.  1.
         21    1    1    2  504  506  0.28661962969E+02  0.57752938867E+02  0.37148358464E+03  0.37703708534E+03  0.00000000000E+00 0.  1.
         21    1    1    2  505  501  0.16657951104E+02 -0.72847847712E+02  0.24581171166E+02  0.78667211894E+02  0.00000000000E+00 0.  1.
         21    1    1    2  506  502 -0.81326166550E+02 -0.75431977050E+02  0.30355818204E+02  0.11500175749E+03  0.00000000000E+00 0.  1.
<scales pt_clust_3="36.47117" pt_clust_4="36.47117" pt_clust_5="74.72815" pt_clust_6="155.27588"></scales>
<clustering>
<clus scale="   36.471">  3  4 -1 -1</clus>
<clus scale="   74.728">  2  5  1 -1</clus>
<clus scale="  155.276">  2  6  1 -1</clus>
<clus scale="  161.618">  1  3  2 -1</clus>
</clustering>
</event>
<event>
 6    0  0.7442036E+002  0.1611315E+03  0.7546771E-02  0.1187425E+00
         21   -1    0    0  506  501  0.00000000000E+00  0.00000000000E+00  0.92925502991E+02  0.92925502991E+02  0.00000000000E+00 0.  1.
         21   -1    0    0  503  502 -0.00000000000E+00 -0.00000000000E+00 -0.22231926622E+04  0.22231926622E+04  0.00000000000E+00 0. -1.
         21    1    1    2  503  504  0.29494427879E+02  0.54917607465E+02 -0.21928608536E+03  0.22797423565E+03  0.00000000000E+00 0. -1.
         21    1    1    2  504  505 -0.16749431136E+03  0.25223905266E+02 -0.59431308573E+02  0.17950674130E+03  0.00000000000E+00 0.  1.
         21    1    1    2  505  501  0.51080807347E+01 -0.29819315691E+02  0.16992701111E+02  0.34699221434E+02  0.00000000000E+00 0.  1.
         21    1    1    2  506  502  0.13289180275E+03 -0.50322197039E+02 -0.18685424664E+04  0.18739379668E+04  0.00000000000E+00 0. -1.
<scales pt_clust_3="60.80390" pt_clust_4="14000.00000" pt_clust_5="30.25366" pt_clust_6="161.13154"></scales>
<clustering>
<clus scale="   30.254">  1  5  2 -1</clus>
<clus scale="   60.804">  2  3  1 -1</clus>
<clus scale="  161.132">  2  6  1 -1</clus>
<clus scale="   30.254">  1  3  2 -1</clus>
</clustering>
</event>
<event>
 6    0  0.8038370E+002  0.1281405E+03  0.7546771E-02  0.1230241E+00
         21   -1    0    0  506  501  0.00000000000E+00  0.00000000000E+00  0.13138252790E+04  0.13138252790E+04  0.00000000000E+00 0.  1.
         21   -1    0    0  503  502 -0.00000000000E+00 -0.00000000000E+00 -0.43058396142E+03  0.43058396142E+03  0.00000000000E+00 0.  1.
         21    1    1    2  503  501 -0.29503698978E+02 -0.38004507173E+02  0.79880361870E+02  0.93250646278E+02  0.00000000000E+00 0.  1.
         21    1    1    2  504  502  0.46212958831E+02  0.15911107008E+02 -0.32256765408E+03  0.32624943272E+03  0.00000000000E+00 0.  1.
         21    1    1    2  505  504  0.71520664981E+02  0.47280689617E+02 -0.78945511598E+02  0.11654639819E+03  0.00000000000E+00 0.  1.
         21    1    1    2  506  505 -0.88229924834E+02 -0.25187289452E+02  0.12048741214E+04  0.12083627632E+04  0.00000000000E+00 0.  1.
<scales pt_clust_3="48.11248" pt_clust_4="48.81497" pt_clust_5="14000.00000" pt_clust_6="128.14052"></scales>
<clustering>
<clus scale="   48.112">  1  3  2 -1</clus>
<clus scale="   48.815">  2  4  1 -1</clus>
<clus scale="  128.141">  1  6  2 -1</clus>
<clus scale="   48.112">  1  3  2 -1</clus>
</clustering>
</event>
<event>
 6    0  0.7442036E+002  0.1241450E+03  0.7546771E-02  0.1236412E+00
         21   -1    0    0  504  501  0.00000000000E+00  0.00000000000E+00  0.52148673458E+02  0.52148673458E+02  0.00000000000E+00 0. -1.
         21   -1    0    0  506  502 -0.00000000000E+00 -0.00000000000E+00 -0.16170565830E+04  0.16170565830E+04  0.00000000000E+00 0. -1.
         21    1    1    2  503  501 -0.25479583606E+02  0.22940159342E+02 -0.31025882270E+02  0.46239219955E+02  0.00000000000E+00 0.  1.
         21    1    1    2  504  502 -0.34571086514E+02 -0.17071402493E+02  0.17310760153E+02  0.42264112706E+02  0.00000000000E+00 0. -1.
         21    1    1    2  505  503 -0.68230163729E+02 -0.51679269283E+02 -0.14842557593E+03  0.17133666772E+03  0.00000000000E+00 0. -1.
         21    1    1    2  506  505  0.12828083385E+03  0.45810512434E+02 -0.14027672115E+04  0.14093652560E+04  0.00000000000E+00 0. -1.
<scales pt_clust_3="34.28498" pt_clust_4="51.63953" pt_clust_5="14000.00000" pt_clust_6="124.14496"></scales>
<clustering>
<clus scale="   34.285">  1  3  2 -1</clus>
<clus scale="   51.640">  1  4  2 -1</clus>
<clus scale="  124.145">  2  6  1 -1</clus>
<clus scale="   34.285">  1  3  2 -1</clus>
</clustering>
</event>
<event>
 6    0  0.1375933E+003  0.1011819E+03  0.7546771E-02  0.1277830E+00
         21   -1    0    0  504  501  0.00000000000E+00  0.00000000000E+00  0.50012705916E+03  0.50012705916E+03  0.00000000000E+00 0.  1.
         21   -1    0    0  503  502 -0.00000000000E+00 -0.00000000000E+00 -0.66670743441E+03  0.66670743441E+03  0.00000000000E+00 0. -1.
         21    1    1    2  503  501  0.15663076376E+02 -0.44644596915E+02  0.47469121855E+03  0.47704321080E+03  0.00000000000E+00 0.  1.
         21    1    1    2  504  505  0.24530986786E+02  0.32015785693E+02 -0.51381249454E+02  0.65320843853E+02  0.00000000000E+00 0. -1.
         21    1    1    2  505  506 -0.95355805213E+01  0.90969132668E+02 -0.14314207007E+03  0.16987042891E+03  0.00000000000E+00 0. -1.
         21    1    1    2  506  502 -0.30658482642E+02 -0.78340321447E+02 -0.44674827428E+03  0.45460001001E+03  0.00000000000E+00 0. -1.
<scales pt_clust_3="47.31249" pt_clust_4="30.61436" pt_clust_5="30.61436" pt_clust_6="90.06837"></scales>
<clustering>
<clus scale="   30.614">  4  5 -1 -1</clus>
<clus scale="   47.312">  1  3  2 -1</clus>
<clus scale="   90.068">  2  6  1 -1</clus>
<clus scale="   47.312">  1  3  2 -1</clus>
</clustering>
</event>
<event>
 6    0  0.7442036E+002  0.1201244E+03  0.7546771E-02  0.1242892E+00
         21   -1    0    0  505  501  0.00000000000E+00  0.00000000000E+00  0.42078313065E+03  0.42078313065E+03  0.00000000000E+00 0.  1.
         21   -1    0    0  503  502 -0.00000000000E+00 -0.00000000000E+00 -0.11332565231E+03  0.11332565231E+03  0.00000000000E+00 0.  1.
         21    1    1    2  503  504 -0.15107340197E+03  0.27207213982E+02  0.14757665570E+03  0.21293725504E+03  0.00000000000E+00 0.  1.
         21    1    1    2  504  501  0.16073339880E+02  0.37502636281E+02  0.15078667625E+03  0.15620954426E+03  0.00000000000E+00 0.  1.
         21    1    1    2  505  506  0.27650134779E+02 -0.34652437076E+02  0.27216907799E+02  0.52020009793E+02  0.00000000000E+00 0. -1.
         21    1    1    2  506  502  0.10734992731E+03 -0.30057413187E+02 -0.18122761412E+02  0.11294197387E+03  0.00000000000E+00 0.  1.
<scales pt_clust_3="14000.00000" pt_clust_4="40.80196" pt_clust_5="41.81381" pt_clust_6="120.12443"></scales>
<clustering>
<clus scale="   40.802">  1  4  2 -1</clus>
<clus scale="   41.814">  1  5  2 -1</clus>
<clus scale="  120.124">  2  6  1 -1</clus>
<clus scale="   40.802">  1  3  2 -1</clus>
</clustering>
</event>
<event>
 6    0  0.7442036E+002  0.6729117E+02  0.7546771E-02  0.1369555E+00
         21   -1    0    0  506  501  0.00000000000E+00  0.00000000000E+00  0.16873709208E+04  0.16873709208E+04  0.00000000000E+00 0.  1.
         21   -1    0    0  504  502 -0.00000000000E+00 -0.00000000000E+00 -0.11479556541E+03  0.11479556541E+03  0.00000000000E+00 0. -1.
         21    1    1    2  503  502 -0.31833671658E+02 -0.39163486756E+02  0.25356320045E+02  0.56481008422E+02  0.00000000000E+00 0. -1.
         21    1    1    2  504  505  0.44718143572E+01  0.10149928986E+03 -0.69931739050E+02  0.12333917096E+03  0.00000000000E+00 0. -1.
         21    1    1    2  505  501  0.57087995856E+02 -0.86278585473E+01  0.46650036523E+03  0.47005964512E+03  0.00000000000E+00 0.  1.
         21    1    1    2  506  503 -0.29726138555E+02 -0.53707944561E+02  0.11506504092E+04  0.11522866617E+04  0.00000000000E+00 0.  1.
<scales pt_clust_3="50.46941" pt_clust_4="14000.00000" pt_clust_5="57.28206" pt_clust_6="67.29117"></scales>
<clustering>
<clus scale="   50.469">  2  3  1 -1</clus>
<clus scale="   57.282">  1  5  2 -1</clus>
<clus scale="   67.291">  1  6  2 -1</clus>
<clus scale="   57.282">  1  3  2 -1</clus>
</clustering>
</event>
<event>
 6    0  0.7442036E+002  0.1086915E+03  0.7546771E-02  0.1263012E+00
         21   -1    0    0  506  501  0.00000000000E+00  0.00000000000E+00  0.15395096710E+04  0.15395096710E+04  0.00000000000E+00 0. -1.
         21   -1    0    0  503  502 -0.00000000000E+00 -0.00000000000E+00 -0.41574338465E+02  0.41574338465E+02  0.00000000000E+00 0. -1.
         21    1    1    2  503  505 -0.90472402073E+01 -0.50199416823E+02  0.16473594059E+02  0.53602362876E+02  0.00000000000E+00 0. -1.
         21    1    1    2  504  501  0.38712597207E+02  0.15556843089E+02  0.92526320526E+03  0.92620336835E+03  0.00000000000E+00 0. -1.
         21    1    1    2  505  504 -0.37294640711E+02 -0.93011616729E+02  0.22831029732E+03  0.24933439982E+03  0.00000000000E+00 0. -1.
         21    1    1    2  506  502  0.76292837115E+01  0.12765419046E+03  0.32788823593E+03  0.35194387844E+03  0.00000000000E+00 0. -1.
<scales pt_clust_3="49.78310" pt_clust_4="41.72146" pt_clust_5="14000.00000" pt_clust_6="108.69155"></scales>
<clustering>
<clus scale="   41.721">  1  4  2 -1</clus>
<clus scale="   49.783">  2  3  1 -1</clus>
<clus scale="  108.692">  2  6  1 -1</clus>
<clus scale="   41.721">  1  3  2 -1</clus>
</clustering>
</event>
<event>
 6    0  0.7442036E+002  0.7842760E+02  0.7546771E-02  0.1333574E+00
         21   -1    0    0  504  501  0.00000000000E+00  0.00000000000E+00  0.22337145623E+03  0.22337145623E+03  0.00000000000E+00 0. -1.
         21   -1    0    0  505  502 -0.00000000000E+00 -0.00000000000E+00 -0.61598508781E+03  0.61598508781E+03  0.00000000000E+00 0.  1.
         21    1    1    2  503  502 -0.28118735522E+02  0.55457794032E+02 -0.22797011308E+03  0.23629769923E+03  0.00000000000E+00 0.  1.
         21    1    1    2  504  503 -0.56525485127E+02 -0.73426257445E+01  0.14576719028E+03  0.15651555317E+03  0.00000000000E+00 0. -1.
         21    1    1    2  505  506  0.97780712786E+02 -0.91962827351E+02 -0.35689626281E+03  0.38130456569E+03  0.00000000000E+00 0. -1.
         21    1    1    2  506  501 -0.13136492137E+02  0.43847659064E+02  0.46485554029E+02  0.65238725957E+02  0.00000000000E+00 0. -1.
<scales pt_clust_3="63.29911" pt_clust_4="14000.00000" pt_clust_5="78.42760" pt_clust_6="45.77319"></scales>
<clustering>
<clus scale="   45.773">  1  6  2 -1</clus>
<clus scale="   63.299">  2  3  1 -1</clus>
<clus scale="   78.428">  2  5  1 -1</clus>
<clus scale="   45.773">  1  3  2 -1</clus>
</clustering>
</event>
<event>
 6    0  0.7442036E+002  0.8858491E+02  0.7546771E-02  0.1306315E+00
         21   -1    0    0  505  501  0.00000000000E+00  0.00000000000E+00  0.55327085262E+02  0.55327085262E+02  0.00000000000E+00 0. -1.
         21   -1    0    0  506  502 -0.00000000000E+00 -0.00000000000E+00 -0.39078737312E+03  0.39078737312E+03  0.00000000000E+00 0. -1.
         21    1    1    2  503  501 -0.25234269171E+02  0.23168121607E+02  0.80670595598E+01  0.35193858120E+02  0.00000000000E+00 0. -1.
         21    1    1    2  504  503  0.10953001777E+03  0.16314255999E+02 -0.13119365086E+03  0.17168213002E+03  0.00000000000E+00 0. -1.
         21    1    1    2  505  502 -0.56110545610E+02 -0.52752379228E+02 -0.12859758411E+03  0.14989511494E+03  0.00000000000E+00 0. -1.
         21    1    1    2  506  504 -0.28185202986E+02  0.13270001621E+02 -0.83736112446E+02  0.89343355310E+02  0.00000000000E+00 0. -1.
<scales pt_clust_3="35.58489" pt_clust_4="88.58491" pt_clust_5="14000.00000" pt_clust_6="31.15283"></scales>
<clustering>
<clus scale="   31.153">  2  6  1 -1</clus>
<clus scale="   35.585">  1  3  2 -1</clus>
<clus scale="   88.585">  1  4  2 -1</clus>
<clus scale="   35.585">  1  3  2 -1</clus>
</clustering>
</event>
<event>
 6    0  0.7442036E+002  0.9720582E+02  0.7546771E-02  0.1286284E+00
         21   -1    0    0  502  501  0.00000000000E+00  0.00000000000E+00  0.53451571970E+03  0.53451571970E+03  0.00000000000E+00 0.  1.
         21   -1    0    0  503  502 -0.00000000000E+00 -0.00000000000E+00 -0.25003499225E+03  0.25003499225E+03  0.00000000000E+00 0.  1.
         21    1    1    2  503  506  0.40937320445E+02 -0.20208981270E+02 -0.89471209715E+02  0.10044582867E+03  0.00000000000E+00 0.  1.
         21    1    1    2  504  501  0.18601722879E+02 -0.28623931595E+02  0.28392936212E+03  0.28597418805E+03  0.00000000000E+00 0.  1.
         21    1    1    2  505  504 -0.78780421307E+02  0.94162552779E+02  0.22397306414E+03  0.25541510250E+03  0.00000000000E+00 0.  1.
         21    1    1    2  506  505  0.19241377983E+02 -0.45329639914E+02 -0.13395048909E+03  0.14271559273E+03  0.00000000000E+00 0.  1.
<scales pt_clust_3="34.66568" pt_clust_4="34.13728" pt_clust_5="90.30801" pt_clust_6="34.66568"></scales>
<clustering>
<clus scale="   34.137">  1  4  2 -1</clus>
<clus scale="   34.666">  3  6 -1 -1</clus>
<clus scale="   90.308">  1  5  2 -1</clus>
<clus scale="   34.137">  1  3  2 -1</clus>
</clustering>
</event>
<event>
 6    0  0.7442036E+002  0.1520089E+03  0.7546771E-02  0.1198026E+00
         21   -1    0    0  503  501  0.00000000000E+00  0.00000000000E+00  0.75823725768E+03  0.75823725768E+03  0.00000000000E+00 0.  1.
         21   -1    0    0  506  502 -0.00000000000E+00 -0.00000000000E+00 -0.84474099229E+02  0.84474099229E+02  0.00000000000E+00 0.  1.
         21    1    1    2  503  504 -0.21467741971E+02 -0.10982121178E+03  0.45727584115E+03  0.47076826296E+03  0.00000000000E+00 0.  1.
         21    1    1    2  504  502 -0.38206866208E+02 -0.34106391124E+02  0.12122542322E+03  0.13160020431E+03  0.00000000000E+00 0. -1.
         21    1    1    2  505  501  0.37371425499E+02  0.87688049552E+01  0.95961631665E+02  0.10335448774E+03  0.00000000000E+00 0.  1.
         21    1    1    2  506  505  0.22303182680E+02  0.13515879795E+03 -0.69973759056E+00  0.13698840190E+03  0.00000000000E+00 0.  1.
<scales pt_clust_3="41.11436" pt_clust_4="41.11436" pt_clust_5="38.38640" pt_clust_6="138.55996"></scales>
<clustering>
<clus scale="   38.386">  1  5  2 -1</clus>
<clus scale="   41.114">  3  4 -1 -1</clus>
<clus scale="  138.560">  2  6  1 -1</clus>
<clus scale="   38.386">  1  3  2 -1</clus>
</clustering>
</event>
<event>
 6    0  0.7442036E+002  0.1475799E+03  0.7546771E-02  0.1203479E+00
         21   -1    0    0  505  501  0.00000000000E+00  0.00000000000E+00  0.45642646075E+02  0.45642646075E+02  0.00000000000E+00 0. -1.
         21   -1    0    0  506  502 -0.00000000000E+00 -0.00000000000E+00 -0.77555549600E+03  0.77555549600E+03  0.00000000000E+00 0. -1.
         21    1    1    2  503  502 -0.60559904092E+01  0.43675592233E+02 -0.14160123029E+03  0.14830758846E+03  0.00000000000E+00 0. -1.
         21    1    1    2  504  501 -0.32859956427E+02  0.58301735086E+01  0.59574395880E+00  0.33378474657E+02  0.00000000000E+00 0.  1.
         21    1    1    2  505  503 -0.16466863712E+01  0.89511245609E+02 -0.12661497053E+03  0.15506877644E+03  0.00000000000E+00 0. -1.
         21    1    1    2  506  504  0.40562633208E+02 -0.13901701135E+03 -0.46229239307E+03  0.48444330251E+03  0.00000000000E+00 0. -1.
<scales pt_clust_3="33.31799" pt_clust_4="33.37316" pt_clust_5="33.31799" pt_clust_6="139.57289"></scales>
<clustering>
<clus scale="   33.373">  1  4  2 -1</clus>
<clus scale="   33.318">  3  5 -1 -1</clus>
<clus scale="  139.573">  2  6  1 -1</clus>
<clus scale="   33.373">  1  3  2 -1</clus>
</clustering>
</event>
<event>
 6    0  0.7442036E+002  0.1182205E+03  0.7546771E-02  0.1246062E+00
         21   -1    0    0  505  501  0.00000000000E+00  0.00000000000E+00  0.12046141587E+04  0.12046141587E+04  0.00000000000E+00 0. -1.
         21   -1    0    0  504  502 -0.00000000000E+00 -0.00000000000E+00 -0.80909546542E+02  0.80909546542E+02  0.00000000000E+00 0.  1.
         21    1    1    2  503  501 -0.30223827307E+02 -0.10424204451E+03  0.10296799771E+04  0.10353843435E+04  0.00000000000E+00 0. -1.
         21    1    1    2  504  506  0.11465187838E+02  0.59689697380E+02  0.23539985573E+02  0.65180069241E+02  0.00000000000E+00 0.  1.
         21    1    1    2  505  502  0.50583561342E+02 -0.45487464615E+02  0.56522344796E+02  0.88445359270E+02  0.00000000000E+00 0.  1.
         21    1    1    2  506  503 -0.31824921873E+02  0.90039811743E+02  0.13962304693E+02  0.96513933208E+02  0.00000000000E+00 0.  1.
<scales pt_clust_3="109.86808" pt_clust_4="34.82104" pt_clust_5="68.02798" pt_clust_6="34.82104"></scales>
<clustering>
<clus scale="   34.821">  4  6 -1 -1</clus>
<clus scale="   68.028">  2  5  1 -1</clus>
<clus scale="  109.868">  1  3  2 -1</clus>
<clus scale="  109.868">  1  3  2 -1</clus>
</clustering>
</event>
<event>
 6    0  0.7442036E+002  0.1611367E+03  0.7546771E-02  0.1187419E+00
         21   -1    0    0  506  501  0.00000000000E+00  0.00000000000E+00  0.27118078426E+02  0.27118078426E+02  0.00000000000E+00 0. -1.
         21   -1    0    0  503  502 -0.00000000000E+00 -0.00000000000E+00 -0.30911351151E+04  0.30911351151E+04  0.00000000000E+00 0.  1.
         21    1    1    2  503  501  0.16010275632E+03  0.47452131058E+02 -0.25272626722E+04  0.25327734229E+04  0.00000000000E+00 0.  1.
         21    1    1    2  504  505 -0.39123377444E+02 -0.15152545614E+02 -0.95432176887E+02  0.10424748767E+03  0.00000000000E+00 0. -1.
         21    1    1    2  505  502 -0.67861976332E+02 -0.27670279072E+02 -0.41563841623E+03  0.42204997954E+03  0.00000000000E+00 0. -1.
         21    1    1    2  506  504 -0.53117402540E+02 -0.46293063713E+01 -0.25683771358E+02  0.59182303447E+02  0.00000000000E+00 0. -1.
<scales pt_clust_3="153.13008" pt_clust_4="37.95377" pt_clust_5="37.95377" pt_clust_6="53.31875"></scales>
<clustering>
<clus scale="   37.954">  4  5 -1 -1</clus>
<clus scale="   53.319">  1  6  2 -1</clus>
<clus scale="  153.130">  2  3  1 -1</clus>
<clus scale="   53.319">  1  3  2 -1</clus>
</clustering>
</event>
<event>
 6    0  0.7442036E+002  0.8707951E+02  0.7546771E-02  0.1310082E+00
         21   -1    0    0  504  501  0.00000000000E+00  0.00000000000E+00  0.17663338811E+03  0.17663338811E+03  0.00000000000E+00 0. -1.
         21   -1    0    0  503  502 -0.00000000000E+00 -0.00000000000E+00 -0.19121878031E+03  0.19121878031E+03  0.00000000000E+00 0. -1.
         21    1    1    2  503  506  0.82139072844E+02  0.56393924231E+02 -0.11058305265E+03  0.14884795434E+03  0.00000000000E+00 0. -1.
         21    1    1    2  504  502 -0.27466265466E+02  0.21776829738E+02  0.70916797768E+02  0.79106373054E+02  0.00000000000E+00 0. -1.
         21    1    1    2  505  501  0.64058908931E+01 -0.71714382716E+02 -0.36473034838E+01  0.72092239175E+02  0.00000000000E+00 0. -1.
         21    1    1    2  506  505 -0.61078698272E+02 -0.64563712525E+01  0.28728166162E+02  0.67805601858E+02  0.00000000000E+00 0. -1.
<scales pt_clust_3="14000.00000" pt_clust_4="35.05176" pt_clust_5="64.44353" pt_clust_6="87.07951"></scales>
<clustering>
<clus scale="   35.052">  1  4  2 -1</clus>
<clus scale="   64.444">  1  5  2 -1</clus>
<clus scale="   87.080">  1  6  2 -1</clus>
<clus scale="   35.052">  1  3  2 -1</clus>
</clustering>
</event>
<event>
 6    0  0.7442036E+002  0.1271841E+03  0.7546771E-02  0.1231695E+00
         21   -1    0    0  504  501  0.00000000000E+00  0.00000000000E+00  0.49953062508E+02  0.49953062508E+02  0.00000000000E+00 0.  1.
         21   -1    0    0  503  502 -0.00000000000E+00 -0.00000000000E+00 -0.12451832425E+04  0.12451832425E+04  0.00000000000E+00 0.  1.
         21    1    1    2  503  506 -0.50502121449E+01 -0.37336493299E+02 -0.30375306727E+03  0.30608078059E+03  0.00000000000E+00 0. -1.
         21    1    1    2  504  505 -0.75132910500E+02  0.26959389052E+02 -0.68742086898E+03  0.69203989337E+03  0.00000000000E+00 0.  1.
         21    1    1    2  505  502 -0.54361410017E+02  0.25716561968E+02 -0.12866985955E+03  0.14202970539E+03  0.00000000000E+00 0.  1.
         21    1    1    2  506  501  0.13454453266E+03 -0.15339457721E+02 -0.75386384219E+02  0.15498592568E+03  0.00000000000E+00 0.  1.
<scales pt_clust_3="37.67650" pt_clust_4="127.18412" pt_clust_5="58.72417" pt_clust_6="14000.00000"></scales>
<clustering>
<clus scale="   37.676">  2  3  1 -1</clus>
<clus scale="   58.724">  2  5  1 -1</clus>
<clus scale="  127.184">  2  4  1 -1</clus>
<clus scale="  127.184">  1  3  2 -1</clus>
</clustering>
</event>
<event>
 6    0  0.7442036E+002  0.8382531E+02  0.7546771E-02  0.1318533E+00
         21   -1    0    0  505  501  0.00000000000E+00  0.00000000000E+00  0.81073671277E+03  0.81073671277E+03  0.00000000000E+00 0. -1.
         21   -1    0    0  506  502 -0.00000000000E+00 -0.00000000000E+00 -0.41742842191E+03  0.41742842191E+03  0.00000000000E+00 0. -1.
         21    1    1    2  503  501  0.57567692585E+02  0.97565084968E+02  0.53076833862E+02  0.12510050091E+03  0.00000000000E+00 0. -1.
         21    1    1    2  504  503 -0.31782739635E+02 -0.99367406792E+02 -0.24874844066E+03  0.26974026545E+03  0.00000000000E+00 0. -1.
         21    1    1    2  505  502 -0.15632850482E+02 -0.32305278205E+02  0.70809659263E+03  0.70900550175E+03  0.00000000000E+00 0. -1.
         21    1    1    2  506  504 -0.10152102467E+02  0.34107600029E+02 -0.11911669498E+03  0.12431886657E+03  0.00000000000E+00 0. -1.
<scales pt_clust_3="14000.00000" pt_clust_4="83.82531" pt_clust_5="35.84859" pt_clust_6="35.58642"></scales>
<clustering>
<clus scale="   35.586">  2  6  1 -1</clus>
<clus scale="   35.849">  1  5  2 -1</clus>
<clus scale="   83.825">  2  4  1 -1</clus>
<clus scale="   35.849">  1  3  2 -1</clus>
</clustering>
</event>
<event>
 6    0  0.7442036E+002  0.2016045E+03  0.7546771E-02  0.1148392E+00
         21   -1    0    0  502  501  0.00000000000E+00  0.00000000000E+00  0.10660244126E+04  0.10660244126E+04  0.00000000000E+00 0. -1.
         21   -1    0    0  503  502 -0.00000000000E+00 -0.00000000000E+00 -0.87461640357E+02  0.87461640357E+02  0.00000000000E+00 0. -1.
         21    1    1    2  503  506  0.74928950450E+02 -0.79501784573E+02  0.14634914705E+03  0.18262791191E+03  0.00000000000E+00 0. -1.
         21    1    1    2  504  505  0.23751443910E+01 -0.81279464635E+02  0.34199496909E+02  0.88213367871E+02  0.00000000000E+00 0. -1.
         21    1    1    2  505  501 -0.88491918483E+02  0.19834419542E+03  0.81237202645E+03  0.84090400692E+03  0.00000000000E+00 0. -1.
         21    1    1    2  506  504  0.11187823642E+02 -0.37562946211E+02 -0.14357898187E+02  0.41740766239E+02  0.00000000000E+00 0. -1.
<scales pt_clust_3="109.24688" pt_clust_4="32.46689" pt_clust_5="196.10576" pt_clust_6="32.46689"></scales>
<clustering>
<clus scale="   32.467">  4  6 -1 -1</clus>
<clus scale="  109.247">  2  3  1 -1</clus>
<clus scale="  196.106">  1  5  2 -1</clus>
<clus scale="  196.106">  1  3  2 -1</clus>
</clustering>
</event>
<event>
 6    0  0.7442036E+002  0.2479032E+03  0.7546771E-02  0.1114637E+00
         21   -1    0    0  505  501  0.00000000000E+00  0.00000000000E+00  0.48205496369E+03  0.48205496369E+03  0.00000000000E+00 0. -1.
         21   -1    0    0  506  502 -0.00000000000E+00 -0.00000000000E+00 -0.19133247941E+03  0.19133247941E+03  0.00000000000E+00 0. -1.
         21    1    1    2  503  504 -0.12084174196E+03 -0.18276485549E+03  0.30514110970E+02  0.22121670364E+03  0.00000000000E+00 0. -1.
         21    1    1    2  504  502  0.62731006654E+02  0.73385648241E+01  0.14584846157E+02  0.64820918437E+02  0.00000000000E+00 0. -1.
         21    1    1    2  505  503  0.15093964992E+02 -0.43135194600E+02 -0.11531099522E+02  0.47132144536E+02  0.00000000000E+00 0.  1.
         21    1    1    2  506  501  0.43016770312E+02  0.21856148527E+03  0.25715462668E+03  0.34021767648E+03  0.00000000000E+00 0. -1.
<scales pt_clust_3="44.36683" pt_clust_4="63.15880" pt_clust_5="44.36683" pt_clust_6="228.07604"></scales>
<clustering>
<clus scale="   44.367">  3  5 -1 -1</clus>
<clus scale="   63.159">  2  4  1 -1</clus>
<clus scale="  228.076">  1  6  2 -1</clus>
<clus scale="  228.076">  1  3  2 -1</clus>
</clustering>
</event>
<event>
 6    0  0.7442036E+002  0.8562823E+02  0.7546771E-02  0.1313798E+00
         21   -1    0    0  506  501  0.00000000000E+00  0.00000000000E+00  0.17295787415E+02  0.17295787415E+02  0.00000000000E+00 0. -1.
         21   -1    0    0  504  502 -0.00000000000E+00 -0.00000000000E+00 -0.10019768014E+04  0.10019768014E+04  0.00000000000E+00 0. -1.
         21    1    1    2  503  502 -0.35178658029E+02 -0.75174956786E+02 -0.39742613986E+03  0.40600042950E+03  0.00000000000E+00 0. -1.
         21    1    1    2  504  505  0.90353913791E+02  0.47634119958E+02 -0.36134490034E+03  0.37550362997E+03  0.00000000000E+00 0. -1.
         21    1    1    2  505  501 -0.24244073693E+02  0.34331702019E+02 -0.14166665616E+03  0.14776969358E+03  0.00000000000E+00 0. -1.
         21    1    1    2  506  503 -0.30931182069E+02 -0.67908651913E+01 -0.84243317605E+02  0.89998835745E+02  0.00000000000E+00 0. -1.
<scales pt_clust_3="85.62823" pt_clust_4="14000.00000" pt_clust_5="45.05665" pt_clust_6="31.66787"></scales>
<clustering>
<clus scale="   31.668">  1  6  2 -1</clus>
<clus scale="   45.057">  1  5  2 -1</clus>
<clus scale="   85.628">  2  3  1 -1</clus>
<clus scale="   31.668">  1  3  2 -1</clus>
</clustering>
</event>
<event>
 6    0  0.7442036E+002  0.1215888E+03  0.7546771E-02  0.1240499E+00
         21   -1    0    0  503  501  0.00000000000E+00  0.00000000000E+00  0.19638409289E+03  0.19638409289E+03  0.00000000000E+00 0.  1.
         21   -1    0    0  504  502 -0.00000000000E+00 -0.00000000000E+00 -0.31525027712E+03  0.31525027712E+03  0.00000000000E+00 0. -1.
         21    1    1    2  503  502  0.20240822522E+02 -0.13504463168E+03  0.45976824302E+02  0.14408543234E+03  0.00000000000E+00 0.  1.
         21    1    1    2  504  505 -0.32550390969E+02  0.24793474777E+02 -0.12709139930E+03  0.13351579727E+03  0.00000000000E+00 0. -1.
         21    1    1    2  505  506 -0.48683752576E+02  0.55926271692E+02 -0.10478746268E+03  0.12836770608E+03  0.00000000000E+00 0. -1.
         21    1    1    2  506  501  0.60993321023E+02  0.54324885208E+02  0.67035853441E+02  0.10566543431E+03  0.00000000000E+00 0.  1.
<scales pt_clust_3="114.38245" pt_clust_4="30.63336" pt_clust_5="30.63336" pt_clust_6="81.67851"></scales>
<clustering>
<clus scale="   30.633">  4  5 -1 -1</clus>
<clus scale="   81.679">  1  6  2 -1</clus>
<clus scale="  114.382">  1  3  2 -1</clus>
<clus scale="   81.679">  1  3  2 -1</clus>
</clustering>
</event>
<event>
 6    0  0.7442036E+002  0.2449927E+03  0.7546771E-02  0.1116511E+00
         21   -1    0    0  503  501  0.00000000000E+00  0.00000000000E+00  0.10882103676E+04  0.10882103676E+04  0.00000000000E+00 0. -1.
         21   -1    0    0  504  502 -0.00000000000E+00 -0.00000000000E+00 -0.12138521492E+03  0.12138521492E+03  0.00000000000E+00 0.  1.
         21    1    1    2  503  506  0.38758465277E+02 -0.21799605096E+03  0.65890910655E+03  0.69511560733E+03  0.00000000000E+00 0. -1.
         21    1    1    2  504  505 -0.38963396043E+02  0.70465521045E+02  0.92378884961E+02  0.12254547839E+03  0.00000000000E+00 0. -1.
         21    1    1    2  505  501 -0.62460511078E+02  0.22160101903E+03  0.14742765956E+03  0.27339210282E+03  0.00000000000E+00 0.  1.
         21    1    1    2  506  502  0.62665441844E+02 -0.74070489114E+02  0.68109501580E+02  0.11854239395E+03  0.00000000000E+00 0.  1.
<scales pt_clust_3="237.38511" pt_clust_4="35.82475" pt_clust_5="35.82475" pt_clust_6="97.02265"></scales>
<clustering>
<clus scale="   35.825">  4  5 -1 -1</clus>
<clus scale="   97.023">  2  6  1 -1</clus>
<clus scale="  237.385">  1  3  2 -1</clus>
<clus scale="  237.385">  1  3  2 -1</clus>
</clustering>
</event>
<event>
 6    0  0.7442036E+002  0.8005599E+02  0.7546771E-02  0.1328893E+00
         21   -1    0    0  503  501  0.00000000000E+00  0.00000000000E+00  0.93553730915E+02  0.93553730915E+02  0.00000000000E+00 0. -1.
         21   -1    0    0  505  502 -0.00000000000E+00 -0.00000000000E+00 -0.18624254247E+04  0.18624254247E+04  0.00000000000E+00 0.  1.
         21    1    1    2  503  504  0.12662360461E+02  0.35568096363E+02  0.78936975072E+02  0.87501262190E+02  0.00000000000E+00 0. -1.
         21    1    1    2  504  502 -0.16997751061E+02 -0.10838395580E+03 -0.42199951246E+03  0.43602705642E+03  0.00000000000E+00 0. -1.
         21    1    1    2  505  506 -0.49495771105E+02  0.24781583571E+02 -0.36303509929E+03  0.36723077425E+03  0.00000000000E+00 0. -1.
         21    1    1    2  506  501  0.53831161706E+02  0.48034275863E+02 -0.10627740572E+04  0.10652200628E+04  0.00000000000E+00 0.  1.
<scales pt_clust_3="37.75480" pt_clust_4="14000.00000" pt_clust_5="56.79875" pt_clust_6="80.05599"></scales>
<clustering>
<clus scale="   37.755">  1  3  2 -1</clus>
<clus scale="   56.799">  2  5  1 -1</clus>
<clus scale="   80.056">  2  6  1 -1</clus>
<clus scale="   37.755">  1  3  2 -1</clus>
</clustering>
</event>
<event>
 6    0  0.7442036E+002  0.4721528E+03  0.7546771E-02  0.1021314E+00
         21   -1    0    0  503  501  0.00000000000E+00  0.00000000000E+00  0.32900017780E+03  0.32900017780E+03  0.00000000000E+00 0. -1.
         21   -1    0    0  506  502 -0.00000000000E+00 -0.00000000000E+00 -0.78583418243E+03  0.78583418243E+03  0.00000000000E+00 0. -1.
         21    1    1    2  503  504 -0.12647052687E+03 -0.17627635658E+03 -0.35210979089E+02  0.21979072115E+03  0.00000000000E+00 0. -1.
         21    1    1    2  504  502 -0.14198582637E+03 -0.18801683310E+03 -0.20902628576E+03  0.31496395438E+03  0.00000000000E+00 0. -1.
         21    1    1    2  505  501  0.37263174189E+02 -0.17487267569E+02  0.48010529818E+02  0.63240490598E+02  0.00000000000E+00 0.  1.
         21    1    1    2  506  505  0.23119317905E+03  0.38178045726E+03 -0.26060726961E+03  0.51683919410E+03  0.00000000000E+00 0. -1.
<scales pt_clust_3="140.57992" pt_clust_4="140.57992" pt_clust_5="41.16247" pt_clust_6="448.77150"></scales>
<clustering>
<clus scale="   41.162">  1  5  2 -1</clus>
<clus scale="  140.580">  3  4 -1 -1</clus>
<clus scale="  448.771">  2  6  1 -1</clus>
<clus scale="   41.162">  1  3  2 -1</clus>
</clustering>
</event>
<event>
 6    0  0.7442036E+002  0.9070751E+02  0.7546771E-02  0.1301147E+00
         21   -1    0    0  506  501  0.00000000000E+00  0.00000000000E+00  0.25941506299E+03  0.25941506299E+03  0.00000000000E+00 0. -1.
         21   -1    0    0  505  502 -0.00000000000E+00 -0.00000000000E+00 -0.41442571879E+03  0.41442571879E+03  0.00000000000E+00 0.  1.
         21    1    1    2  503  501  0.43491897955E+02  0.54223741475E+02  0.22893153883E+03  0.23925176864E+03  0.00000000000E+00 0. -1.
         21    1    1    2  504  502 -0.31943422522E+02 -0.43136291867E+02 -0.12981303567E+03  0.14047258148E+03  0.00000000000E+00 0.  1.
         21    1    1    2  505  503  0.57367520923E+02  0.17427250794E+02 -0.17676388217E+03  0.18665532825E+03  0.00000000000E+00 0.  1.
         21    1    1    2  506  504 -0.68915996357E+02 -0.28514700402E+02 -0.77365276791E+02  0.10746110341E+03  0.00000000000E+00 0.  1.
<scales pt_clust_3="70.61218" pt_clust_4="48.30188" pt_clust_5="59.95616" pt_clust_6="48.30188"></scales>
<clustering>
<clus scale="   48.302">  4  6 -1 -1</clus>
<clus scale="   59.956">  2  5  1 -1</clus>
<clus scale="   70.612">  1  3  2 -1</clus>
<clus scale="   70.612">  1  3  2 -1</clus>
</clustering>
</event>
<event>
 6    0  0.7442036E+002  0.1122085E+03  0.7546771E-02  0.1256534E+00
         21   -1    0    0  503  501  0.00000000000E+00  0.00000000000E+00  0.67488747761E+02  0.67488747761E+02  0.00000000000E+00 0. -1.
         21   -1    0    0  506  502 -0.00000000000E+00 -0.00000000000E+00 -0.92284762276E+03  0.92284762276E+03  0.00000000000E+00 0.  1.
         21    1    1    2  503  504 -0.87777712512E+02 -0.73094543076E+02 -0.22120470009E+02  0.11634884716E+03  0.00000000000E+00 0. -1.
         21    1    1    2  504  505  0.82840149907E+02 -0.47453042300E+02 -0.29260893826E+03  0.30778933122E+03  0.00000000000E+00 0.  1.
         21    1    1    2  505  502 -0.37207143977E+02  0.13300984923E+02 -0.25756646609E+03  0.26057968496E+03  0.00000000000E+00 0. -1.
         21    1    1    2  506  501  0.42144706582E+02  0.10724660045E+03 -0.28306300064E+03  0.30561850718E+03  0.00000000000E+00 0.  1.
<scales pt_clust_3="112.20851" pt_clust_4="77.94076" pt_clust_5="39.51313" pt_clust_6="14000.00000"></scales>
<clustering>
<clus scale="   39.513">  2  5  1 -1</clus>
<clus scale="   77.941">  2  4  1 -1</clus>
<clus scale="  112.209">  1  3  2 -1</clus>
<clus scale="  112.209">  1  3  2 -1</clus>
</clustering>
</event>
<event>
 6    0  0.7442036E+002  0.1211376E+03  0.7546771E-02  0.1241232E+00
         21   -1    0    0  503  501  0.00000000000E+00  0.00000000000E+00  0.21679962766E+04  0.21679962766E+04  0.00000000000E+00 0. -1.
         21   -1    0    0  506  502 -0.00000000000E+00 -0.00000000000E+00 -0.18346879663E+03  0.18346879663E+03  0.00000000000E+00 0. -1.
         21    1    1    2  503  505 -0.41814732355E+02  0.10904900753E+02  0.30253170109E+03  0.30560238688E+03  0.00000000000E+00 0. -1.
         21    1    1    2  504  501 -0.42869651699E+02 -0.16805193983E+02  0.17514743704E+04  0.17520795335E+04  0.00000000000E+00 0. -1.
         21    1    1    2  505  502 -0.23334716340E+02  0.90543575032E+02  0.55023290407E+02  0.10849060076E+03  0.00000000000E+00 0.  1.
         21    1    1    2  506  504  0.10801910039E+03 -0.84643281803E+02 -0.12450188201E+03  0.18529255200E+03  0.00000000000E+00 0. -1.
<scales pt_clust_3="43.21329" pt_clust_4="82.42956" pt_clust_5="121.13762" pt_clust_6="14000.00000"></scales>
<clustering>
<clus scale="   43.213">  1  3  2 -1</clus>
<clus scale="   82.430">  1  4  2 -1</clus>
<clus scale="  121.138">  1  5  2 -1</clus>
<clus scale="   43.213">  1  3  2 -1</clus>
</clustering>
</event>
<event>
 6    0  0.7442036E+002  0.1110267E+03  0.7546771E-02  0.1258680E+00
         21   -1    0    0  505  501  0.00000000000E+00  0.00000000000E+00  0.11035437785E+04  0.11035437785E+04  0.00000000000E+00 0. -1.
         21   -1    0    0  504  502 -0.00000000000E+00 -0.00000000000E+00 -0.34449641280E+03  0.34449641280E+03  0.00000000000E+00 0. -1.
         21    1    1    2  503  501 -0.25579978765E+02  0.30497057620E+02  0.10107563270E+04  0.10115397958E+04  0.00000000000E+00 0. -1.
         21    1    1    2  504  506  0.60322667878E+02  0.46632202746E+02 -0.24080283096E+03  0.25258541128E+03  0.00000000000E+00 0. -1.
         21    1    1    2  505  502  0.35070929475E+02  0.22979500580E+02 -0.40538244492E+02  0.58321323781E+02  0.00000000000E+00 0. -1.
         21    1    1    2  506  503 -0.69813618589E+02 -0.10010876095E+03  0.29632114109E+02  0.12559366045E+03  0.00000000000E+00 0. -1.
<scales pt_clust_3="39.80460" pt_clust_4="111.02668" pt_clust_5="41.65235" pt_clust_6="14000.00000"></scales>
<clustering>
<clus scale="   39.805">  1  3  2 -1</clus>
<clus scale="   41.652">  2  5  1 -1</clus>
<clus scale="  111.027">  2  4  1 -1</clus>
<clus scale="   39.805">  1  3  2 -1</clus>
</clustering>
</event>
<event>
 6    0  0.7442036E+002  0.9500772E+02  0.7546771E-02  0.1291159E+00
         21   -1    0    0  503  501  0.00000000000E+00  0.00000000000E+00  0.25790545259E+03  0.25790545259E+03  0.00000000000E+00 0.  1.
         21   -1    0    0  505  502 -0.00000000000E+00 -0.00000000000E+00 -0.14714183198E+04  0.14714183198E+04  0.00000000000E+00 0.  1.
         21    1    1    2  503  506  0.66669800570E+02 -0.91407473142E+02 -0.28776855849E+03  0.30921017401E+03  0.00000000000E+00 0.  1.
         21    1    1    2  504  501  0.17192891822E+02  0.45322483321E+02  0.24079773415E+03  0.24562832042E+03  0.00000000000E+00 0.  1.
         21    1    1    2  505  504  0.17802035365E+01  0.30099467868E+02 -0.10144912944E+03  0.10583512156E+03  0.00000000000E+00 0.  1.
         21    1    1    2  506  502 -0.85642895928E+02  0.15985521953E+02 -0.10650929134E+04  0.10686501564E+04  0.00000000000E+00 0.  1.
<scales pt_clust_3="14000.00000" pt_clust_4="48.52476" pt_clust_5="30.15207" pt_clust_6="95.00772"></scales>
<clustering>
<clus scale="   30.152">  2  5  1 -1</clus>
<clus scale="   48.525">  1  4  2 -1</clus>
<clus scale="   95.008">  2  6  1 -1</clus>
<clus scale="   48.525">  1  3  2 -1</clus>
</clustering>
</event>
<event>
 6    0  0.7442036E+002  0.8616007E+02  0.7546771E-02  0.1312426E+00
         21   -1    0    0  504  501  0.00000000000E+00  0.00000000000E+00  0.34865183369E+03  0.34865183369E+03  0.00000000000E+00 0. -1.
         21   -1    0    0  503  502 -0.00000000000E+00 -0.00000000000E+00 -0.58597023401E+03  0.58597023401E+03  0.00000000000E+00 0. -1.
         21    1    1    2  503  505  0.41083528682E+02 -0.13147298619E+02 -0.30559460069E+03  0.30862399090E+03  0.00000000000E+00 0. -1.
         21    1    1    2  504  502 -0.50640689475E+02  0.12188449421E+03  0.27669335746E+03  0.30656079890E+03  0.00000000000E+00 0. -1.
         21    1    1    2  505  506  0.17547767756E+02 -0.38254462965E+02 -0.23864727584E+03  0.24233004427E+03  0.00000000000E+00 0. -1.
         21    1    1    2  506  501 -0.79906069625E+01 -0.70482732622E+02  0.30230118743E+02  0.77107233621E+02  0.00000000000E+00 0. -1.
<scales pt_clust_3="35.21999" pt_clust_4="78.43595" pt_clust_5="35.21999" pt_clust_6="70.93423"></scales>
<clustering>
<clus scale="   35.220">  3  5 -1 -1</clus>
<clus scale="   70.934">  1  6  2 -1</clus>
<clus scale="   78.436">  1  4  2 -1</clus>
<clus scale="   70.934">  1  3  2 -1</clus>
</clustering>
</event>
<event>
 6    0  0.7442036E+002  0.1690411E+03  0.7546771E-02  0.1178852E+00
         21   -1    0    0  505  501  0.00000000000E+00  0.00000000000E+00  0.22341204763E+03  0.22341204763E+03  0.00000000000E+00 0. -1.
         21   -1    0    0  504  502 -0.00000000000E+00 -0.00000000000E+00 -0.25718931486E+03  0.25718931486E+03  0.00000000000E+00 0. -1.
         21    1    1    2  503  502 -0.70514644295E+02  0.33867923728E+02 -0.11546910955E+03  0.13947209964E+03  0.00000000000E+00 0. -1.
         21    1    1    2  504  501  0.14437447531E+03 -0.11196215319E+03  0.74886009940E+02  0.19745234198E+03  0.00000000000E+00 0. -1.
         21    1    1    2  505  506 -0.94673794957E+01  0.38042156661E+02  0.44238305911E+02  0.59108922066E+02  0.00000000000E+00 0. -1.
         21    1    1    2  506  503 -0.64392451519E+02  0.40052072800E+02 -0.37432473528E+02  0.84567998809E+02  0.00000000000E+00 0. -1.
<scales pt_clust_3="56.05619" pt_clust_4="159.44875" pt_clust_5="39.20251" pt_clust_6="56.05619"></scales>
<clustering>
<clus scale="   39.203">  1  5  2 -1</clus>
<clus scale="   56.056">  3  6 -1 -1</clus>
<clus scale="  159.449">  1  4  2 -1</clus>
<clus scale="   39.203">  1  3  2 -1</clus>
</clustering>
</event>
<event>
 6    0  0.7442036E+002  0.1399967E+03  0.7546771E-02  0.1213333E+00
         21   -1    0    0  506  501  0.00000000000E+00  0.00000000000E+00  0.19210792292E+03  0.19210792292E+03  0.00000000000E+00 0.  1.
         21   -1    0    0  504  502 -0.00000000000E+00 -0.00000000000E+00 -0.37004566395E+03  0.37004566395E+03  0.00000000000E+00 0. -1.
         21    1    1    2  503  502  0.12100222670E+02 -0.33854974128E+02 -0.10447633786E+03  0.11048927475E+03  0.00000000000E+00 0. -1.
         21    1    1    2  504  501 -0.25699282622E+02  0.29821895155E+02  0.31805478473E+01  0.39495752209E+02  0.00000000000E+00 0. -1.
         21    1    1    2  505  503  0.97560384810E+02 -0.40930276398E+02 -0.21765386284E+03  0.24200520701E+03  0.00000000000E+00 0. -1.
         21    1    1    2  506  505 -0.83961324858E+02  0.44963355372E+02  0.14101191181E+03  0.17016335290E+03  0.00000000000E+00 0.  1.
<scales pt_clust_3="31.20889" pt_clust_4="39.36748" pt_clust_5="31.20889" pt_clust_6="129.35563"></scales>
<clustering>
<clus scale="   31.209">  3  5 -1 -1</clus>
<clus scale="   39.367">  1  4  2 -1</clus>
<clus scale="  129.356">  1  6  2 -1</clus>
<clus scale="   39.367">  1  3  2 -1</clus>
</clustering>
</event>
<event>
 6    0  0.7442036E+002  0.1388441E+03  0.7546771E-02  0.1214893E+00
         21   -1    0    0  503  501  0.00000000000E+00  0.00000000000E+00  0.22847584328E+03  0.22847584328E+03  0.00000000000E+00 0. -1.
         21   -1    0    0  504  502 -0.00000000000E+00 -0.00000000000E+00 -0.26033713345E+03  0.26033713345E+03  0.00000000000E+00 0. -1.
         21    1    1    2  503  506 -0.25357022859E+02  0.15229434167E+03  0.95250776359E+02  0.18140908331E+03  0.00000000000E+00 0. -1.
         21    1    1    2  504  505  0.82765004786E+02 -0.11900645681E+03 -0.16233058847E+03  0.21763226491E+03  0.00000000000E+00 0. -1.
         21    1    1    2  505  501 -0.20135060209E+02 -0.26712549379E+02  0.39409023793E+02  0.51691895886E+02  0.00000000000E+00 0. -1.
         21    1    1    2  506  502 -0.37272921719E+02 -0.65753354746E+01 -0.41905018623E+01  0.38079732614E+02  0.00000000000E+00 0. -1.
<scales pt_clust_3="14000.00000" pt_clust_4="138.84409" pt_clust_5="33.45117" pt_clust_6="40.17071"></scales>
<clustering>
<clus scale="   33.451">  1  5  2 -1</clus>
<clus scale="   40.171">  2  6  1 -1</clus>
<clus scale="  138.844">  2  4  1 -1</clus>
<clus scale="   33.451">  1  3  2 -1</clus>
</clustering>
</event>
<event>
 6    0  0.7442036E+002  0.1587188E+03  0.7546771E-02  0.1190151E+00
         21   -1    0    0  504  501  0.00000000000E+00  0.00000000000E+00  0.96454736913E+03  0.96454736913E+03  0.00000000000E+00 0.  1.
         21   -1    0    0  505  502 -0.00000000000E+00 -0.00000000000E+00 -0.93329074553E+02  0.93329074553E+02  0.00000000000E+00 0.  1.
         21    1    1    2  503  501 -0.60466762433E+02  0.41957627165E+02  0.37464618781E+02  0.82584922940E+02  0.00000000000E+00 0.  1.
         21    1    1    2  504  506  0.28931981545E+02  0.68694368667E+02  0.46924516099E+03  0.47512840049E+03  0.00000000000E+00 0.  1.
         21    1    1    2  505  503 -0.68636157750E+02  0.14586004211E+02 -0.28467442239E+02  0.75723635261E+02  0.00000000000E+00 0.  1.
         21    1    1    2  506  502  0.10017093864E+03 -0.12523800004E+03  0.39297595705E+03  0.42443948499E+03  0.00000000000E+00 0.  1.
<scales pt_clust_3="69.83938" pt_clust_4="74.53842" pt_clust_5="69.83938" pt_clust_6="141.68898"></scales>
<clustering>
<clus scale="   69.839">  3  5 -1 -1</clus>
<clus scale="   74.538">  1  4  2 -1</clus>
<clus scale="  141.689">  1  6  2 -1</clus>
<clus scale="   74.538">  1  3  2 -1</clus>
</clustering>
</event>
<event>
 6    0  0.7442036E+002  0.9122078E+02  0.7546771E-02  0.1299922E+00
         21   -1    0    0  503  501  0.00000000000E+00  0.00000000000E+00  0.67970874015E+03  0.67970874015E+03  0.00000000000E+00 0.  1.
         21   -1    0    0  506  502 -0.00000000000E+00 -0.00000000000E+00 -0.22423179172E+03  0.22423179172E+03  0.00000000000E+00 0. -1.
         21    1    1    2  503  504 -0.29213683581E+02  0.87697397064E+02  0.58953858813E+03  0.59674116638E+03  0.00000000000E+00 0.  1.
         21    1    1    2  504  505 -0.81661573048E+02 -0.28781525952E+02  0.25251773081E+02  0.90192243528E+02  0.00000000000E+00 0.  1.
         21    1    1    2  505  502  0.36786533070E+02 -0.40819340336E+02 -0.20551125509E+02  0.58666995155E+02  0.00000000000E+00 0. -1.
         21    1    1    2  506  501  0.74088723559E+02 -0.18096530775E+02 -0.13876228727E+03  0.15834012680E+03  0.00000000000E+00 0. -1.
<scales pt_clust_3="91.22078" pt_clust_4="83.34848" pt_clust_5="54.94968" pt_clust_6="14000.00000"></scales>
<clustering>
<clus scale="   54.950">  2  5  1 -1</clus>
<clus scale="   83.348">  2  4  1 -1</clus>
<clus scale="   91.221">  1  3  2 -1</clus>
<clus scale="   91.221">  1  3  2 -1</clus>
</clustering>
</event>
<event>
 6    0  0.7442036E+002  0.1288307E+03  0.7546771E-02  0.1229201E+00
         21   -1    0    0  506  501  0.00000000000E+00  0.00000000000E+00  0.39694075504E+03  0.39694075504E+03  0.00000000000E+00 0.  1.
         21   -1    0    0  503  502 -0.00000000000E+00 -0.00000000000E+00 -0.29517631241E+03  0.29517631241E+03  0.00000000000E+00 0.  1.
         21    1    1    2  503  504 -0.13914348910E+03 -0.46164510914E+02 -0.16705052579E+03  0.22225649775E+03  0.00000000000E+00 0.  1.
         21    1    1    2  504  501  0.64438990517E+01  0.40429195611E+02  0.71461106343E+02  0.82357351903E+02  0.00000000000E+00 0.  1.
         21    1    1    2  505  502  0.11799294490E+02  0.29382354178E+02 -0.78905502175E+02  0.85021317097E+02  0.00000000000E+00 0.  1.
         21    1    1    2  506  505  0.12090029556E+03 -0.23647038876E+02  0.27625936425E+03  0.30248190069E+03  0.00000000000E+00 0.  1.
<scales pt_clust_3="128.83069" pt_clust_4="41.72879" pt_clust_5="31.66301" pt_clust_6="14000.00000"></scales>
<clustering>
<clus scale="   31.663">  2  5  1 -1</clus>
<clus scale="   41.729">  1  4  2 -1</clus>
<clus scale="  128.831">  2  3  1 -1</clus>
<clus scale="   41.729">  1  3  2 -1</clus>
</clustering>
</event>
<event>
 6    0  0.7442036E+002  0.9397155E+02  0.7546771E-02  0.1293509E+00
         21   -1    0    0  504  501  0.00000000000E+00  0.00000000000E+00  0.37045399634E+04  0.37045399634E+04  0.00000000000E+00 0.  1.
         21   -1    0    0  503  502 -0.00000000000E+00 -0.00000000000E+00 -0.63785057540E+02  0.63785057540E+02  0.00000000000E+00 0.  1.
         21    1    1    2  503  506  0.40164951894E+02  0.66903527378E+02 -0.18843200907E+02  0.80276843216E+02  0.00000000000E+00 0.  1.
         21    1    1    2  504  505  0.34164376282E+02 -0.26522796165E+02  0.31835349562E+04  0.31838287455E+04  0.00000000000E+00 0.  1.
         21    1    1    2  505  502  0.35163879877E+02 -0.93097420790E+01  0.42381015495E+02  0.55850874837E+02  0.00000000000E+00 0.  1.
         21    1    1    2  506  501 -0.10949320805E+03 -0.31070989133E+02  0.43368213513E+03  0.44836855745E+03  0.00000000000E+00 0.  1.
<scales pt_clust_3="14000.00000" pt_clust_4="43.33740" pt_clust_5="36.37540" pt_clust_6="93.97155"></scales>
<clustering>
<clus scale="   36.375">  2  5  1 -1</clus>
<clus scale="   43.337">  1  4  2 -1</clus>
<clus scale="   93.972">  1  6  2 -1</clus>
<clus scale="   43.337">  1  3  2 -1</clus>
</clustering>
</event>
<event>
 6    0  0.7442036E+002  0.9608792E+02  0.7546771E-02  0.1288744E+00
         21   -1    0    0  505  501  0.00000000000E+00  0.00000000000E+00  0.29335003689E+04  0.29335003689E+04  0.00000000000E+00 0. -1.
         21   -1    0    0  504  502 -0.00000000000E+00 -0.00000000000E+00 -0.30689308915E+03  0.30689308915E+03  0.00000000000E+00 0.  1.
         21    1    1    2  503  502 -0.28237376762E+02  0.10212417211E+02 -0.40649052618E+02  0.50537000212E+02  0.00000000000E+00 0.  1.
         21    1    1    2  504  501  0.53048863660E+02  0.11612337924E+02 -0.19776672217E+03  0.20508706621E+03  0.00000000000E+00 0.  1.
         21    1    1    2  505  506  0.94072867102E+02  0.17613623872E+02  0.28576979103E+04  0.28593001400E+04  0.00000000000E+00 0. -1.
         21    1    1    2  506  503 -0.11888435400E+03 -0.39438379007E+02  0.73251442363E+01  0.12546925162E+03  0.00000000000E+00 0.  1.
<scales pt_clust_3="30.02737" pt_clust_4="36.85374" pt_clust_5="14000.00000" pt_clust_6="96.08792"></scales>
<clustering>
<clus scale="   30.027">  2  3  1 -1</clus>
<clus scale="   36.854">  2  4  1 -1</clus>
<clus scale="   96.088">  2  6  1 -1</clus>
<clus scale="   96.088">  1  3  2 -1</clus>
</clustering>
</event>
<event>
 6    0  0.7442036E+002  0.1879493E+03  0.7546771E-02  0.1160324E+00
         21   -1    0    0  505  501  0.00000000000E+00  0.00000000000E+00  0.13477679380E+03  0.13477679380E+03  0.00000000000E+00 0.  1.
         21   -1    0    0  506  502 -0.00000000000E+00 -0.00000000000E+00 -0.29873125552E+03  0.29873125552E+03  0.00000000000E+00 0.  1.
         21    1    1    2  503  501  0.98935007088E+00  0.54906803527E+02 -0.98277349485E+02  0.11257963097E+03  0.00000000000E+00 0.  1.
         21    1    1    2  504  503  0.81800866422E+01  0.65015578394E+02 -0.43974423446E+02  0.78915709265E+02  0.00000000000E+00 0.  1.
         21    1    1    2  505  502 -0.57544721164E+02 -0.15344518530E+03  0.26409414359E+02  0.16599481014E+03  0.00000000000E+00 0.  1.
         21    1    1    2  506  504  0.48375284451E+02  0.33522803377E+02 -0.48112103150E+02  0.76017898955E+02  0.00000000000E+00 0.  1.
<scales pt_clust_3="40.62618" pt_clust_4="52.59267" pt_clust_5="163.88050" pt_clust_6="52.59267"></scales>
<clustering>
<clus scale="   40.626">  3  4 -1 -1</clus>
<clus scale="   52.593">  3  6 -1 -1</clus>
<clus scale="  163.881">  1  5  2 -1</clus>
<clus scale="  163.881">  1  3  2 -1</clus>
</clustering>
</event>
<event>
 6    0  0.7442036E+002  0.2096537E+03  0.7546771E-02  0.1141841E+00
         21   -1    0    0  506  501  0.00000000000E+00  0.00000000000E+00  0.71391047768E+03  0.71391047768E+03  0.00000000000E+00 0. -1.
         21   -1    0    0  505  502 -0.00000000000E+00 -0.00000000000E+00 -0.26933315648E+03  0.26933315648E+03  0.00000000000E+00 0. -1.
         21    1    1    2  503  502  0.76832962747E+02  0.94050230797E+02 -0.12523354384E+03  0.17444824613E+03  0.00000000000E+00 0. -1.
         21    1    1    2  504  503  0.71589927474E+02  0.45024675479E+02 -0.68584760984E+02  0.10888621840E+03  0.00000000000E+00 0.  1.
         21    1    1    2  505  501 -0.17986317202E+03 -0.16657665147E+03  0.54563687706E+03  0.59817902259E+03  0.00000000000E+00 0. -1.
         21    1    1    2  506  504  0.31440281796E+02  0.27501745193E+02  0.92758748960E+02  0.10173014704E+03  0.00000000000E+00 0.  1.
<scales pt_clust_3="30.56686" pt_clust_4="30.56686" pt_clust_5="206.42912" pt_clust_6="41.77125"></scales>
<clustering>
<clus scale="   30.567">  3  4 -1 -1</clus>
<clus scale="   41.771">  1  6  2 -1</clus>
<clus scale="  206.429">  1  5  2 -1</clus>
<clus scale="   41.771">  1  3  2 -1</clus>
</clustering>
</event>
<event>
 6    0  0.7442036E+002  0.1988055E+03  0.7546771E-02  0.1150751E+00
         21   -1    0    0  505  501  0.00000000000E+00  0.00000000000E+00  0.76291700737E+02  0.76291700737E+02  0.00000000000E+00 0.  1.
         21   -1    0    0  506  502 -0.00000000000E+00 -0.00000000000E+00 -0.14972116823E+04  0.14972116823E+04  0.00000000000E+00 0.  1.
         21    1    1    2  503  502 -0.44713231698E+02  0.39510262072E+02 -0.13505887539E+03  0.14765240844E+03  0.00000000000E+00 0.  1.
         21    1    1    2  504  503 -0.16872868759E+03 -0.16446902060E+03 -0.34726091173E+03  0.41965410705E+03  0.00000000000E+00 0.  1.
         21    1    1    2  505  504  0.19431972410E+03  0.40204472958E+01 -0.31080720041E+03  0.36657527876E+03  0.00000000000E+00 0.  1.
         21    1    1    2  506  501  0.19122195185E+02  0.12093831123E+03 -0.62779299402E+03  0.63962158876E+03  0.00000000000E+00 0.  1.
<scales pt_clust_3="59.66853" pt_clust_4="198.80549" pt_clust_5="14000.00000" pt_clust_6="139.41614"></scales>
<clustering>
<clus scale="   59.669">  2  3  1 -1</clus>
<clus scale="  139.416">  2  6  1 -1</clus>
<clus scale="  198.805">  2  4  1 -1</clus>
<clus scale="  198.805">  1  3  2 -1</clus>
</clustering>
</event>
<event>
 6    0  0.7442036E+002  0.6775568E+02  0.7546771E-02  0.1367896E+00
         21   -1    0    0  504  501  0.00000000000E+00  0.00000000000E+00  0.19760291319E+03  0.19760291319E+03  0.00000000000E+00 0.  1.
         21   -1    0    0  506  502 -0.00000000000E+00 -0.00000000000E+00 -0.64492613904E+03  0.64492613904E+03  0.00000000000E+00 0.  1.
         21    1    1    2  503  501  0.53691488886E+02  0.33180235700E+02  0.10706925016E+03  0.12428808611E+03  0.00000000000E+00 0.  1.
         21    1    1    2  504  505 -0.18518362244E+02 -0.87764009628E+02  0.30860991436E+02  0.94857007746E+02  0.00000000000E+00 0. -1.
         21    1    1    2  505  502 -0.34529637460E+02 -0.42294888669E+02 -0.35424464387E+02  0.65084914902E+02  0.00000000000E+00 0.  1.
         21    1    1    2  506  503 -0.64348918199E+00  0.96878662598E+02 -0.54982900306E+03  0.55829904348E+03  0.00000000000E+00 0.  1.
<scales pt_clust_3="62.36997" pt_clust_4="14000.00000" pt_clust_5="54.59994" pt_clust_6="67.75568"></scales>
<clustering>
<clus scale="   54.600">  2  5  1 -1</clus>
<clus scale="   62.370">  1  3  2 -1</clus>
<clus scale="   67.756">  2  6  1 -1</clus>
<clus scale="   62.370">  1  3  2 -1</clus>
</clustering>
</event>
<event>
 6    0  0.7442036E+002  0.1274558E+03  0.7546771E-02  0.1231280E+00
         21   -1    0    0  505  501  0.00000000000E+00  0.00000000000E+00  0.56691697826E+03  0.56691697826E+03  0.00000000000E+00 0.  1.
         21   -1    0    0  504  502 -0.00000000000E+00 -0.00000000000E+00 -0.72439858571E+03  0.72439858571E+03  0.00000000000E+00 0.  1.
         21    1    1    2  503  506  0.37637903787E+02  0.46979546667E+02 -0.28816670340E+03  0.29438705569E+03  0.00000000000E+00 0.  1.
         21    1    1    2  504  501 -0.63060008223E+02 -0.10858536049E+03  0.48292655995E+00  0.12556901834E+03  0.00000000000E+00 0.  1.
         21    1    1    2  505  503 -0.38748695674E+02  0.39752653202E+02  0.49611954875E+03  0.49921572642E+03  0.00000000000E+00 0.  1.
         21    1    1    2  506  502  0.64170800110E+02  0.21853160621E+02 -0.36591737936E+03  0.37214376353E+03  0.00000000000E+00 0.  1.
<scales pt_clust_3="34.42289" pt_clust_4="122.10896" pt_clust_5="55.51338" pt_clust_6="34.42289"></scales>
<clustering>
<clus scale="   34.423">  3  6 -1 -1</clus>
<clus scale="   55.513">  1  5  2 -1</clus>
<clus scale="  122.109">  1  4  2 -1</clus>
<clus scale="   55.513">  1  3  2 -1</clus>
</clustering>
</event>
<event>
 6    0  0.7442036E+002  0.8482629E+02  0.7546771E-02  0.1315887E+00
         21   -1    0    0  503  501  0.00000000000E+00  0.00000000000E+00  0.64374131658E+02  0.64374131658E+02  0.00000000000E+00 0.  1.
         21   -1    0    0  506  502 -0.00000000000E+00 -0.00000000000E+00 -0.78759999221E+03  0.78759999221E+03  0.00000000000E+00 0.  1.
         21    1    1    2  503  504 -0.21507137536E+02 -0.33573873436E+02  0.11908863452E+02  0.41612293510E+02  0.00000000000E+00 0.  1.
         21    1    1    2  504  505 -0.77558936595E+02 -0.22886031642E+02 -0.47924998326E+02  0.93999811460E+02  0.00000000000E+00 0.  1.
         21    1    1    2  505  502  0.28945746653E+02  0.89858174100E+02 -0.18013812422E+03  0.20337672310E+03  0.00000000000E+00 0.  1.
         21    1    1    2  506  501  0.70120327477E+02 -0.33398269023E+02 -0.50707160146E+03  0.51298529580E+03  0.00000000000E+00 0.  1.
<scales pt_clust_3="39.87182" pt_clust_4="84.82629" pt_clust_5="14000.00000" pt_clust_6="77.33899"></scales>
<clustering>
<clus scale="   39.872">  1  3  2 -1</clus>
<clus scale="   77.339">  2  6  1 -1</clus>
<clus scale="   84.826">  1  4  2 -1</clus>
<clus scale="   39.872">  1  3  2 -1</clus>
</clustering>
</event>
<event>
 6    0  0.7442036E+002  0.9750698E+02  0.7546771E-02  0.1285627E+00
         21   -1    0    0  503  501  0.00000000000E+00  0.00000000000E+00  0.22129491430E+03  0.22129491430E+03  0.00000000000E+00 0. -1.
         21   -1    0    0  505  502 -0.00000000000E+00 -0.00000000000E+00 -0.51751767595E+03  0.51751767595E+03  0.00000000000E+00 0. -1.
         21    1    1    2  503  504  0.63594829823E+02  0.12315263498E+02  0.15610430534E+03  0.16901042051E+03  0.00000000000E+00 0. -1.
         21    1    1    2  504  502 -0.14648479211E+02  0.11785757688E+03 -0.63715373697E+02  0.13477624129E+03  0.00000000000E+00 0. -1.
         21    1    1    2  505  506  0.33119995600E+02 -0.87210574259E+02 -0.26225032569E+03  0.27834843577E+03  0.00000000000E+00 0. -1.
         21    1    1    2  506  501 -0.82066346212E+02 -0.42962266116E+02 -0.12636136760E+03  0.15667749268E+03  0.00000000000E+00 0. -1.
<scales pt_clust_3="64.77629" pt_clust_4="14000.00000" pt_clust_5="97.50698" pt_clust_6="76.76802"></scales>
<clustering>
<clus scale="   64.776">  1  3  2 -1</clus>
<clus scale="   76.768">  1  6  2 -1</clus>
<clus scale="   97.507">  2  5  1 -1</clus>
<clus scale="   64.776">  1  3  2 -1</clus>
</clustering>
</event>
<event>
 6    0  0.7442036E+002  0.1550443E+03  0.7546771E-02  0.1194408E+00
         21   -1    0    0  503  501  0.00000000000E+00  0.00000000000E+00  0.25206791168E+04  0.25206791168E+04  0.00000000000E+00 0. -1.
         21   -1    0    0  505  502 -0.00000000000E+00 -0.00000000000E+00 -0.15433924793E+03  0.15433924793E+03  0.00000000000E+00 0. -1.
         21    1    1    2  503  506  0.14106633516E+02 -0.34880232242E+02  0.91330702865E+02  0.98777148148E+02  0.00000000000E+00 0. -1.
         21    1    1    2  504  501 -0.17878435368E+03 -0.72946218178E+01  0.21107467675E+04  0.21183174864E+04  0.00000000000E+00 0. -1.
         21    1    1    2  505  504  0.13802674836E+03  0.70280994452E+02 -0.10420273617E+03  0.18667889990E+03  0.00000000000E+00 0. -1.
         21    1    1    2  506  502  0.26650971806E+02 -0.28106140392E+02  0.26846513465E+03  0.27124483027E+03  0.00000000000E+00 0.  1.
<scales pt_clust_3="37.62483" pt_clust_4="155.04428" pt_clust_5="14000.00000" pt_clust_6="42.65598"></scales>
<clustering>
<clus scale="   37.625">  1  3  2 -1</clus>
<clus scale="   42.656">  1  6  2 -1</clus>
<clus scale="  155.044">  1  4  2 -1</clus>
<clus scale="   37.625">  1  3  2 -1</clus>
</clustering>
</event>
<event>
 6    0  0.7442036E+002  0.1076121E+03  0.7546771E-02  0.1265057E+00
         21   -1    0    0  506  501  0.00000000000E+00  0.00000000000E+00  0.13037750895E+04  0.13037750895E+04  0.00000000000E+00 0. -1.
         21   -1    0    0  504  502 -0.00000000000E+00 -0.00000000000E+00 -0.66354719863E+03  0.66354719863E+03  0.00000000000E+00 0.  1.
         21    1    1    2  503  505 -0.34556428919E+02  0.15596085344E+03  0.89770415632E+02  0.18323935742E+03  0.00000000000E+00 0.  1.
         21    1    1    2  504  503 -0.48790535068E+02 -0.95201495512E+02 -0.55987108391E+03  0.56999953654E+03  0.00000000000E+00 0.  1.
         21    1    1    2  505  501  0.78042289562E+02 -0.18746963902E+02 -0.20197414260E+02  0.82764625043E+02  0.00000000000E+00 0.  1.
         21    1    1    2  506  502  0.53046744238E+01 -0.42012394026E+02  0.11305259734E+04  0.11313187691E+04  0.00000000000E+00 0. -1.
<scales pt_clust_3="107.61206" pt_clust_4="14000.00000" pt_clust_5="83.28099" pt_clust_6="42.34597"></scales>
<clustering>
<clus scale="   42.346">  1  6  2 -1</clus>
<clus scale="   83.281">  1  5  2 -1</clus>
<clus scale="  107.612">  1  3  2 -1</clus>
<clus scale="   42.346">  1  3  2 -1</clus>
</clustering>
</event>
