<event>
 4    0  0.2259196E-002  0.1769940E+03  0.7546771E-02  0.1170744E+00
         21   -1    0    0  502  501  0.00000000000E+00  0.00000000000E+00  0.29085549503E+02  0.29085549503E+02  0.00000000000E+00 0. -1.
         21   -1    0    0  501  502 -0.00000000000E+00 -0.00000000000E+00 -0.10770592142E+04  0.10770592142E+04  0.00000000000E+00 0. -1.
         25    1    1    2    0    0  0.79960008752E+02  0.94988661860E+02 -0.47119602551E+03  0.50305779323E+03  0.12500000000E+03 0.  0.
         25    1    1    2    0    0 -0.79960008752E+02 -0.94988661860E+02 -0.57677763924E+03  0.60308697052E+03  0.12500000000E+03 0.  0.
</event>
<event>
 4    0  0.2259196E-002  0.1867460E+03  0.7546771E-02  0.1161429E+00
         21   -1    0    0  502  501  0.00000000000E+00  0.00000000000E+00  0.17509681110E+03  0.17509681110E+03  0.00000000000E+00 0.  1.
         21   -1    0    0  501  502 -0.00000000000E+00 -0.00000000000E+00 -0.19917030160E+03  0.19917030160E+03  0.00000000000E+00 0.  1.
         25    1    1    2    0    0  0.10140179299E+03  0.40729221092E+02  0.73626852617E+02  0.18162352958E+03  0.12500000000E+03 0.  0.
         25    1    1    2    0    0 -0.10140179299E+03 -0.40729221092E+02 -0.97700343115E+02  0.19264358312E+03  0.12500000000E+03 0.  0.
</event>
<event>
 4    0  0.2259196E-002  0.1999220E+03  0.7546771E-02  0.1149805E+00
         21   -1    0    0  502  501  0.00000000000E+00  0.00000000000E+00  0.44140330091E+03  0.44140330091E+03  0.00000000000E+00 0. -1.
         21   -1    0    0  501  502 -0.00000000000E+00 -0.00000000000E+00 -0.90549418142E+02  0.90549418142E+02  0.00000000000E+00 0. -1.
         25    1    1    2    0    0  0.14630725127E+03  0.16481796708E+02  0.24412445991E+03  0.31128638474E+03  0.12500000000E+03 0.  0.
         25    1    1    2    0    0 -0.14630725127E+03 -0.16481796708E+02  0.10672942286E+03  0.22066633431E+03  0.12500000000E+03 0.  0.
</event>
<event>
 4    0  0.2259196E-002  0.2018969E+03  0.7546771E-02  0.1148148E+00
         21   -1    0    0  502  501  0.00000000000E+00  0.00000000000E+00  0.59885769168E+03  0.59885769168E+03  0.00000000000E+00 0.  1.
         21   -1    0    0  501  502 -0.00000000000E+00 -0.00000000000E+00 -0.68066833812E+02  0.68066833812E+02  0.00000000000E+00 0.  1.
         25    1    1    2    0    0 -0.79915882016E+02  0.50261804559E+02  0.55015923795E+02  0.16602574820E+03  0.12500000000E+03 0.  0.
         25    1    1    2    0    0  0.79915882016E+02 -0.50261804559E+02  0.47577493407E+03  0.50089877729E+03  0.12500000000E+03 0.  0.
</event>
<event>
 4    0  0.2259196E-002  0.1938235E+03  0.7546771E-02  0.1155057E+00
         21   -1    0    0  502  501  0.00000000000E+00  0.00000000000E+00  0.68871947447E+02  0.68871947447E+02  0.00000000000E+00 0. -1.
         21   -1    0    0  501  502 -0.00000000000E+00 -0.00000000000E+00 -0.54546965053E+03  0.54546965053E+03  0.00000000000E+00 0. -1.
         25    1    1    2    0    0 -0.65924738507E+02  0.43967672971E+02 -0.43664121976E+03  0.46104206121E+03  0.12500000000E+03 0.  0.
         25    1    1    2    0    0  0.65924738507E+02 -0.43967672971E+02 -0.39956483327E+02  0.15329953677E+03  0.12500000000E+03 0.  0.
</event>
<event>
 4    0  0.2259196E-002  0.1827602E+03  0.7546771E-02  0.1165158E+00
         21   -1    0    0  502  501  0.00000000000E+00  0.00000000000E+00  0.47659252330E+02  0.47659252330E+02  0.00000000000E+00 0. -1.
         21   -1    0    0  501  502 -0.00000000000E+00 -0.00000000000E+00 -0.70083553297E+03  0.70083553297E+03  0.00000000000E+00 0. -1.
         25    1    1    2    0    0  0.32450167455E+02  0.11647248622E+03 -0.21152268796E+03  0.27383517111E+03  0.12500000000E+03 0.  0.
         25    1    1    2    0    0 -0.32450167455E+02 -0.11647248622E+03 -0.44165359268E+03  0.47465961419E+03  0.12500000000E+03 0.  0.
</event>
<event>
 4    0  0.2259196E-002  0.2662093E+03  0.7546771E-02  0.1103469E+00
         21   -1    0    0  502  501  0.00000000000E+00  0.00000000000E+00  0.47807709651E+03  0.47807709651E+03  0.00000000000E+00 0.  1.
         21   -1    0    0  501  502 -0.00000000000E+00 -0.00000000000E+00 -0.14823427568E+03  0.14823427568E+03  0.00000000000E+00 0.  1.
         25    1    1    2    0    0 -0.14766785759E+03 -0.17570913967E+03  0.22447446577E+03  0.34451891633E+03  0.12500000000E+03 0.  0.
         25    1    1    2    0    0  0.14766785759E+03  0.17570913967E+03  0.10536835507E+03  0.28179245586E+03  0.12500000000E+03 0.  0.
</event>
<event>
 4    0  0.2259196E-002  0.2425165E+03  0.7546771E-02  0.1118128E+00
         21   -1    0    0  502  501  0.00000000000E+00  0.00000000000E+00  0.63984412404E+03  0.63984412404E+03  0.00000000000E+00 0.  1.
         21   -1    0    0  501  502 -0.00000000000E+00 -0.00000000000E+00 -0.91919630246E+02  0.91919630246E+02  0.00000000000E+00 0.  1.
         25    1    1    2    0    0  0.18716505730E+03  0.83531324788E+02  0.22211525187E+03  0.32706027886E+03  0.12500000000E+03 0.  0.
         25    1    1    2    0    0 -0.18716505730E+03 -0.83531324788E+02  0.32580924192E+03  0.40470347542E+03  0.12500000000E+03 0.  0.
</event>
<event>
 4    0  0.2259196E-002  0.2603365E+03  0.7546771E-02  0.1106941E+00
         21   -1    0    0  502  501  0.00000000000E+00  0.00000000000E+00  0.25513691337E+03  0.25513691337E+03  0.00000000000E+00 0.  1.
         21   -1    0    0  501  502 -0.00000000000E+00 -0.00000000000E+00 -0.26564213154E+03  0.26564213154E+03  0.00000000000E+00 0.  1.
         25    1    1    2    0    0  0.13104606487E+03  0.71227584259E+02 -0.17821458992E+03  0.26387853255E+03  0.12500000000E+03 0.  0.
         25    1    1    2    0    0 -0.13104606487E+03 -0.71227584259E+02  0.16770937175E+03  0.25690051236E+03  0.12500000000E+03 0.  0.
</event>
<event>
 4    0  0.2259196E-002  0.2516467E+03  0.7546771E-02  0.1112269E+00
         21   -1    0    0  502  501  0.00000000000E+00  0.00000000000E+00  0.86335836982E+03  0.86335836982E+03  0.00000000000E+00 0. -1.
         21   -1    0    0  501  502 -0.00000000000E+00 -0.00000000000E+00 -0.73348518201E+02  0.73348518201E+02  0.00000000000E+00 0. -1.
         25    1    1    2    0    0  0.34464714678E+02  0.30401665418E+01  0.79635896621E+03  0.80685169780E+03  0.12500000000E+03 0.  0.
         25    1    1    2    0    0 -0.34464714678E+02 -0.30401665418E+01 -0.63491146004E+01  0.12985519022E+03  0.12500000000E+03 0.  0.
</event>
<event>
 4    0  0.2259196E-002  0.2152183E+03  0.7546771E-02  0.1137499E+00
         21   -1    0    0  502  501  0.00000000000E+00  0.00000000000E+00  0.11422289883E+03  0.11422289883E+03  0.00000000000E+00 0. -1.
         21   -1    0    0  501  502 -0.00000000000E+00 -0.00000000000E+00 -0.40551346100E+03  0.40551346100E+03  0.00000000000E+00 0. -1.
         25    1    1    2    0    0 -0.79248456876E+02 -0.68320074212E+02  0.24027876841E+02  0.16477344848E+03  0.12500000000E+03 0.  0.
         25    1    1    2    0    0  0.79248456876E+02  0.68320074212E+02 -0.31531843901E+03  0.35496291136E+03  0.12500000000E+03 0.  0.
</event>
<event>
 4    0  0.2259196E-002  0.2384710E+03  0.7546771E-02  0.1120816E+00
         21   -1    0    0  502  501  0.00000000000E+00  0.00000000000E+00  0.18242752159E+03  0.18242752159E+03  0.00000000000E+00 0. -1.
         21   -1    0    0  501  502 -0.00000000000E+00 -0.00000000000E+00 -0.31173166414E+03  0.31173166414E+03  0.00000000000E+00 0. -1.
         25    1    1    2    0    0 -0.17918696626E+03 -0.95578483709E+02 -0.65137452174E+02  0.24720660003E+03  0.12500000000E+03 0.  0.
         25    1    1    2    0    0  0.17918696626E+03  0.95578483709E+02 -0.64166690376E+02  0.24695258569E+03  0.12500000000E+03 0.  0.
</event>
<event>
 4    0  0.2259196E-002  0.2962963E+03  0.7546771E-02  0.1087107E+00
         21   -1    0    0  502  501  0.00000000000E+00  0.00000000000E+00  0.17882772757E+03  0.17882772757E+03  0.00000000000E+00 0.  1.
         21   -1    0    0  501  502 -0.00000000000E+00 -0.00000000000E+00 -0.49092771762E+03  0.49092771762E+03  0.00000000000E+00 0.  1.
         25    1    1    2    0    0  0.78574558572E+02 -0.24810783615E+03 -0.23131762844E+03  0.36995176015E+03  0.12500000000E+03 0.  0.
         25    1    1    2    0    0 -0.78574558572E+02  0.24810783615E+03 -0.80782361605E+02  0.29980368503E+03  0.12500000000E+03 0.  0.
</event>
<event>
 4    0  0.2259196E-002  0.1633038E+03  0.7546771E-02  0.1185016E+00
         21   -1    0    0  502  501  0.00000000000E+00  0.00000000000E+00  0.23430718321E+03  0.23430718321E+03  0.00000000000E+00 0.  1.
         21   -1    0    0  501  502 -0.00000000000E+00 -0.00000000000E+00 -0.11381699335E+03  0.11381699335E+03  0.00000000000E+00 0.  1.
         25    1    1    2    0    0 -0.18847925191E+02  0.98258866708E+02  0.94504269906E+02  0.18591962296E+03  0.12500000000E+03 0.  0.
         25    1    1    2    0    0  0.18847925191E+02 -0.98258866708E+02  0.25985919956E+02  0.16220455359E+03  0.12500000000E+03 0.  0.
</event>
<event>
 4    0  0.2259196E-002  0.2074346E+03  0.7546771E-02  0.1143614E+00
         21   -1    0    0  502  501  0.00000000000E+00  0.00000000000E+00  0.28812708519E+03  0.28812708519E+03  0.00000000000E+00 0.  1.
         21   -1    0    0  501  502 -0.00000000000E+00 -0.00000000000E+00 -0.14934068222E+03  0.14934068222E+03  0.00000000000E+00 0.  1.
         25    1    1    2    0    0 -0.15259971129E+03 -0.64132792134E+02  0.67179173528E+02  0.21803148458E+03  0.12500000000E+03 0.  0.
         25    1    1    2    0    0  0.15259971129E+03  0.64132792134E+02  0.71607229447E+02  0.21943628283E+03  0.12500000000E+03 0.  0.
</event>
<event>
 4    0  0.2259196E-002  0.2517626E+03  0.7546771E-02  0.1112196E+00
         21   -1    0    0  502  501  0.00000000000E+00  0.00000000000E+00  0.35102845413E+03  0.35102845413E+03  0.00000000000E+00 0.  1.
         21   -1    0    0  501  502 -0.00000000000E+00 -0.00000000000E+00 -0.18056778436E+03  0.18056778436E+03  0.00000000000E+00 0.  1.
         25    1    1    2    0    0  0.19969881141E+02  0.21693252996E+03  0.66916470166E+02  0.25992562914E+03  0.12500000000E+03 0.  0.
         25    1    1    2    0    0 -0.19969881141E+02 -0.21693252996E+03  0.10354419960E+03  0.27167060934E+03  0.12500000000E+03 0.  0.
</event>
<event>
 4    0  0.2259196E-002  0.2366464E+03  0.7546771E-02  0.1122047E+00
         21   -1    0    0  502  501  0.00000000000E+00  0.00000000000E+00  0.59842522301E+03  0.59842522301E+03  0.00000000000E+00 0.  1.
         21   -1    0    0  501  502 -0.00000000000E+00 -0.00000000000E+00 -0.93581505102E+02  0.93581505102E+02  0.00000000000E+00 0.  1.
         25    1    1    2    0    0 -0.12831818641E+03  0.15303030057E+03  0.21996749847E+03  0.32232674454E+03  0.12500000000E+03 0.  0.
         25    1    1    2    0    0  0.12831818641E+03 -0.15303030057E+03  0.28487621943E+03  0.36967998358E+03  0.12500000000E+03 0.  0.
</event>
<event>
 4    0  0.2259196E-002  0.2537243E+03  0.7546771E-02  0.1110974E+00
         21   -1    0    0  502  501  0.00000000000E+00  0.00000000000E+00  0.25060572000E+02  0.25060572000E+02  0.00000000000E+00 0. -1.
         21   -1    0    0  501  502 -0.00000000000E+00 -0.00000000000E+00 -0.25688171063E+04  0.25688171063E+04  0.00000000000E+00 0. -1.
         25    1    1    2    0    0  0.21439036695E+03 -0.48038403822E+02 -0.11598759391E+04  0.11871007168E+04  0.12500000000E+03 0.  0.
         25    1    1    2    0    0 -0.21439036695E+03  0.48038403822E+02 -0.13838805952E+04  0.14067769615E+04  0.12500000000E+03 0.  0.
</event>
<event>
 4    0  0.2259196E-002  0.2709441E+03  0.7546771E-02  0.1100741E+00
         21   -1    0    0  502  501  0.00000000000E+00  0.00000000000E+00  0.12988897405E+03  0.12988897405E+03  0.00000000000E+00 0.  1.
         21   -1    0    0  501  502 -0.00000000000E+00 -0.00000000000E+00 -0.56518024184E+03  0.56518024184E+03  0.00000000000E+00 0.  1.
         25    1    1    2    0    0  0.17510658387E+03  0.10387279007E+03 -0.38157704358E+03  0.45019763706E+03  0.12500000000E+03 0.  0.
         25    1    1    2    0    0 -0.17510658387E+03 -0.10387279007E+03 -0.53714224216E+02  0.24487157882E+03  0.12500000000E+03 0.  0.
</event>
<event>
 4    0  0.2259196E-002  0.1728912E+03  0.7546771E-02  0.1174866E+00
         21   -1    0    0  502  501  0.00000000000E+00  0.00000000000E+00  0.41249370207E+03  0.41249370207E+03  0.00000000000E+00 0.  1.
         21   -1    0    0  501  502 -0.00000000000E+00 -0.00000000000E+00 -0.72465011504E+02  0.72465011504E+02  0.00000000000E+00 0.  1.
         25    1    1    2    0    0  0.89569621482E+02 -0.42790688640E+02  0.26317858501E+03  0.30780144206E+03  0.12500000000E+03 0.  0.
         25    1    1    2    0    0 -0.89569621482E+02  0.42790688640E+02  0.76850105558E+02  0.17715727152E+03  0.12500000000E+03 0.  0.
</event>
<event>
 4    0  0.2259196E-002  0.2163799E+03  0.7546771E-02  0.1136611E+00
         21   -1    0    0  502  501  0.00000000000E+00  0.00000000000E+00  0.74752971000E+02  0.74752971000E+02  0.00000000000E+00 0. -1.
         21   -1    0    0  501  502 -0.00000000000E+00 -0.00000000000E+00 -0.62633336770E+03  0.62633336770E+03  0.00000000000E+00 0. -1.
         25    1    1    2    0    0  0.55038769053E+02 -0.14749207036E+03 -0.14606487691E+03  0.24848163953E+03  0.12500000000E+03 0.  0.
         25    1    1    2    0    0 -0.55038769053E+02  0.14749207036E+03 -0.40551551980E+03  0.45260469917E+03  0.12500000000E+03 0.  0.
</event>
<event>
 4    0  0.2259196E-002  0.2030935E+03  0.7546771E-02  0.1147155E+00
         21   -1    0    0  502  501  0.00000000000E+00  0.00000000000E+00  0.69262279651E+02  0.69262279651E+02  0.00000000000E+00 0. -1.
         21   -1    0    0  501  502 -0.00000000000E+00 -0.00000000000E+00 -0.59551869984E+03  0.59551869984E+03  0.00000000000E+00 0. -1.
         25    1    1    2    0    0  0.12462125786E+03  0.88844475802E+02 -0.18639479778E+03  0.27164649718E+03  0.12500000000E+03 0.  0.
         25    1    1    2    0    0 -0.12462125786E+03 -0.88844475802E+02 -0.33986162240E+03  0.39313448230E+03  0.12500000000E+03 0.  0.
</event>
<event>
 4    0  0.2259196E-002  0.2623147E+03  0.7546771E-02  0.1105760E+00
         21   -1    0    0  502  501  0.00000000000E+00  0.00000000000E+00  0.15966583073E+04  0.15966583073E+04  0.00000000000E+00 0.  1.
         21   -1    0    0  501  502 -0.00000000000E+00 -0.00000000000E+00 -0.43095645567E+02  0.43095645567E+02  0.00000000000E+00 0.  1.
         25    1    1    2    0    0  0.22271355356E+03  0.59455175349E+02  0.79838509741E+03  0.84034517228E+03  0.12500000000E+03 0.  0.
         25    1    1    2    0    0 -0.22271355356E+03 -0.59455175349E+02  0.75517756430E+03  0.79940878056E+03  0.12500000000E+03 0.  0.
</event>
<event>
 4    0  0.2259196E-002  0.2746768E+03  0.7546771E-02  0.1098632E+00
         21   -1    0    0  502  501  0.00000000000E+00  0.00000000000E+00  0.12739945623E+03  0.12739945623E+03  0.00000000000E+00 0.  1.
         21   -1    0    0  501  502 -0.00000000000E+00 -0.00000000000E+00 -0.59221108853E+03  0.59221108853E+03  0.00000000000E+00 0.  1.
         25    1    1    2    0    0  0.81229385291E+02 -0.95028363437E+02  0.42970117705E+02  0.18193414717E+03  0.12500000000E+03 0.  0.
         25    1    1    2    0    0 -0.81229385291E+02  0.95028363437E+02 -0.50778175000E+03  0.53767639759E+03  0.12500000000E+03 0.  0.
</event>
<event>
 4    0  0.2259196E-002  0.2311180E+03  0.7546771E-02  0.1125855E+00
         21   -1    0    0  502  501  0.00000000000E+00  0.00000000000E+00  0.61082620022E+02  0.61082620022E+02  0.00000000000E+00 0.  1.
         21   -1    0    0  501  502 -0.00000000000E+00 -0.00000000000E+00 -0.87448038235E+03  0.87448038235E+03  0.00000000000E+00 0.  1.
         25    1    1    2    0    0 -0.11174034989E+03 -0.15312157796E+03 -0.49395225364E+03  0.54364138208E+03  0.12500000000E+03 0.  0.
         25    1    1    2    0    0  0.11174034989E+03  0.15312157796E+03 -0.31944550869E+03  0.39192162030E+03  0.12500000000E+03 0.  0.
</event>
<event>
 4    0  0.2259196E-002  0.3193624E+03  0.7546771E-02  0.1075943E+00
         21   -1    0    0  502  501  0.00000000000E+00  0.00000000000E+00  0.68804611642E+03  0.68804611642E+03  0.00000000000E+00 0. -1.
         21   -1    0    0  501  502 -0.00000000000E+00 -0.00000000000E+00 -0.14823478503E+03  0.14823478503E+03  0.00000000000E+00 0. -1.
         25    1    1    2    0    0  0.53694370956E+02 -0.19151416461E+03 -0.13358688997E+02  0.23529601631E+03  0.12500000000E+03 0.  0.
         25    1    1    2    0    0 -0.53694370956E+02  0.19151416461E+03  0.55317002038E+03  0.60098488514E+03  0.12500000000E+03 0.  0.
</event>
<event>
 4    0  0.2259196E-002  0.1761303E+03  0.7546771E-02  0.1171602E+00
         21   -1    0    0  502  501  0.00000000000E+00  0.00000000000E+00  0.53516850522E+02  0.53516850522E+02  0.00000000000E+00 0. -1.
         21   -1    0    0  501  502 -0.00000000000E+00 -0.00000000000E+00 -0.57966556745E+03  0.57966556745E+03  0.00000000000E+00 0. -1.
         25    1    1    2    0    0  0.77297734772E+01  0.49254674486E+02 -0.58831677942E+02  0.14687388701E+03  0.12500000000E+03 0.  0.
         25    1    1    2    0    0 -0.77297734772E+01 -0.49254674486E+02 -0.46731703899E+03  0.48630853096E+03  0.12500000000E+03 0.  0.
</event>
<event>
 4    0  0.2259196E-002  0.1801070E+03  0.7546771E-02  0.1167700E+00
         21   -1    0    0  502  501  0.00000000000E+00  0.00000000000E+00  0.32756518928E+03  0.32756518928E+03  0.00000000000E+00 0. -1.
         21   -1    0    0  501  502 -0.00000000000E+00 -0.00000000000E+00 -0.99029193164E+02  0.99029193164E+02  0.00000000000E+00 0. -1.
         25    1    1    2    0    0  0.18431398725E+02  0.12324914551E+03  0.15669514189E+03  0.23602634561E+03  0.12500000000E+03 0.  0.
         25    1    1    2    0    0 -0.18431398725E+02 -0.12324914551E+03  0.71840854229E+02  0.19056803684E+03  0.12500000000E+03 0.  0.
</event>
<event>
 4    0  0.2259196E-002  0.2472740E+03  0.7546771E-02  0.1115040E+00
         21   -1    0    0  502  501  0.00000000000E+00  0.00000000000E+00  0.63672181893E+03  0.63672181893E+03  0.00000000000E+00 0.  1.
         21   -1    0    0  501  502 -0.00000000000E+00 -0.00000000000E+00 -0.96030065404E+02  0.96030065404E+02  0.00000000000E+00 0.  1.
         25    1    1    2    0    0 -0.16202585347E+03  0.99615557078E+02  0.12712369940E+03  0.26069344325E+03  0.12500000000E+03 0.  0.
         25    1    1    2    0    0  0.16202585347E+03 -0.99615557078E+02  0.41356805413E+03  0.47205844109E+03  0.12500000000E+03 0.  0.
</event>
<event>
 4    0  0.2259196E-002  0.2133346E+03  0.7546771E-02  0.1138952E+00
         21   -1    0    0  502  501  0.00000000000E+00  0.00000000000E+00  0.14549096582E+03  0.14549096582E+03  0.00000000000E+00 0. -1.
         21   -1    0    0  501  502 -0.00000000000E+00 -0.00000000000E+00 -0.31281428345E+03  0.31281428345E+03  0.00000000000E+00 0. -1.
         25    1    1    2    0    0 -0.42760967230E+02  0.61433845019E+02  0.83726200848E+02  0.16804075202E+03  0.12500000000E+03 0.  0.
         25    1    1    2    0    0  0.42760967230E+02 -0.61433845019E+02 -0.25104951848E+03  0.29026449725E+03  0.12500000000E+03 0.  0.
</event>
<event>
 4    0  0.2259196E-002  0.2079693E+03  0.7546771E-02  0.1143184E+00
         21   -1    0    0  502  501  0.00000000000E+00  0.00000000000E+00  0.10890069471E+03  0.10890069471E+03  0.00000000000E+00 0.  1.
         21   -1    0    0  501  502 -0.00000000000E+00 -0.00000000000E+00 -0.39716216426E+03  0.39716216426E+03  0.00000000000E+00 0.  1.
         25    1    1    2    0    0 -0.26386622461E+02 -0.19239693470E+02 -0.34241476618E+03  0.36597717381E+03  0.12500000000E+03 0.  0.
         25    1    1    2    0    0  0.26386622461E+02  0.19239693470E+02  0.54153296637E+02  0.14008568516E+03  0.12500000000E+03 0.  0.
</event>
<event>
 4    0  0.2259196E-002  0.2409300E+03  0.7546771E-02  0.1119175E+00
         21   -1    0    0  502  501  0.00000000000E+00  0.00000000000E+00  0.12566851996E+03  0.12566851996E+03  0.00000000000E+00 0. -1.
         21   -1    0    0  501  502 -0.00000000000E+00 -0.00000000000E+00 -0.46190757369E+03  0.46190757369E+03  0.00000000000E+00 0.  1.
         25    1    1    2    0    0 -0.10285845437E+03  0.17457600700E+03 -0.21318092396E+03  0.31957432656E+03  0.12500000000E+03 0.  0.
         25    1    1    2    0    0  0.10285845437E+03 -0.17457600700E+03 -0.12305812977E+03  0.26800176708E+03  0.12500000000E+03 0.  0.
</event>
<event>
 4    0  0.2259196E-002  0.2088977E+03  0.7546771E-02  0.1142442E+00
         21   -1    0    0  502  501  0.00000000000E+00  0.00000000000E+00  0.60929642502E+02  0.60929642502E+02  0.00000000000E+00 0.  1.
         21   -1    0    0  501  502 -0.00000000000E+00 -0.00000000000E+00 -0.71620713261E+03  0.71620713261E+03  0.00000000000E+00 0.  1.
         25    1    1    2    0    0  0.68742332585E+02 -0.59778673188E+02 -0.66468365363E+02  0.16835094788E+03  0.12500000000E+03 0.  0.
         25    1    1    2    0    0 -0.68742332585E+02  0.59778673188E+02 -0.58880912474E+03  0.60878582723E+03  0.12500000000E+03 0.  0.
</event>
<event>
 4    0  0.2259196E-002  0.2777531E+03  0.7546771E-02  0.1096923E+00
         21   -1    0    0  502  501  0.00000000000E+00  0.00000000000E+00  0.89702230169E+03  0.89702230169E+03  0.00000000000E+00 0. -1.
         21   -1    0    0  501  502 -0.00000000000E+00 -0.00000000000E+00 -0.86003175642E+02  0.86003175642E+02  0.00000000000E+00 0. -1.
         25    1    1    2    0    0 -0.20762333036E+03  0.13505415835E+03  0.38212041649E+03  0.47221614298E+03  0.12500000000E+03 0.  0.
         25    1    1    2    0    0  0.20762333036E+03 -0.13505415835E+03  0.42889870956E+03  0.51080933435E+03  0.12500000000E+03 0.  0.
</event>
<event>
 4    0  0.2259196E-002  0.2718647E+03  0.7546771E-02  0.1100217E+00
         21   -1    0    0  502  501  0.00000000000E+00  0.00000000000E+00  0.18508469855E+03  0.18508469855E+03  0.00000000000E+00 0.  1.
         21   -1    0    0  501  502 -0.00000000000E+00 -0.00000000000E+00 -0.39933295192E+03  0.39933295192E+03  0.00000000000E+00 0.  1.
         25    1    1    2    0    0 -0.17510828315E+03 -0.13182508414E+03 -0.21591417587E+03  0.33209139552E+03  0.12500000000E+03 0.  0.
         25    1    1    2    0    0  0.17510828315E+03  0.13182508414E+03  0.16659225027E+01  0.25232625495E+03  0.12500000000E+03 0.  0.
</event>
<event>
 4    0  0.2259196E-002  0.1755612E+03  0.7546771E-02  0.1172169E+00
         21   -1    0    0  502  501  0.00000000000E+00  0.00000000000E+00  0.51635521224E+02  0.51635521224E+02  0.00000000000E+00 0. -1.
         21   -1    0    0  501  502 -0.00000000000E+00 -0.00000000000E+00 -0.59690981704E+03  0.59690981704E+03  0.00000000000E+00 0. -1.
         25    1    1    2    0    0  0.59027466970E+02  0.89912621799E+02 -0.16137972530E+03  0.23073130944E+03  0.12500000000E+03 0.  0.
         25    1    1    2    0    0 -0.59027466970E+02 -0.89912621799E+02 -0.38389457051E+03  0.41781402883E+03  0.12500000000E+03 0.  0.
</event>
<event>
 4    0  0.2259196E-002  0.1727773E+03  0.7546771E-02  0.1174982E+00
         21   -1    0    0  502  501  0.00000000000E+00  0.00000000000E+00  0.48251783788E+02  0.48251783788E+02  0.00000000000E+00 0.  1.
         21   -1    0    0  501  502 -0.00000000000E+00 -0.00000000000E+00 -0.61867120215E+03  0.61867120215E+03  0.00000000000E+00 0.  1.
         25    1    1    2    0    0  0.86702462108E+02  0.31233786451E+02 -0.43135759770E+03  0.45846182332E+03  0.12500000000E+03 0.  0.
         25    1    1    2    0    0 -0.86702462108E+02 -0.31233786451E+02 -0.13906182066E+03  0.20846116261E+03  0.12500000000E+03 0.  0.
</event>
<event>
 4    0  0.2259196E-002  0.2675273E+03  0.7546771E-02  0.1102703E+00
         21   -1    0    0  502  501  0.00000000000E+00  0.00000000000E+00  0.23251677908E+03  0.23251677908E+03  0.00000000000E+00 0. -1.
         21   -1    0    0  501  502 -0.00000000000E+00 -0.00000000000E+00 -0.30780938032E+03  0.30780938032E+03  0.00000000000E+00 0. -1.
         25    1    1    2    0    0  0.21705397817E+03 -0.76599637477E+02  0.17350450977E+02  0.26249947057E+03  0.12500000000E+03 0.  0.
         25    1    1    2    0    0 -0.21705397817E+03  0.76599637477E+02 -0.92643052212E+02  0.27782668883E+03  0.12500000000E+03 0.  0.
</event>
<event>
 4    0  0.2259196E-002  0.2214286E+03  0.7546771E-02  0.1132822E+00
         21   -1    0    0  502  501  0.00000000000E+00  0.00000000000E+00  0.17551709743E+03  0.17551709743E+03  0.00000000000E+00 0. -1.
         21   -1    0    0  501  502 -0.00000000000E+00 -0.00000000000E+00 -0.27934958427E+03  0.27934958427E+03  0.00000000000E+00 0. -1.
         25    1    1    2    0    0  0.12328024736E+03  0.21287137554E+02  0.84943025756E+02  0.19619245459E+03  0.12500000000E+03 0.  0.
         25    1    1    2    0    0 -0.12328024736E+03 -0.21287137554E+02 -0.18877551260E+03  0.25867422711E+03  0.12500000000E+03 0.  0.
</event>
<event>
 4    0  0.2259196E-002  0.2244667E+03  0.7546771E-02  0.1130596E+00
         21   -1    0    0  502  501  0.00000000000E+00  0.00000000000E+00  0.92874444781E+02  0.92874444781E+02  0.00000000000E+00 0. -1.
         21   -1    0    0  501  502 -0.00000000000E+00 -0.00000000000E+00 -0.54250977696E+03  0.54250977696E+03  0.00000000000E+00 0. -1.
         25    1    1    2    0    0 -0.17493618695E+03  0.53672407862E+02 -0.27539227592E+03  0.35348168624E+03  0.12500000000E+03 0.  0.
         25    1    1    2    0    0  0.17493618695E+03 -0.53672407862E+02 -0.17424305626E+03  0.28190253551E+03  0.12500000000E+03 0.  0.
</event>
<event>
 4    0  0.2259196E-002  0.1651725E+03  0.7546771E-02  0.1182978E+00
         21   -1    0    0  502  501  0.00000000000E+00  0.00000000000E+00  0.16789277709E+03  0.16789277709E+03  0.00000000000E+00 0.  1.
         21   -1    0    0  501  502 -0.00000000000E+00 -0.00000000000E+00 -0.16249628944E+03  0.16249628944E+03  0.00000000000E+00 0.  1.
         25    1    1    2    0    0  0.94134587634E+02  0.51752270623E+02  0.13531826316E+02  0.16537148614E+03  0.12500000000E+03 0.  0.
         25    1    1    2    0    0 -0.94134587634E+02 -0.51752270623E+02 -0.81353386704E+01  0.16501758039E+03  0.12500000000E+03 0.  0.
</event>
<event>
 4    0  0.2259196E-002  0.1868339E+03  0.7546771E-02  0.1161348E+00
         21   -1    0    0  502  501  0.00000000000E+00  0.00000000000E+00  0.10451222917E+04  0.10451222917E+04  0.00000000000E+00 0. -1.
         21   -1    0    0  501  502 -0.00000000000E+00 -0.00000000000E+00 -0.33399822828E+02  0.33399822828E+02  0.00000000000E+00 0. -1.
         25    1    1    2    0    0 -0.87300226298E+02  0.10737319208E+03  0.47275439603E+03  0.50820473321E+03  0.12500000000E+03 0.  0.
         25    1    1    2    0    0  0.87300226298E+02 -0.10737319208E+03  0.53896807280E+03  0.57031738128E+03  0.12500000000E+03 0.  0.
</event>
<event>
 4    0  0.2259196E-002  0.3096386E+03  0.7546771E-02  0.1080519E+00
         21   -1    0    0  502  501  0.00000000000E+00  0.00000000000E+00  0.52391598133E+03  0.52391598133E+03  0.00000000000E+00 0.  1.
         21   -1    0    0  501  502 -0.00000000000E+00 -0.00000000000E+00 -0.18299895605E+03  0.18299895605E+03  0.00000000000E+00 0. -1.
         25    1    1    2    0    0  0.25519678993E+02 -0.20644730388E+03  0.38997218650E+03  0.45932020372E+03  0.12500000000E+03 0.  0.
         25    1    1    2    0    0 -0.25519678993E+02  0.20644730388E+03 -0.49055161219E+02  0.24759473366E+03  0.12500000000E+03 0.  0.
</event>
<event>
 4    0  0.2259196E-002  0.1690000E+03  0.7546771E-02  0.1178895E+00
         21   -1    0    0  502  501  0.00000000000E+00  0.00000000000E+00  0.23558975304E+03  0.23558975304E+03  0.00000000000E+00 0. -1.
         21   -1    0    0  501  502 -0.00000000000E+00 -0.00000000000E+00 -0.12123188356E+03  0.12123188356E+03  0.00000000000E+00 0. -1.
         25    1    1    2    0    0 -0.71684305472E+02  0.77181681717E+02  0.11890913966E+02  0.16389644743E+03  0.12500000000E+03 0.  0.
         25    1    1    2    0    0  0.71684305472E+02 -0.77181681717E+02  0.10246695552E+03  0.19292518917E+03  0.12500000000E+03 0.  0.
</event>
<event>
 4    0  0.2259196E-002  0.2740444E+03  0.7546771E-02  0.1098987E+00
         21   -1    0    0  502  501  0.00000000000E+00  0.00000000000E+00  0.19075617053E+03  0.19075617053E+03  0.00000000000E+00 0.  1.
         21   -1    0    0  501  502 -0.00000000000E+00 -0.00000000000E+00 -0.39369819340E+03  0.39369819340E+03  0.00000000000E+00 0.  1.
         25    1    1    2    0    0  0.75134989274E+02 -0.83886101521E+01  0.14577433031E+03  0.20637536377E+03  0.12500000000E+03 0.  0.
         25    1    1    2    0    0 -0.75134989274E+02  0.83886101521E+01 -0.34871635317E+03  0.37807900016E+03  0.12500000000E+03 0.  0.
</event>
<event>
 4    0  0.2259196E-002  0.1781882E+03  0.7546771E-02  0.1169568E+00
         21   -1    0    0  502  501  0.00000000000E+00  0.00000000000E+00  0.26404995326E+03  0.26404995326E+03  0.00000000000E+00 0. -1.
         21   -1    0    0  501  502 -0.00000000000E+00 -0.00000000000E+00 -0.12024626721E+03  0.12024626721E+03  0.00000000000E+00 0. -1.
         25    1    1    2    0    0  0.11137835693E+03  0.60998953372E+02  0.71791179199E+02  0.19210669982E+03  0.12500000000E+03 0.  0.
         25    1    1    2    0    0 -0.11137835693E+03 -0.60998953372E+02  0.72012506856E+02  0.19218952065E+03  0.12500000000E+03 0.  0.
</event>
<event>
 4    0  0.2259196E-002  0.3060603E+03  0.7546771E-02  0.1082250E+00
         21   -1    0    0  502  501  0.00000000000E+00  0.00000000000E+00  0.78458057708E+03  0.78458057708E+03  0.00000000000E+00 0. -1.
         21   -1    0    0  501  502 -0.00000000000E+00 -0.00000000000E+00 -0.11939230767E+03  0.11939230767E+03  0.00000000000E+00 0. -1.
         25    1    1    2    0    0  0.11929193448E+03  0.25131680351E+03  0.37045251635E+03  0.47984452505E+03  0.12500000000E+03 0.  0.
         25    1    1    2    0    0 -0.11929193448E+03 -0.25131680351E+03  0.29473575306E+03  0.42412835969E+03  0.12500000000E+03 0.  0.
</event>
<event>
 4    0  0.2259196E-002  0.2224337E+03  0.7546771E-02  0.1132082E+00
         21   -1    0    0  502  501  0.00000000000E+00  0.00000000000E+00  0.72855338977E+02  0.72855338977E+02  0.00000000000E+00 0.  1.
         21   -1    0    0  501  502 -0.00000000000E+00 -0.00000000000E+00 -0.67910964779E+03  0.67910964779E+03  0.00000000000E+00 0.  1.
         25    1    1    2    0    0 -0.52547352785E+02 -0.84336630278E+02 -0.56486848239E+03  0.58700536104E+03  0.12500000000E+03 0.  0.
         25    1    1    2    0    0  0.52547352785E+02  0.84336630278E+02 -0.41385826422E+02  0.16495962573E+03  0.12500000000E+03 0.  0.
</event>
<event>
 4    0  0.2259196E-002  0.2901833E+03  0.7546771E-02  0.1090253E+00
         21   -1    0    0  502  501  0.00000000000E+00  0.00000000000E+00  0.76258221909E+03  0.76258221909E+03  0.00000000000E+00 0. -1.
         21   -1    0    0  501  502 -0.00000000000E+00 -0.00000000000E+00 -0.11042266656E+03  0.11042266656E+03  0.00000000000E+00 0. -1.
         25    1    1    2    0    0  0.94632666422E+02  0.62862437751E+02  0.68100898670E+03  0.70164468757E+03  0.12500000000E+03 0.  0.
         25    1    1    2    0    0 -0.94632666422E+02 -0.62862437751E+02 -0.28849434171E+02  0.17136019808E+03  0.12500000000E+03 0.  0.
</event>
<event>
 4    0  0.2259196E-002  0.3260142E+03  0.7546771E-02  0.1072914E+00
         21   -1    0    0  502  501  0.00000000000E+00  0.00000000000E+00  0.46934049168E+03  0.46934049168E+03  0.00000000000E+00 0.  1.
         21   -1    0    0  501  502 -0.00000000000E+00 -0.00000000000E+00 -0.22645657888E+03  0.22645657888E+03  0.00000000000E+00 0.  1.
         25    1    1    2    0    0  0.27365812009E+02  0.29947138770E+03  0.13756378294E+03  0.35352622829E+03  0.12500000000E+03 0.  0.
         25    1    1    2    0    0 -0.27365812009E+02 -0.29947138770E+03  0.10532012986E+03  0.34227084227E+03  0.12500000000E+03 0.  0.
</event>
<event>
 4    0  0.2259196E-002  0.1976957E+03  0.7546771E-02  0.1151698E+00
         21   -1    0    0  502  501  0.00000000000E+00  0.00000000000E+00  0.25160582096E+03  0.25160582096E+03  0.00000000000E+00 0. -1.
         21   -1    0    0  501  502 -0.00000000000E+00 -0.00000000000E+00 -0.15533653909E+03  0.15533653909E+03  0.00000000000E+00 0. -1.
         25    1    1    2    0    0  0.13024596715E+03  0.32904162009E+02 -0.27580004466E+02  0.18555956586E+03  0.12500000000E+03 0.  0.
         25    1    1    2    0    0 -0.13024596715E+03 -0.32904162009E+02  0.12384928633E+03  0.22138279419E+03  0.12500000000E+03 0.  0.
</event>
<event>
 4    0  0.2259196E-002  0.2129680E+03  0.7546771E-02  0.1139237E+00
         21   -1    0    0  502  501  0.00000000000E+00  0.00000000000E+00  0.12139454464E+03  0.12139454464E+03  0.00000000000E+00 0. -1.
         21   -1    0    0  501  502 -0.00000000000E+00 -0.00000000000E+00 -0.37361934002E+03  0.37361934002E+03  0.00000000000E+00 0. -1.
         25    1    1    2    0    0  0.63279496588E+02  0.25631573480E+02 -0.31012276869E+03  0.34126588448E+03  0.12500000000E+03 0.  0.
         25    1    1    2    0    0 -0.63279496588E+02 -0.25631573480E+02  0.57897973311E+02  0.15374800019E+03  0.12500000000E+03 0.  0.
</event>
<event>
 4    0  0.2259196E-002  0.3024105E+03  0.7546771E-02  0.1084042E+00
         21   -1    0    0  502  501  0.00000000000E+00  0.00000000000E+00  0.23756211731E+03  0.23756211731E+03  0.00000000000E+00 0. -1.
         21   -1    0    0  501  502 -0.00000000000E+00 -0.00000000000E+00 -0.38496088416E+03  0.38496088416E+03  0.00000000000E+00 0. -1.
         25    1    1    2    0    0  0.25654927693E+03 -0.93631111279E+02 -0.10998464201E+03  0.31985299431E+03  0.12500000000E+03 0.  0.
         25    1    1    2    0    0 -0.25654927693E+03  0.93631111279E+02 -0.37414124847E+02  0.30267000715E+03  0.12500000000E+03 0.  0.
</event>
<event>
 4    0  0.2259196E-002  0.2169844E+03  0.7546771E-02  0.1136151E+00
         21   -1    0    0  502  501  0.00000000000E+00  0.00000000000E+00  0.15756247281E+04  0.15756247281E+04  0.00000000000E+00 0.  1.
         21   -1    0    0  501  502 -0.00000000000E+00 -0.00000000000E+00 -0.29881638192E+02  0.29881638192E+02  0.00000000000E+00 0.  1.
         25    1    1    2    0    0 -0.11030187490E+02 -0.17675283856E+03  0.80874364575E+03  0.83728998293E+03  0.12500000000E+03 0.  0.
         25    1    1    2    0    0  0.11030187490E+02  0.17675283856E+03  0.73699944421E+03  0.76821638341E+03  0.12500000000E+03 0.  0.
</event>
<event>
 4    0  0.2259196E-002  0.1765379E+03  0.7546771E-02  0.1171196E+00
         21   -1    0    0  502  501  0.00000000000E+00  0.00000000000E+00  0.19167664302E+03  0.19167664302E+03  0.00000000000E+00 0.  1.
         21   -1    0    0  501  502 -0.00000000000E+00 -0.00000000000E+00 -0.16259475226E+03  0.16259475226E+03  0.00000000000E+00 0.  1.
         25    1    1    2    0    0 -0.41343913163E+02  0.38822739589E+02  0.12593081579E+03  0.18627961410E+03  0.12500000000E+03 0.  0.
         25    1    1    2    0    0  0.41343913163E+02 -0.38822739589E+02 -0.96848925031E+02  0.16799178118E+03  0.12500000000E+03 0.  0.
</event>
<event>
 4    0  0.2259196E-002  0.3553977E+03  0.7546771E-02  0.1060421E+00
         21   -1    0    0  502  501  0.00000000000E+00  0.00000000000E+00  0.26103170849E+03  0.26103170849E+03  0.00000000000E+00 0. -1.
         21   -1    0    0  501  502 -0.00000000000E+00 -0.00000000000E+00 -0.48387808202E+03  0.48387808202E+03  0.00000000000E+00 0. -1.
         25    1    1    2    0    0 -0.99759827186E+02  0.12196336410E+03  0.19565076668E+03  0.28059099737E+03  0.12500000000E+03 0.  0.
         25    1    1    2    0    0  0.99759827186E+02 -0.12196336410E+03 -0.41849714021E+03  0.46431879314E+03  0.12500000000E+03 0.  0.
</event>
<event>
 4    0  0.2259196E-002  0.2191840E+03  0.7546771E-02  0.1134493E+00
         21   -1    0    0  502  501  0.00000000000E+00  0.00000000000E+00  0.76713772644E+02  0.76713772644E+02  0.00000000000E+00 0.  1.
         21   -1    0    0  501  502 -0.00000000000E+00 -0.00000000000E+00 -0.62624539694E+03  0.62624539694E+03  0.00000000000E+00 0.  1.
         25    1    1    2    0    0 -0.13351027625E+03 -0.10572951587E+03 -0.36844742974E+03  0.42471429558E+03  0.12500000000E+03 0.  0.
         25    1    1    2    0    0  0.13351027625E+03  0.10572951587E+03 -0.18108419455E+03  0.27824487400E+03  0.12500000000E+03 0.  0.
</event>
<event>
 4    0  0.2259196E-002  0.2623108E+03  0.7546771E-02  0.1105763E+00
         21   -1    0    0  502  501  0.00000000000E+00  0.00000000000E+00  0.32095754291E+02  0.32095754291E+02  0.00000000000E+00 0.  1.
         21   -1    0    0  501  502 -0.00000000000E+00 -0.00000000000E+00 -0.21438029161E+04  0.21438029161E+04  0.00000000000E+00 0.  1.
         25    1    1    2    0    0 -0.20782562840E+03  0.82927490932E+02 -0.12872825158E+04  0.13125508508E+04  0.12500000000E+03 0.  0.
         25    1    1    2    0    0  0.20782562840E+03 -0.82927490932E+02 -0.82442464606E+03  0.86334781959E+03  0.12500000000E+03 0.  0.
</event>
<event>
 4    0  0.2259196E-002  0.2529695E+03  0.7546771E-02  0.1111442E+00
         21   -1    0    0  502  501  0.00000000000E+00  0.00000000000E+00  0.13047471212E+04  0.13047471212E+04  0.00000000000E+00 0.  1.
         21   -1    0    0  501  502 -0.00000000000E+00 -0.00000000000E+00 -0.49046710314E+02  0.49046710314E+02  0.00000000000E+00 0.  1.
         25    1    1    2    0    0  0.18155345973E+03  0.10923108422E+03  0.47010327533E+03  0.53058003918E+03  0.12500000000E+03 0.  0.
         25    1    1    2    0    0 -0.18155345973E+03 -0.10923108422E+03  0.78559713560E+03  0.82321379238E+03  0.12500000000E+03 0.  0.
</event>
<event>
 4    0  0.2259196E-002  0.5544605E+03  0.7546771E-02  0.1000467E+00
         21   -1    0    0  502  501  0.00000000000E+00  0.00000000000E+00  0.42477014699E+03  0.42477014699E+03  0.00000000000E+00 0.  1.
         21   -1    0    0  501  502 -0.00000000000E+00 -0.00000000000E+00 -0.72374773363E+03  0.72374773363E+03  0.00000000000E+00 0.  1.
         25    1    1    2    0    0 -0.32219548357E+03 -0.39057163163E+03  0.45503076863E+02  0.52349943560E+03  0.12500000000E+03 0.  0.
         25    1    1    2    0    0  0.32219548357E+03  0.39057163163E+03 -0.34448066351E+03  0.62501844501E+03  0.12500000000E+03 0.  0.
</event>
<event>
 4    0  0.2259196E-002  0.3496822E+03  0.7546771E-02  0.1062746E+00
         21   -1    0    0  502  501  0.00000000000E+00  0.00000000000E+00  0.50365989446E+03  0.50365989446E+03  0.00000000000E+00 0. -1.
         21   -1    0    0  501  502 -0.00000000000E+00 -0.00000000000E+00 -0.24277822826E+03  0.24277822826E+03  0.00000000000E+00 0. -1.
         25    1    1    2    0    0 -0.28381871308E+03 -0.44427337752E+02 -0.35338803495E+02  0.31527873583E+03  0.12500000000E+03 0.  0.
         25    1    1    2    0    0  0.28381871308E+03  0.44427337752E+02  0.29622046970E+03  0.43115938689E+03  0.12500000000E+03 0.  0.
</event>
<event>
 4    0  0.2259196E-002  0.2481448E+03  0.7546771E-02  0.1114483E+00
         21   -1    0    0  502  501  0.00000000000E+00  0.00000000000E+00  0.59455590082E+03  0.59455590082E+03  0.00000000000E+00 0. -1.
         21   -1    0    0  501  502 -0.00000000000E+00 -0.00000000000E+00 -0.10356609900E+03  0.10356609900E+03  0.00000000000E+00 0. -1.
         25    1    1    2    0    0  0.10758070883E+03  0.21325339363E+02 -0.13588636556E+02  0.16684732559E+03  0.12500000000E+03 0.  0.
         25    1    1    2    0    0 -0.10758070883E+03 -0.21325339363E+02  0.50457843837E+03  0.53127467423E+03  0.12500000000E+03 0.  0.
</event>
<event>
 4    0  0.2259196E-002  0.2023961E+03  0.7546771E-02  0.1147733E+00
         21   -1    0    0  502  501  0.00000000000E+00  0.00000000000E+00  0.92324622592E+03  0.92324622592E+03  0.00000000000E+00 0. -1.
         21   -1    0    0  501  502 -0.00000000000E+00 -0.00000000000E+00 -0.44369717666E+02  0.44369717666E+02  0.00000000000E+00 0. -1.
         25    1    1    2    0    0 -0.30679095860E+02  0.14488609206E+03  0.29993239117E+03  0.35709610173E+03  0.12500000000E+03 0.  0.
         25    1    1    2    0    0  0.30679095860E+02 -0.14488609206E+03  0.57894411709E+03  0.61051984186E+03  0.12500000000E+03 0.  0.
</event>
<event>
 4    0  0.2259196E-002  0.4060014E+03  0.7546771E-02  0.1041721E+00
         21   -1    0    0  502  501  0.00000000000E+00  0.00000000000E+00  0.32894695094E+03  0.32894695094E+03  0.00000000000E+00 0. -1.
         21   -1    0    0  501  502 -0.00000000000E+00 -0.00000000000E+00 -0.50110554581E+03  0.50110554581E+03  0.00000000000E+00 0.  1.
         25    1    1    2    0    0 -0.40688151258E+02  0.12560887385E+03  0.28500380165E+03  0.33806106223E+03  0.12500000000E+03 0.  0.
         25    1    1    2    0    0  0.40688151258E+02 -0.12560887385E+03 -0.45716239652E+03  0.49199143451E+03  0.12500000000E+03 0.  0.
</event>
<event>
 4    0  0.2259196E-002  0.2389584E+03  0.7546771E-02  0.1120489E+00
         21   -1    0    0  502  501  0.00000000000E+00  0.00000000000E+00  0.88654054895E+03  0.88654054895E+03  0.00000000000E+00 0.  1.
         21   -1    0    0  501  502 -0.00000000000E+00 -0.00000000000E+00 -0.64408922895E+02  0.64408922895E+02  0.00000000000E+00 0.  1.
         25    1    1    2    0    0  0.16940531046E+03  0.37361427878E+02  0.62334922710E+03  0.65900174084E+03  0.12500000000E+03 0.  0.
         25    1    1    2    0    0 -0.16940531046E+03 -0.37361427878E+02  0.19878239895E+03  0.29194773100E+03  0.12500000000E+03 0.  0.
</event>
<event>
 4    0  0.2259196E-002  0.2527946E+03  0.7546771E-02  0.1111551E+00
         21   -1    0    0  502  501  0.00000000000E+00  0.00000000000E+00  0.45741896347E+03  0.45741896347E+03  0.00000000000E+00 0.  1.
         21   -1    0    0  501  502 -0.00000000000E+00 -0.00000000000E+00 -0.13970809789E+03  0.13970809789E+03  0.00000000000E+00 0.  1.
         25    1    1    2    0    0  0.40195495339E+02 -0.99375430386E+02 -0.67675625885E+02  0.17803411007E+03  0.12500000000E+03 0.  0.
         25    1    1    2    0    0 -0.40195495339E+02  0.99375430386E+02  0.38538649147E+03  0.41909295128E+03  0.12500000000E+03 0.  0.
</event>
<event>
 4    0  0.2259196E-002  0.1652368E+03  0.7546771E-02  0.1182908E+00
         21   -1    0    0  502  501  0.00000000000E+00  0.00000000000E+00  0.56815394232E+03  0.56815394232E+03  0.00000000000E+00 0. -1.
         21   -1    0    0  501  502 -0.00000000000E+00 -0.00000000000E+00 -0.48055977747E+02  0.48055977747E+02  0.00000000000E+00 0. -1.
         25    1    1    2    0    0  0.75015263637E+02 -0.64298275843E+02  0.17841674610E+03  0.23920512818E+03  0.12500000000E+03 0.  0.
         25    1    1    2    0    0 -0.75015263637E+02  0.64298275843E+02  0.34168121847E+03  0.37700479190E+03  0.12500000000E+03 0.  0.
</event>
<event>
 4    0  0.2259196E-002  0.1598234E+03  0.7546771E-02  0.1188896E+00
         21   -1    0    0  502  501  0.00000000000E+00  0.00000000000E+00  0.48309143724E+03  0.48309143724E+03  0.00000000000E+00 0. -1.
         21   -1    0    0  501  502 -0.00000000000E+00 -0.00000000000E+00 -0.52875100157E+02  0.52875100157E+02  0.00000000000E+00 0. -1.
         25    1    1    2    0    0 -0.77452992316E+02  0.26400965176E+01  0.31998959371E+03  0.35217080545E+03  0.12500000000E+03 0.  0.
         25    1    1    2    0    0  0.77452992316E+02 -0.26400965176E+01  0.11022674338E+03  0.18379573195E+03  0.12500000000E+03 0.  0.
</event>
<event>
 4    0  0.2259196E-002  0.3045391E+03  0.7546771E-02  0.1082993E+00
         21   -1    0    0  502  501  0.00000000000E+00  0.00000000000E+00  0.13798763469E+03  0.13798763469E+03  0.00000000000E+00 0. -1.
         21   -1    0    0  501  502 -0.00000000000E+00 -0.00000000000E+00 -0.67211871470E+03  0.67211871470E+03  0.00000000000E+00 0. -1.
         25    1    1    2    0    0  0.21465798828E+03 -0.16525907871E+03 -0.18582927276E+03  0.35149129953E+03  0.12500000000E+03 0.  0.
         25    1    1    2    0    0 -0.21465798828E+03  0.16525907871E+03 -0.34830180725E+03  0.45861504987E+03  0.12500000000E+03 0.  0.
</event>
<event>
 4    0  0.2259196E-002  0.2032736E+03  0.7546771E-02  0.1147006E+00
         21   -1    0    0  502  501  0.00000000000E+00  0.00000000000E+00  0.16176149758E+03  0.16176149758E+03  0.00000000000E+00 0.  1.
         21   -1    0    0  501  502 -0.00000000000E+00 -0.00000000000E+00 -0.25543885155E+03  0.25543885155E+03  0.00000000000E+00 0.  1.
         25    1    1    2    0    0  0.78699035841E+02  0.13309366595E+03 -0.34494387175E+01  0.19885763949E+03  0.12500000000E+03 0.  0.
         25    1    1    2    0    0 -0.78699035841E+02 -0.13309366595E+03 -0.90227915253E+02  0.21834270963E+03  0.12500000000E+03 0.  0.
</event>
<event>
 4    0  0.2259196E-002  0.1874112E+03  0.7546771E-02  0.1160817E+00
         21   -1    0    0  502  501  0.00000000000E+00  0.00000000000E+00  0.10622637388E+04  0.10622637388E+04  0.00000000000E+00 0.  1.
         21   -1    0    0  501  502 -0.00000000000E+00 -0.00000000000E+00 -0.33064239692E+02  0.33064239692E+02  0.00000000000E+00 0.  1.
         25    1    1    2    0    0 -0.46363995296E+02 -0.12587212823E+03  0.40125036023E+03  0.44115786778E+03  0.12500000000E+03 0.  0.
         25    1    1    2    0    0  0.46363995296E+02  0.12587212823E+03  0.62794913892E+03  0.65417011074E+03  0.12500000000E+03 0.  0.
</event>
<event>
 4    0  0.2259196E-002  0.1917633E+03  0.7546771E-02  0.1156880E+00
         21   -1    0    0  502  501  0.00000000000E+00  0.00000000000E+00  0.75732507106E+02  0.75732507106E+02  0.00000000000E+00 0.  1.
         21   -1    0    0  501  502 -0.00000000000E+00 -0.00000000000E+00 -0.48556667363E+03  0.48556667363E+03  0.00000000000E+00 0.  1.
         25    1    1    2    0    0  0.25136717584E+02  0.76167446252E+02 -0.38244910010E+03  0.41027508894E+03  0.12500000000E+03 0.  0.
         25    1    1    2    0    0 -0.25136717584E+02 -0.76167446252E+02 -0.27385066425E+02  0.15102409179E+03  0.12500000000E+03 0.  0.
</event>
<event>
 4    0  0.2259196E-002  0.3021200E+03  0.7546771E-02  0.1084186E+00
         21   -1    0    0  502  501  0.00000000000E+00  0.00000000000E+00  0.41657845271E+03  0.41657845271E+03  0.00000000000E+00 0. -1.
         21   -1    0    0  501  502 -0.00000000000E+00 -0.00000000000E+00 -0.21911000913E+03  0.21911000913E+03  0.00000000000E+00 0. -1.
         25    1    1    2    0    0 -0.75970538828E+02  0.23063579738E+03  0.23463609719E+03  0.36006040036E+03  0.12500000000E+03 0.  0.
         25    1    1    2    0    0  0.75970538828E+02 -0.23063579738E+03 -0.37167653608E+02  0.27562806149E+03  0.12500000000E+03 0.  0.
</event>
<event>
 4    0  0.2259196E-002  0.2190363E+03  0.7546771E-02  0.1134604E+00
         21   -1    0    0  502  501  0.00000000000E+00  0.00000000000E+00  0.20508733107E+04  0.20508733107E+04  0.00000000000E+00 0.  1.
         21   -1    0    0  501  502 -0.00000000000E+00 -0.00000000000E+00 -0.23393400938E+02  0.23393400938E+02  0.00000000000E+00 0.  1.
         25    1    1    2    0    0  0.17534592499E+03 -0.17176533357E+01  0.12033024710E+04  0.12224201325E+04  0.12500000000E+03 0.  0.
         25    1    1    2    0    0 -0.17534592499E+03  0.17176533357E+01  0.82417743877E+03  0.85184657910E+03  0.12500000000E+03 0.  0.
</event>
<event>
 4    0  0.2259196E-002  0.2652645E+03  0.7546771E-02  0.1104021E+00
         21   -1    0    0  502  501  0.00000000000E+00  0.00000000000E+00  0.16306109959E+03  0.16306109959E+03  0.00000000000E+00 0.  1.
         21   -1    0    0  501  502 -0.00000000000E+00 -0.00000000000E+00 -0.43152679442E+03  0.43152679442E+03  0.00000000000E+00 0.  1.
         25    1    1    2    0    0 -0.22430659219E+03  0.63369259418E+02 -0.15695727882E+03  0.30755438172E+03  0.12500000000E+03 0.  0.
         25    1    1    2    0    0  0.22430659219E+03 -0.63369259418E+02 -0.11150841601E+03  0.28703351230E+03  0.12500000000E+03 0.  0.
</event>
<event>
 4    0  0.2259196E-002  0.1799407E+03  0.7546771E-02  0.1167860E+00
         21   -1    0    0  502  501  0.00000000000E+00  0.00000000000E+00  0.81424032291E+03  0.81424032291E+03  0.00000000000E+00 0.  1.
         21   -1    0    0  501  502 -0.00000000000E+00 -0.00000000000E+00 -0.39765499575E+02  0.39765499575E+02  0.00000000000E+00 0.  1.
         25    1    1    2    0    0  0.33132633681E+00 -0.27431727658E+02  0.68741325504E+03  0.69922427923E+03  0.12500000000E+03 0.  0.
         25    1    1    2    0    0 -0.33132633681E+00  0.27431727658E+02  0.87061568300E+02  0.15478154326E+03  0.12500000000E+03 0.  0.
</event>
<event>
 4    0  0.2259196E-002  0.2065654E+03  0.7546771E-02  0.1144315E+00
         21   -1    0    0  502  501  0.00000000000E+00  0.00000000000E+00  0.41649165230E+02  0.41649165230E+02  0.00000000000E+00 0. -1.
         21   -1    0    0  501  502 -0.00000000000E+00 -0.00000000000E+00 -0.10244927541E+04  0.10244927541E+04  0.00000000000E+00 0. -1.
         25    1    1    2    0    0  0.11638244748E+03  0.54072866794E+02 -0.22603563329E+03  0.28841958415E+03  0.12500000000E+03 0.  0.
         25    1    1    2    0    0 -0.11638244748E+03 -0.54072866794E+02 -0.75680795556E+03  0.77772233516E+03  0.12500000000E+03 0.  0.
</event>
<event>
 4    0  0.2259196E-002  0.3517053E+03  0.7546771E-02  0.1061917E+00
         21   -1    0    0  502  501  0.00000000000E+00  0.00000000000E+00  0.22278016348E+03  0.22278016348E+03  0.00000000000E+00 0. -1.
         21   -1    0    0  501  502 -0.00000000000E+00 -0.00000000000E+00 -0.55524085750E+03  0.55524085750E+03  0.00000000000E+00 0. -1.
         25    1    1    2    0    0  0.22283658627E+03  0.10302587877E+03 -0.40805559720E+03  0.49234626665E+03  0.12500000000E+03 0.  0.
         25    1    1    2    0    0 -0.22283658627E+03 -0.10302587877E+03  0.75594903185E+02  0.28567475433E+03  0.12500000000E+03 0.  0.
</event>
<event>
 4    0  0.2259196E-002  0.2099523E+03  0.7546771E-02  0.1141604E+00
         21   -1    0    0  502  501  0.00000000000E+00  0.00000000000E+00  0.73539673005E+02  0.73539673005E+02  0.00000000000E+00 0.  1.
         21   -1    0    0  501  502 -0.00000000000E+00 -0.00000000000E+00 -0.59940399933E+03  0.59940399933E+03  0.00000000000E+00 0.  1.
         25    1    1    2    0    0  0.10784515406E+03  0.85808485680E+02 -0.10704746939E+03  0.21465748105E+03  0.12500000000E+03 0.  0.
         25    1    1    2    0    0 -0.10784515406E+03 -0.85808485680E+02 -0.41881685693E+03  0.45828619128E+03  0.12500000000E+03 0.  0.
</event>
<event>
 4    0  0.2259196E-002  0.2807705E+03  0.7546771E-02  0.1095269E+00
         21   -1    0    0  502  501  0.00000000000E+00  0.00000000000E+00  0.10531469832E+04  0.10531469832E+04  0.00000000000E+00 0.  1.
         21   -1    0    0  501  502 -0.00000000000E+00 -0.00000000000E+00 -0.74853795668E+02  0.74853795668E+02  0.00000000000E+00 0.  1.
         25    1    1    2    0    0 -0.10023071418E+03  0.22135477497E+03  0.61875311467E+03  0.67640561011E+03  0.12500000000E+03 0.  0.
         25    1    1    2    0    0  0.10023071418E+03 -0.22135477497E+03  0.35954007290E+03  0.45159516881E+03  0.12500000000E+03 0.  0.
</event>
<event>
 4    0  0.2259196E-002  0.2467969E+03  0.7546771E-02  0.1115346E+00
         21   -1    0    0  502  501  0.00000000000E+00  0.00000000000E+00  0.93566559450E+03  0.93566559450E+03  0.00000000000E+00 0. -1.
         21   -1    0    0  501  502 -0.00000000000E+00 -0.00000000000E+00 -0.65096677699E+02  0.65096677699E+02  0.00000000000E+00 0. -1.
         25    1    1    2    0    0  0.10186183597E+03 -0.87723575179E+02  0.76974516836E+03  0.79133045150E+03  0.12500000000E+03 0.  0.
         25    1    1    2    0    0 -0.10186183597E+03  0.87723575179E+02  0.10082374844E+03  0.20943182069E+03  0.12500000000E+03 0.  0.
</event>
<event>
 4    0  0.2259196E-002  0.1734999E+03  0.7546771E-02  0.1174246E+00
         21   -1    0    0  502  501  0.00000000000E+00  0.00000000000E+00  0.13322721203E+03  0.13322721203E+03  0.00000000000E+00 0. -1.
         21   -1    0    0  501  502 -0.00000000000E+00 -0.00000000000E+00 -0.22594641922E+03  0.22594641922E+03  0.00000000000E+00 0. -1.
         25    1    1    2    0    0 -0.93582418983E+02 -0.27677529066E+02  0.26490670352E+02  0.16078081469E+03  0.12500000000E+03 0.  0.
         25    1    1    2    0    0  0.93582418983E+02  0.27677529066E+02 -0.11920987754E+03  0.19839281656E+03  0.12500000000E+03 0.  0.
</event>
<event>
 4    0  0.2259196E-002  0.1886554E+03  0.7546771E-02  0.1159680E+00
         21   -1    0    0  502  501  0.00000000000E+00  0.00000000000E+00  0.50496150565E+02  0.50496150565E+02  0.00000000000E+00 0.  1.
         21   -1    0    0  501  502 -0.00000000000E+00 -0.00000000000E+00 -0.70482286610E+03  0.70482286610E+03  0.00000000000E+00 0.  1.
         25    1    1    2    0    0  0.59815589230E+01  0.12639139830E+03 -0.20126509303E+03  0.26859486645E+03  0.12500000000E+03 0.  0.
         25    1    1    2    0    0 -0.59815589230E+01 -0.12639139830E+03 -0.45306162251E+03  0.48672415022E+03  0.12500000000E+03 0.  0.
</event>
<event>
 4    0  0.2259196E-002  0.2166065E+03  0.7546771E-02  0.1136439E+00
         21   -1    0    0  502  501  0.00000000000E+00  0.00000000000E+00  0.32160539090E+03  0.32160539090E+03  0.00000000000E+00 0. -1.
         21   -1    0    0  501  502 -0.00000000000E+00 -0.00000000000E+00 -0.14588801666E+03  0.14588801666E+03  0.00000000000E+00 0. -1.
         25    1    1    2    0    0  0.44954761176E+02 -0.19022481771E+02  0.27134449653E+03  0.30271376111E+03  0.12500000000E+03 0.  0.
         25    1    1    2    0    0 -0.44954761176E+02  0.19022481771E+02 -0.95627122292E+02  0.16477964645E+03  0.12500000000E+03 0.  0.
</event>
<event>
 4    0  0.2259196E-002  0.3177430E+03  0.7546771E-02  0.1076693E+00
         21   -1    0    0  502  501  0.00000000000E+00  0.00000000000E+00  0.12449336492E+03  0.12449336492E+03  0.00000000000E+00 0.  1.
         21   -1    0    0  501  502 -0.00000000000E+00 -0.00000000000E+00 -0.81097203239E+03  0.81097203239E+03  0.00000000000E+00 0.  1.
         25    1    1    2    0    0  0.42640389286E+02  0.15465296426E+03  0.16132832899E+02  0.20401228014E+03  0.12500000000E+03 0.  0.
         25    1    1    2    0    0 -0.42640389286E+02 -0.15465296426E+03 -0.70261150037E+03  0.73145311716E+03  0.12500000000E+03 0.  0.
</event>
<event>
 4    0  0.2259196E-002  0.2172622E+03  0.7546771E-02  0.1135941E+00
         21   -1    0    0  502  501  0.00000000000E+00  0.00000000000E+00  0.35683807994E+02  0.35683807994E+02  0.00000000000E+00 0. -1.
         21   -1    0    0  501  502 -0.00000000000E+00 -0.00000000000E+00 -0.13228096359E+04  0.13228096359E+04  0.00000000000E+00 0. -1.
         25    1    1    2    0    0  0.10378741229E+03  0.11879679625E+03 -0.89934256934E+03  0.92158915075E+03  0.12500000000E+03 0.  0.
         25    1    1    2    0    0 -0.10378741229E+03 -0.11879679625E+03 -0.38778325861E+03  0.43690429319E+03  0.12500000000E+03 0.  0.
</event>
<event>
 4    0  0.2259196E-002  0.2495245E+03  0.7546771E-02  0.1113606E+00
         21   -1    0    0  502  501  0.00000000000E+00  0.00000000000E+00  0.58713513165E+03  0.58713513165E+03  0.00000000000E+00 0.  1.
         21   -1    0    0  501  502 -0.00000000000E+00 -0.00000000000E+00 -0.10604453465E+03  0.10604453465E+03  0.00000000000E+00 0.  1.
         25    1    1    2    0    0 -0.36455093588E+02 -0.73201692445E+02  0.51817190659E+03  0.53927227484E+03  0.12500000000E+03 0.  0.
         25    1    1    2    0    0  0.36455093588E+02  0.73201692445E+02 -0.37081309601E+02  0.15390739146E+03  0.12500000000E+03 0.  0.
</event>
<event>
 4    0  0.2259196E-002  0.2418261E+03  0.7546771E-02  0.1118582E+00
         21   -1    0    0  502  501  0.00000000000E+00  0.00000000000E+00  0.38798103852E+03  0.38798103852E+03  0.00000000000E+00 0. -1.
         21   -1    0    0  501  502 -0.00000000000E+00 -0.00000000000E+00 -0.15072869183E+03  0.15072869183E+03  0.00000000000E+00 0. -1.
         25    1    1    2    0    0 -0.72544046793E+02  0.48346964263E+02 -0.90510780342E+02  0.17724917217E+03  0.12500000000E+03 0.  0.
         25    1    1    2    0    0  0.72544046793E+02 -0.48346964263E+02  0.32776312703E+03  0.36146055818E+03  0.12500000000E+03 0.  0.
</event>
<event>
 4    0  0.2259196E-002  0.1976075E+03  0.7546771E-02  0.1151773E+00
         21   -1    0    0  502  501  0.00000000000E+00  0.00000000000E+00  0.58423582617E+02  0.58423582617E+02  0.00000000000E+00 0.  1.
         21   -1    0    0  501  502 -0.00000000000E+00 -0.00000000000E+00 -0.66837254148E+03  0.66837254148E+03  0.00000000000E+00 0.  1.
         25    1    1    2    0    0 -0.43750337044E+01 -0.10423418469E+03 -0.51090690325E+03  0.53622268692E+03  0.12500000000E+03 0.  0.
         25    1    1    2    0    0  0.43750337044E+01  0.10423418469E+03 -0.99042055610E+02  0.19057343718E+03  0.12500000000E+03 0.  0.
</event>
<event>
 4    0  0.2259196E-002  0.2197777E+03  0.7546771E-02  0.1134049E+00
         21   -1    0    0  502  501  0.00000000000E+00  0.00000000000E+00  0.31477759133E+03  0.31477759133E+03  0.00000000000E+00 0. -1.
         21   -1    0    0  501  502 -0.00000000000E+00 -0.00000000000E+00 -0.15344884524E+03  0.15344884524E+03  0.00000000000E+00 0. -1.
         25    1    1    2    0    0  0.94473223668E+02 -0.13545859349E+03  0.23644736530E+01  0.20713476598E+03  0.12500000000E+03 0.  0.
         25    1    1    2    0    0 -0.94473223668E+02  0.13545859349E+03  0.15896427244E+03  0.26109167059E+03  0.12500000000E+03 0.  0.
</event>
<event>
 4    0  0.2259196E-002  0.2906571E+03  0.7546771E-02  0.1090007E+00
         21   -1    0    0  502  501  0.00000000000E+00  0.00000000000E+00  0.83530181676E+02  0.83530181676E+02  0.00000000000E+00 0.  1.
         21   -1    0    0  501  502 -0.00000000000E+00 -0.00000000000E+00 -0.10113895170E+04  0.10113895170E+04  0.00000000000E+00 0.  1.
         25    1    1    2    0    0  0.17210888821E+03 -0.11688694542E+03 -0.76513185604E+03  0.80270529121E+03  0.12500000000E+03 0.  0.
         25    1    1    2    0    0 -0.17210888821E+03  0.11688694542E+03 -0.16272747928E+03  0.29221440745E+03  0.12500000000E+03 0.  0.
</event>
<event>
 4    0  0.2259196E-002  0.1831518E+03  0.7546771E-02  0.1164787E+00
         21   -1    0    0  502  501  0.00000000000E+00  0.00000000000E+00  0.54226412587E+02  0.54226412587E+02  0.00000000000E+00 0. -1.
         21   -1    0    0  501  502 -0.00000000000E+00 -0.00000000000E+00 -0.61860210858E+03  0.61860210858E+03  0.00000000000E+00 0. -1.
         25    1    1    2    0    0  0.12206827956E+03 -0.32378175702E+02 -0.36372552180E+03  0.40480892573E+03  0.12500000000E+03 0.  0.
         25    1    1    2    0    0 -0.12206827956E+03  0.32378175702E+02 -0.20065017419E+03  0.26801959544E+03  0.12500000000E+03 0.  0.
</event>
<event>
 4    0  0.2259196E-002  0.2004948E+03  0.7546771E-02  0.1149322E+00
         21   -1    0    0  502  501  0.00000000000E+00  0.00000000000E+00  0.89451296841E+03  0.89451296841E+03  0.00000000000E+00 0.  1.
         21   -1    0    0  501  502 -0.00000000000E+00 -0.00000000000E+00 -0.44938627098E+02  0.44938627098E+02  0.00000000000E+00 0.  1.
         25    1    1    2    0    0  0.88337408632E+02  0.87995661521E+02  0.64737411862E+03  0.67101787135E+03  0.12500000000E+03 0.  0.
         25    1    1    2    0    0 -0.88337408632E+02 -0.87995661521E+02  0.20220022270E+03  0.26843372416E+03  0.12500000000E+03 0.  0.
</event>
<event>
 4    0  0.2259196E-002  0.1776299E+03  0.7546771E-02  0.1170117E+00
         21   -1    0    0  502  501  0.00000000000E+00  0.00000000000E+00  0.34125891668E+03  0.34125891668E+03  0.00000000000E+00 0.  1.
         21   -1    0    0  501  502 -0.00000000000E+00 -0.00000000000E+00 -0.92458783034E+02  0.92458783034E+02  0.00000000000E+00 0.  1.
         25    1    1    2    0    0 -0.22129628444E+02 -0.11858937662E+03  0.79142652847E+02  0.19089714561E+03  0.12500000000E+03 0.  0.
         25    1    1    2    0    0  0.22129628444E+02  0.11858937662E+03  0.16965748080E+03  0.24282055410E+03  0.12500000000E+03 0.  0.
</event>
<event>
 4    0  0.2259196E-002  0.1794390E+03  0.7546771E-02  0.1168347E+00
         21   -1    0    0  502  501  0.00000000000E+00  0.00000000000E+00  0.11813972283E+03  0.11813972283E+03  0.00000000000E+00 0.  1.
         21   -1    0    0  501  502 -0.00000000000E+00 -0.00000000000E+00 -0.27254467609E+03  0.27254467609E+03  0.00000000000E+00 0.  1.
         25    1    1    2    0    0 -0.34379788870E+02  0.45573792040E+02 -0.20281711295E+03  0.24498718683E+03  0.12500000000E+03 0.  0.
         25    1    1    2    0    0  0.34379788870E+02 -0.45573792040E+02  0.48412159696E+02  0.14569721209E+03  0.12500000000E+03 0.  0.
</event>
<event>
 4    0  0.2259196E-002  0.2163582E+03  0.7546771E-02  0.1136628E+00
         21   -1    0    0  502  501  0.00000000000E+00  0.00000000000E+00  0.96936534749E+03  0.96936534749E+03  0.00000000000E+00 0. -1.
         21   -1    0    0  501  502 -0.00000000000E+00 -0.00000000000E+00 -0.48290214563E+02  0.48290214563E+02  0.00000000000E+00 0. -1.
         25    1    1    2    0    0  0.15634849038E+03  0.76885195755E+02  0.39279650645E+03  0.44751567486E+03  0.12500000000E+03 0.  0.
         25    1    1    2    0    0 -0.15634849038E+03 -0.76885195755E+02  0.52827862648E+03  0.57013988719E+03  0.12500000000E+03 0.  0.
</event>
<event>
 4    0  0.2259196E-002  0.4674746E+03  0.7546771E-02  0.1022635E+00
         21   -1    0    0  502  501  0.00000000000E+00  0.00000000000E+00  0.78405956212E+03  0.78405956212E+03  0.00000000000E+00 0. -1.
         21   -1    0    0  501  502 -0.00000000000E+00 -0.00000000000E+00 -0.27871921230E+03  0.27871921230E+03  0.00000000000E+00 0. -1.
         25    1    1    2    0    0  0.14124395366E+03  0.31364729659E+03 -0.77924910411E+02  0.37419483263E+03  0.12500000000E+03 0.  0.
         25    1    1    2    0    0 -0.14124395366E+03 -0.31364729659E+03  0.58326526023E+03  0.68858394179E+03  0.12500000000E+03 0.  0.
</event>
<event>
 4    0  0.2259196E-002  0.2937636E+03  0.7546771E-02  0.1088400E+00
         21   -1    0    0  502  501  0.00000000000E+00  0.00000000000E+00  0.14851811530E+04  0.14851811530E+04  0.00000000000E+00 0.  1.
         21   -1    0    0  501  502 -0.00000000000E+00 -0.00000000000E+00 -0.58105391170E+02  0.58105391170E+02  0.00000000000E+00 0.  1.
         25    1    1    2    0    0  0.24605167494E+03 -0.77608878063E+02  0.88188500221E+03  0.92731371273E+03  0.12500000000E+03 0.  0.
         25    1    1    2    0    0 -0.24605167494E+03  0.77608878063E+02  0.54519075959E+03  0.61597283141E+03  0.12500000000E+03 0.  0.
</event>
<event>
 4    0  0.2259196E-002  0.2656817E+03  0.7546771E-02  0.1103777E+00
         21   -1    0    0  502  501  0.00000000000E+00  0.00000000000E+00  0.15103924312E+03  0.15103924312E+03  0.00000000000E+00 0.  1.
         21   -1    0    0  501  502 -0.00000000000E+00 -0.00000000000E+00 -0.46734049493E+03  0.46734049493E+03  0.00000000000E+00 0.  1.
         25    1    1    2    0    0  0.15501661464E+03 -0.12604328648E+03 -0.30089379150E+03  0.38220300188E+03  0.12500000000E+03 0.  0.
         25    1    1    2    0    0 -0.15501661464E+03  0.12604328648E+03 -0.15407460311E+02  0.23617673618E+03  0.12500000000E+03 0.  0.
</event>
<event>
 4    0  0.2259196E-002  0.2940142E+03  0.7546771E-02  0.1088272E+00
         21   -1    0    0  502  501  0.00000000000E+00  0.00000000000E+00  0.24865242616E+03  0.24865242616E+03  0.00000000000E+00 0.  1.
         21   -1    0    0  501  502 -0.00000000000E+00 -0.00000000000E+00 -0.34765135698E+03  0.34765135698E+03  0.00000000000E+00 0.  1.
         25    1    1    2    0    0  0.25706397755E+02  0.12450566136E+03 -0.28657768208E+03  0.33751184640E+03  0.12500000000E+03 0.  0.
         25    1    1    2    0    0 -0.25706397755E+02 -0.12450566136E+03  0.18757875126E+03  0.25879193674E+03  0.12500000000E+03 0.  0.
</event>
<event>
 4    0  0.2259196E-002  0.2928989E+03  0.7546771E-02  0.1088845E+00
         21   -1    0    0  502  501  0.00000000000E+00  0.00000000000E+00  0.72996443387E+02  0.72996443387E+02  0.00000000000E+00 0. -1.
         21   -1    0    0  501  502 -0.00000000000E+00 -0.00000000000E+00 -0.11752598069E+04  0.11752598069E+04  0.00000000000E+00 0. -1.
         25    1    1    2    0    0  0.85824837234E+02 -0.18282263507E+02 -0.18566107594E+02  0.15385007051E+03  0.12500000000E+03 0.  0.
         25    1    1    2    0    0 -0.85824837234E+02  0.18282263507E+02 -0.10836972559E+04  0.10944061798E+04  0.12500000000E+03 0.  0.
</event>
<event>
 4    0  0.2259196E-002  0.2382729E+03  0.7546771E-02  0.1120949E+00
         21   -1    0    0  502  501  0.00000000000E+00  0.00000000000E+00  0.11723326132E+03  0.11723326132E+03  0.00000000000E+00 0. -1.
         21   -1    0    0  501  502 -0.00000000000E+00 -0.00000000000E+00 -0.48428202152E+03  0.48428202152E+03  0.00000000000E+00 0. -1.
         25    1    1    2    0    0 -0.58627065488E+02 -0.17026385487E+03 -0.30140741341E+03  0.37269067863E+03  0.12500000000E+03 0.  0.
         25    1    1    2    0    0  0.58627065488E+02  0.17026385487E+03 -0.65641346792E+02  0.22882460421E+03  0.12500000000E+03 0.  0.
</event>
<event>
 4    0  0.2259196E-002  0.1868082E+03  0.7546771E-02  0.1161372E+00
         21   -1    0    0  502  501  0.00000000000E+00  0.00000000000E+00  0.20207131176E+03  0.20207131176E+03  0.00000000000E+00 0.  1.
         21   -1    0    0  501  502 -0.00000000000E+00 -0.00000000000E+00 -0.17269799832E+03  0.17269799832E+03  0.00000000000E+00 0.  1.
         25    1    1    2    0    0 -0.16953168844E+01  0.10245035593E+03 -0.79268593664E+02  0.18002071956E+03  0.12500000000E+03 0.  0.
         25    1    1    2    0    0  0.16953168844E+01 -0.10245035593E+03  0.10864190710E+03  0.19474859052E+03  0.12500000000E+03 0.  0.
</event>
<event>
 4    0  0.2259196E-002  0.1619854E+03  0.7546771E-02  0.1186473E+00
         21   -1    0    0  502  501  0.00000000000E+00  0.00000000000E+00  0.15494822703E+03  0.15494822703E+03  0.00000000000E+00 0.  1.
         21   -1    0    0  501  502 -0.00000000000E+00 -0.00000000000E+00 -0.16934218669E+03  0.16934218669E+03  0.00000000000E+00 0.  1.
         25    1    1    2    0    0 -0.68828690809E+02 -0.60598835424E+02  0.39803191225E+02  0.16005905649E+03  0.12500000000E+03 0.  0.
         25    1    1    2    0    0  0.68828690809E+02  0.60598835424E+02 -0.54197150883E+02  0.16423135723E+03  0.12500000000E+03 0.  0.
</event>
<event>
 4    0  0.2259196E-002  0.2036792E+03  0.7546771E-02  0.1146671E+00
         21   -1    0    0  502  501  0.00000000000E+00  0.00000000000E+00  0.16975264994E+04  0.16975264994E+04  0.00000000000E+00 0.  1.
         21   -1    0    0  501  502 -0.00000000000E+00 -0.00000000000E+00 -0.24438632925E+02  0.24438632925E+02  0.00000000000E+00 0.  1.
         25    1    1    2    0    0 -0.23320144686E+02 -0.14880503900E+03  0.59841398661E+03  0.62961183928E+03  0.12500000000E+03 0.  0.
         25    1    1    2    0    0  0.23320144686E+02  0.14880503900E+03  0.10746738799E+04  0.10923532931E+04  0.12500000000E+03 0.  0.
</event>
<event>
 4    0  0.2259196E-002  0.2203436E+03  0.7546771E-02  0.1133627E+00
         21   -1    0    0  502  501  0.00000000000E+00  0.00000000000E+00  0.37436683588E+02  0.37436683588E+02  0.00000000000E+00 0.  1.
         21   -1    0    0  501  502 -0.00000000000E+00 -0.00000000000E+00 -0.12968913740E+04  0.12968913740E+04  0.00000000000E+00 0.  1.
         25    1    1    2    0    0 -0.80178594730E+02  0.15103720776E+03 -0.81354126270E+03  0.84066356606E+03  0.12500000000E+03 0.  0.
         25    1    1    2    0    0  0.80178594730E+02 -0.15103720776E+03 -0.44591342767E+03  0.49366449149E+03  0.12500000000E+03 0.  0.
</event>
<event>
 4    0  0.2259196E-002  0.2180031E+03  0.7546771E-02  0.1135381E+00
         21   -1    0    0  502  501  0.00000000000E+00  0.00000000000E+00  0.15837585086E+03  0.15837585086E+03  0.00000000000E+00 0. -1.
         21   -1    0    0  501  502 -0.00000000000E+00 -0.00000000000E+00 -0.30007949016E+03  0.30007949016E+03  0.00000000000E+00 0. -1.
         25    1    1    2    0    0  0.16284863806E+03 -0.61745305748E+02 -0.29212583135E+02  0.21635742815E+03  0.12500000000E+03 0.  0.
         25    1    1    2    0    0 -0.16284863806E+03  0.61745305748E+02 -0.11249105617E+03  0.24209791288E+03  0.12500000000E+03 0.  0.
</event>
<event>
 4    0  0.2259196E-002  0.2599218E+03  0.7546771E-02  0.1107190E+00
         21   -1    0    0  502  501  0.00000000000E+00  0.00000000000E+00  0.13288069168E+03  0.13288069168E+03  0.00000000000E+00 0. -1.
         21   -1    0    0  501  502 -0.00000000000E+00 -0.00000000000E+00 -0.50842092456E+03  0.50842092456E+03  0.00000000000E+00 0. -1.
         25    1    1    2    0    0 -0.65089736773E+02  0.15730833939E+03 -0.37466502344E+03  0.43009471894E+03  0.12500000000E+03 0.  0.
         25    1    1    2    0    0  0.65089736773E+02 -0.15730833939E+03 -0.87520944118E+00  0.21120689730E+03  0.12500000000E+03 0.  0.
</event>
<event>
 4    0  0.2259196E-002  0.3753062E+03  0.7546771E-02  0.1052682E+00
         21   -1    0    0  502  501  0.00000000000E+00  0.00000000000E+00  0.49942893488E+03  0.49942893488E+03  0.00000000000E+00 0. -1.
         21   -1    0    0  501  502 -0.00000000000E+00 -0.00000000000E+00 -0.28203159115E+03  0.28203159115E+03  0.00000000000E+00 0.  1.
         25    1    1    2    0    0  0.19618020163E+03 -0.28840049885E+03  0.17088816336E+03  0.40803098366E+03  0.12500000000E+03 0.  0.
         25    1    1    2    0    0 -0.19618020163E+03  0.28840049885E+03  0.46509180367E+02  0.37342954236E+03  0.12500000000E+03 0.  0.
</event>
<event>
 4    0  0.2259196E-002  0.2966389E+03  0.7546771E-02  0.1086933E+00
         21   -1    0    0  502  501  0.00000000000E+00  0.00000000000E+00  0.26601289992E+03  0.26601289992E+03  0.00000000000E+00 0.  1.
         21   -1    0    0  501  502 -0.00000000000E+00 -0.00000000000E+00 -0.33079076542E+03  0.33079076542E+03  0.00000000000E+00 0.  1.
         25    1    1    2    0    0  0.15137706829E+03 -0.15549700660E+03 -0.19231578625E+03  0.31576050657E+03  0.12500000000E+03 0.  0.
         25    1    1    2    0    0 -0.15137706829E+03  0.15549700660E+03  0.12753792075E+03  0.28104315878E+03  0.12500000000E+03 0.  0.
</event>
<event>
 4    0  0.2259196E-002  0.1477533E+03  0.7546771E-02  0.1203261E+00
         21   -1    0    0  502  501  0.00000000000E+00  0.00000000000E+00  0.68267538286E+02  0.68267538286E+02  0.00000000000E+00 0.  1.
         21   -1    0    0  501  502 -0.00000000000E+00 -0.00000000000E+00 -0.31978646644E+03  0.31978646644E+03  0.00000000000E+00 0.  1.
         25    1    1    2    0    0 -0.95708252124E+01 -0.58019831728E+02 -0.19459994693E+03  0.23864626734E+03  0.12500000000E+03 0.  0.
         25    1    1    2    0    0  0.95708252124E+01  0.58019831728E+02 -0.56918981230E+02  0.14940773739E+03  0.12500000000E+03 0.  0.
</event>
<event>
 4    0  0.2259196E-002  0.2556402E+03  0.7546771E-02  0.1109791E+00
         21   -1    0    0  502  501  0.00000000000E+00  0.00000000000E+00  0.14529014235E+03  0.14529014235E+03  0.00000000000E+00 0. -1.
         21   -1    0    0  501  502 -0.00000000000E+00 -0.00000000000E+00 -0.44980270179E+03  0.44980270179E+03  0.00000000000E+00 0. -1.
         25    1    1    2    0    0 -0.24115292878E+02 -0.12112925534E+03  0.63849067103E+02  0.18696402654E+03  0.12500000000E+03 0.  0.
         25    1    1    2    0    0  0.24115292878E+02  0.12112925534E+03 -0.36836162654E+03  0.40812881760E+03  0.12500000000E+03 0.  0.
</event>
<event>
 4    0  0.2259196E-002  0.3270214E+03  0.7546771E-02  0.1072462E+00
         21   -1    0    0  502  501  0.00000000000E+00  0.00000000000E+00  0.63992639276E+03  0.63992639276E+03  0.00000000000E+00 0. -1.
         21   -1    0    0  501  502 -0.00000000000E+00 -0.00000000000E+00 -0.16711762120E+03  0.16711762120E+03  0.00000000000E+00 0. -1.
         25    1    1    2    0    0  0.27615634256E+03 -0.14110997251E+02  0.38680506371E+03  0.49163462357E+03  0.12500000000E+03 0.  0.
         25    1    1    2    0    0 -0.27615634256E+03  0.14110997251E+02  0.86003707839E+02  0.31540939039E+03  0.12500000000E+03 0.  0.
</event>
<event>
 4    0  0.2259196E-002  0.2107820E+03  0.7546771E-02  0.1140948E+00
         21   -1    0    0  502  501  0.00000000000E+00  0.00000000000E+00  0.15076524889E+04  0.15076524889E+04  0.00000000000E+00 0.  1.
         21   -1    0    0  501  502 -0.00000000000E+00 -0.00000000000E+00 -0.29469030888E+02  0.29469030888E+02  0.00000000000E+00 0.  1.
         25    1    1    2    0    0  0.16004578840E+03  0.54677961329E+02  0.68756178140E+03  0.71900663215E+03  0.12500000000E+03 0.  0.
         25    1    1    2    0    0 -0.16004578840E+03 -0.54677961329E+02  0.79062167665E+03  0.81811488767E+03  0.12500000000E+03 0.  0.
</event>
<event>
 4    0  0.2259196E-002  0.2095605E+03  0.7546771E-02  0.1141914E+00
         21   -1    0    0  502  501  0.00000000000E+00  0.00000000000E+00  0.10410642159E+03  0.10410642159E+03  0.00000000000E+00 0.  1.
         21   -1    0    0  501  502 -0.00000000000E+00 -0.00000000000E+00 -0.42183381132E+03  0.42183381132E+03  0.00000000000E+00 0.  1.
         25    1    1    2    0    0 -0.13131634109E+02  0.12725032205E+03 -0.29590001475E+03  0.34575555383E+03  0.12500000000E+03 0.  0.
         25    1    1    2    0    0  0.13131634109E+02 -0.12725032205E+03 -0.21827374980E+02  0.18018467908E+03  0.12500000000E+03 0.  0.
</event>
<event>
 4    0  0.2259196E-002  0.3382905E+03  0.7546771E-02  0.1067526E+00
         21   -1    0    0  502  501  0.00000000000E+00  0.00000000000E+00  0.13911569313E+04  0.13911569313E+04  0.00000000000E+00 0.  1.
         21   -1    0    0  501  502 -0.00000000000E+00 -0.00000000000E+00 -0.82262785831E+02  0.82262785831E+02  0.00000000000E+00 0.  1.
         25    1    1    2    0    0 -0.17875508335E+03 -0.25231123906E+03  0.53123406124E+03  0.62725510680E+03  0.12500000000E+03 0.  0.
         25    1    1    2    0    0  0.17875508335E+03  0.25231123906E+03  0.77766008419E+03  0.84616461030E+03  0.12500000000E+03 0.  0.
</event>
<event>
 4    0  0.2259196E-002  0.2517664E+03  0.7546771E-02  0.1112194E+00
         21   -1    0    0  502  501  0.00000000000E+00  0.00000000000E+00  0.10056226097E+04  0.10056226097E+04  0.00000000000E+00 0.  1.
         21   -1    0    0  501  502 -0.00000000000E+00 -0.00000000000E+00 -0.63031938932E+02  0.63031938932E+02  0.00000000000E+00 0.  1.
         25    1    1    2    0    0  0.62642006343E+02 -0.53630246657E+01  0.91550600292E+03  0.92613661216E+03  0.12500000000E+03 0.  0.
         25    1    1    2    0    0 -0.62642006343E+02  0.53630246657E+01  0.27084667878E+02  0.14251793651E+03  0.12500000000E+03 0.  0.
</event>
<event>
 4    0  0.2259196E-002  0.2012604E+03  0.7546771E-02  0.1148680E+00
         21   -1    0    0  502  501  0.00000000000E+00  0.00000000000E+00  0.69402567870E+03  0.69402567870E+03  0.00000000000E+00 0. -1.
         21   -1    0    0  501  502 -0.00000000000E+00 -0.00000000000E+00 -0.58363451348E+02  0.58363451348E+02  0.00000000000E+00 0. -1.
         25    1    1    2    0    0  0.10143457396E+03  0.10255308132E+03  0.19851525398E+03  0.27538956651E+03  0.12500000000E+03 0.  0.
         25    1    1    2    0    0 -0.10143457396E+03 -0.10255308132E+03  0.43714697337E+03  0.47699956353E+03  0.12500000000E+03 0.  0.
</event>
<event>
 4    0  0.2259196E-002  0.1876710E+03  0.7546771E-02  0.1160579E+00
         21   -1    0    0  502  501  0.00000000000E+00  0.00000000000E+00  0.17591314514E+03  0.17591314514E+03  0.00000000000E+00 0.  1.
         21   -1    0    0  501  502 -0.00000000000E+00 -0.00000000000E+00 -0.20021477308E+03  0.20021477308E+03  0.00000000000E+00 0.  1.
         25    1    1    2    0    0 -0.58876653977E+02  0.72041129284E+02 -0.11695959995E+03  0.19483565565E+03  0.12500000000E+03 0.  0.
         25    1    1    2    0    0  0.58876653977E+02 -0.72041129284E+02  0.92657972008E+02  0.18129226257E+03  0.12500000000E+03 0.  0.
</event>
<event>
 4    0  0.2259196E-002  0.2356322E+03  0.7546771E-02  0.1122737E+00
         21   -1    0    0  502  501  0.00000000000E+00  0.00000000000E+00  0.13876094353E+03  0.13876094353E+03  0.00000000000E+00 0.  1.
         21   -1    0    0  501  502 -0.00000000000E+00 -0.00000000000E+00 -0.40013079315E+03  0.40013079315E+03  0.00000000000E+00 0.  1.
         25    1    1    2    0    0 -0.68751174254E+02  0.17868228799E+03 -0.19580876668E+03  0.30103182076E+03  0.12500000000E+03 0.  0.
         25    1    1    2    0    0  0.68751174254E+02 -0.17868228799E+03 -0.65561082948E+02  0.23785991592E+03  0.12500000000E+03 0.  0.
</event>
<event>
 4    0  0.2259196E-002  0.2137746E+03  0.7546771E-02  0.1138611E+00
         21   -1    0    0  502  501  0.00000000000E+00  0.00000000000E+00  0.34469771340E+03  0.34469771340E+03  0.00000000000E+00 0.  1.
         21   -1    0    0  501  502 -0.00000000000E+00 -0.00000000000E+00 -0.13257867949E+03  0.13257867949E+03  0.00000000000E+00 0.  1.
         25    1    1    2    0    0 -0.48677471478E+02  0.42287023957E+01 -0.79688142056E+02  0.15608516309E+03  0.12500000000E+03 0.  0.
         25    1    1    2    0    0  0.48677471478E+02 -0.42287023957E+01  0.29180717597E+03  0.32119122980E+03  0.12500000000E+03 0.  0.
</event>
<event>
 4    0  0.2259196E-002  0.2725825E+03  0.7546771E-02  0.1099811E+00
         21   -1    0    0  502  501  0.00000000000E+00  0.00000000000E+00  0.12941275110E+03  0.12941275110E+03  0.00000000000E+00 0. -1.
         21   -1    0    0  501  502 -0.00000000000E+00 -0.00000000000E+00 -0.57414141009E+03  0.57414141009E+03  0.00000000000E+00 0.  1.
         25    1    1    2    0    0  0.45557526537E+02  0.23788685323E+03 -0.21816736609E+03  0.34912410801E+03  0.12500000000E+03 0.  0.
         25    1    1    2    0    0 -0.45557526537E+02 -0.23788685323E+03 -0.22656129289E+03  0.35443005319E+03  0.12500000000E+03 0.  0.
</event>
<event>
 4    0  0.2259196E-002  0.3279995E+03  0.7546771E-02  0.1072025E+00
         21   -1    0    0  502  501  0.00000000000E+00  0.00000000000E+00  0.61837749375E+03  0.61837749375E+03  0.00000000000E+00 0.  1.
         21   -1    0    0  501  502 -0.00000000000E+00 -0.00000000000E+00 -0.17397738821E+03  0.17397738821E+03  0.00000000000E+00 0.  1.
         25    1    1    2    0    0  0.19554550898E+03 -0.11989496231E+02  0.50177955124E+03  0.55298237960E+03  0.12500000000E+03 0.  0.
         25    1    1    2    0    0 -0.19554550898E+03  0.11989496231E+02 -0.57379445700E+02  0.23937250237E+03  0.12500000000E+03 0.  0.
</event>
<event>
 4    0  0.2259196E-002  0.2724167E+03  0.7546771E-02  0.1099904E+00
         21   -1    0    0  502  501  0.00000000000E+00  0.00000000000E+00  0.47495555434E+03  0.47495555434E+03  0.00000000000E+00 0.  1.
         21   -1    0    0  501  502 -0.00000000000E+00 -0.00000000000E+00 -0.15624800213E+03  0.15624800213E+03  0.00000000000E+00 0.  1.
         25    1    1    2    0    0 -0.22723252673E+03 -0.17989900429E+02  0.65038112854E+02  0.26797987582E+03  0.12500000000E+03 0.  0.
         25    1    1    2    0    0  0.22723252673E+03  0.17989900429E+02  0.25366943936E+03  0.36322368065E+03  0.12500000000E+03 0.  0.
</event>
<event>
 4    0  0.2259196E-002  0.4644937E+03  0.7546771E-02  0.1023486E+00
         21   -1    0    0  502  501  0.00000000000E+00  0.00000000000E+00  0.48608014863E+03  0.48608014863E+03  0.00000000000E+00 0.  1.
         21   -1    0    0  501  502 -0.00000000000E+00 -0.00000000000E+00 -0.44386583656E+03  0.44386583656E+03  0.00000000000E+00 0. -1.
         25    1    1    2    0    0 -0.21948694731E+03  0.38589315036E+03 -0.34097991559E+02  0.46246698970E+03  0.12500000000E+03 0.  0.
         25    1    1    2    0    0  0.21948694731E+03 -0.38589315036E+03  0.76312303630E+02  0.46747899549E+03  0.12500000000E+03 0.  0.
</event>
<event>
 4    0  0.2259196E-002  0.1791456E+03  0.7546771E-02  0.1168633E+00
         21   -1    0    0  502  501  0.00000000000E+00  0.00000000000E+00  0.18149883636E+03  0.18149883636E+03  0.00000000000E+00 0.  1.
         21   -1    0    0  501  502 -0.00000000000E+00 -0.00000000000E+00 -0.17682279189E+03  0.17682279189E+03  0.00000000000E+00 0.  1.
         25    1    1    2    0    0 -0.47818438072E+02 -0.11548679618E+03  0.31397816960E+02  0.17954004016E+03  0.12500000000E+03 0.  0.
         25    1    1    2    0    0  0.47818438072E+02  0.11548679618E+03 -0.26721772491E+02  0.17878158808E+03  0.12500000000E+03 0.  0.
</event>
<event>
 4    0  0.2259196E-002  0.1814272E+03  0.7546771E-02  0.1166429E+00
         21   -1    0    0  502  501  0.00000000000E+00  0.00000000000E+00  0.11282094454E+03  0.11282094454E+03  0.00000000000E+00 0.  1.
         21   -1    0    0  501  502 -0.00000000000E+00 -0.00000000000E+00 -0.29175289742E+03  0.29175289742E+03  0.00000000000E+00 0.  1.
         25    1    1    2    0    0  0.12695802756E+03  0.27176547979E+02 -0.11269206925E+03  0.21255918704E+03  0.12500000000E+03 0.  0.
         25    1    1    2    0    0 -0.12695802756E+03 -0.27176547979E+02 -0.66239883624E+02  0.19201465492E+03  0.12500000000E+03 0.  0.
</event>
<event>
 4    0  0.2259196E-002  0.1587367E+03  0.7546771E-02  0.1190130E+00
         21   -1    0    0  502  501  0.00000000000E+00  0.00000000000E+00  0.37023560395E+02  0.37023560395E+02  0.00000000000E+00 0. -1.
         21   -1    0    0  501  502 -0.00000000000E+00 -0.00000000000E+00 -0.68057544695E+03  0.68057544695E+03  0.00000000000E+00 0. -1.
         25    1    1    2    0    0  0.34024681919E+02  0.86878380376E+02 -0.38832357505E+03  0.41848026345E+03  0.12500000000E+03 0.  0.
         25    1    1    2    0    0 -0.34024681919E+02 -0.86878380376E+02 -0.25522831151E+03  0.29911874390E+03  0.12500000000E+03 0.  0.
</event>
<event>
 4    0  0.2259196E-002  0.4391837E+03  0.7546771E-02  0.1030998E+00
         21   -1    0    0  502  501  0.00000000000E+00  0.00000000000E+00  0.11294187429E+04  0.11294187429E+04  0.00000000000E+00 0.  1.
         21   -1    0    0  501  502 -0.00000000000E+00 -0.00000000000E+00 -0.17078014405E+03  0.17078014405E+03  0.00000000000E+00 0. -1.
         25    1    1    2    0    0 -0.23989792819E+03 -0.28150746277E+03  0.18157351070E+03  0.43057102472E+03  0.12500000000E+03 0.  0.
         25    1    1    2    0    0  0.23989792819E+03  0.28150746277E+03  0.77706508816E+03  0.86962786223E+03  0.12500000000E+03 0.  0.
</event>
<event>
 4    0  0.2259196E-002  0.1831320E+03  0.7546771E-02  0.1164806E+00
         21   -1    0    0  502  501  0.00000000000E+00  0.00000000000E+00  0.31355514715E+02  0.31355514715E+02  0.00000000000E+00 0. -1.
         21   -1    0    0  501  502 -0.00000000000E+00 -0.00000000000E+00 -0.10695836293E+04  0.10695836293E+04  0.00000000000E+00 0. -1.
         25    1    1    2    0    0  0.88297064784E+02  0.95408976739E+02 -0.61478835703E+03  0.64069413017E+03  0.12500000000E+03 0.  0.
         25    1    1    2    0    0 -0.88297064784E+02 -0.95408976739E+02 -0.42343975754E+03  0.46024501383E+03  0.12500000000E+03 0.  0.
</event>
<event>
 4    0  0.2259196E-002  0.2413179E+03  0.7546771E-02  0.1118918E+00
         21   -1    0    0  502  501  0.00000000000E+00  0.00000000000E+00  0.10612582738E+03  0.10612582738E+03  0.00000000000E+00 0. -1.
         21   -1    0    0  501  502 -0.00000000000E+00 -0.00000000000E+00 -0.54872908297E+03  0.54872908297E+03  0.00000000000E+00 0. -1.
         25    1    1    2    0    0  0.25547197081E+02  0.63993165392E+02  0.42711009792E+02  0.14898662642E+03  0.12500000000E+03 0.  0.
         25    1    1    2    0    0 -0.25547197081E+02 -0.63993165392E+02 -0.48531426538E+03  0.50586828392E+03  0.12500000000E+03 0.  0.
</event>
<event>
 4    0  0.2259196E-002  0.2355420E+03  0.7546771E-02  0.1122799E+00
         21   -1    0    0  502  501  0.00000000000E+00  0.00000000000E+00  0.22213414622E+03  0.22213414622E+03  0.00000000000E+00 0.  1.
         21   -1    0    0  501  502 -0.00000000000E+00 -0.00000000000E+00 -0.24975913183E+03  0.24975913183E+03  0.00000000000E+00 0.  1.
         25    1    1    2    0    0  0.59922361322E+02  0.11886097446E+03  0.13522620570E+03  0.22722180209E+03  0.12500000000E+03 0.  0.
         25    1    1    2    0    0 -0.59922361322E+02 -0.11886097446E+03 -0.16285119131E+03  0.24467147596E+03  0.12500000000E+03 0.  0.
</event>
<event>
 4    0  0.2259196E-002  0.2517172E+03  0.7546771E-02  0.1112224E+00
         21   -1    0    0  502  501  0.00000000000E+00  0.00000000000E+00  0.71104224463E+03  0.71104224463E+03  0.00000000000E+00 0. -1.
         21   -1    0    0  501  502 -0.00000000000E+00 -0.00000000000E+00 -0.89110838020E+02  0.89110838020E+02  0.00000000000E+00 0. -1.
         25    1    1    2    0    0  0.16234648043E+03  0.12936668956E+03  0.20264854023E+03  0.31588534460E+03  0.12500000000E+03 0.  0.
         25    1    1    2    0    0 -0.16234648043E+03 -0.12936668956E+03  0.41928286638E+03  0.48426773805E+03  0.12500000000E+03 0.  0.
</event>
<event>
 4    0  0.2259196E-002  0.2484048E+03  0.7546771E-02  0.1114317E+00
         21   -1    0    0  502  501  0.00000000000E+00  0.00000000000E+00  0.42288075098E+03  0.42288075098E+03  0.00000000000E+00 0. -1.
         21   -1    0    0  501  502 -0.00000000000E+00 -0.00000000000E+00 -0.14591573645E+03  0.14591573645E+03  0.00000000000E+00 0. -1.
         25    1    1    2    0    0 -0.20920735738E+03  0.40815644231E+02  0.16758907686E+03  0.29857115380E+03  0.12500000000E+03 0.  0.
         25    1    1    2    0    0  0.20920735738E+03 -0.40815644231E+02  0.10937593767E+03  0.27022533363E+03  0.12500000000E+03 0.  0.
</event>
<event>
 4    0  0.2259196E-002  0.2582880E+03  0.7546771E-02  0.1108176E+00
         21   -1    0    0  502  501  0.00000000000E+00  0.00000000000E+00  0.25105666483E+03  0.25105666483E+03  0.00000000000E+00 0. -1.
         21   -1    0    0  501  502 -0.00000000000E+00 -0.00000000000E+00 -0.26572759377E+03  0.26572759377E+03  0.00000000000E+00 0. -1.
         25    1    1    2    0    0  0.21404435206E+03  0.27385210741E+02  0.59943038653E+02  0.25648216761E+03  0.12500000000E+03 0.  0.
         25    1    1    2    0    0 -0.21404435206E+03 -0.27385210741E+02 -0.74613967592E+02  0.26030209100E+03  0.12500000000E+03 0.  0.
</event>
<event>
 4    0  0.2259196E-002  0.3173714E+03  0.7546771E-02  0.1076865E+00
         21   -1    0    0  502  501  0.00000000000E+00  0.00000000000E+00  0.25886459767E+03  0.25886459767E+03  0.00000000000E+00 0. -1.
         21   -1    0    0  501  502 -0.00000000000E+00 -0.00000000000E+00 -0.38910138899E+03  0.38910138899E+03  0.00000000000E+00 0. -1.
         25    1    1    2    0    0 -0.20690112161E+03  0.11840466462E+03 -0.23676353031E+03  0.35848250726E+03  0.12500000000E+03 0.  0.
         25    1    1    2    0    0  0.20690112161E+03 -0.11840466462E+03  0.10652673899E+03  0.28948347940E+03  0.12500000000E+03 0.  0.
</event>
<event>
 4    0  0.2259196E-002  0.1830055E+03  0.7546771E-02  0.1164926E+00
         21   -1    0    0  502  501  0.00000000000E+00  0.00000000000E+00  0.11449595003E+03  0.11449595003E+03  0.00000000000E+00 0.  1.
         21   -1    0    0  501  502 -0.00000000000E+00 -0.00000000000E+00 -0.29250818260E+03  0.29250818260E+03  0.00000000000E+00 0.  1.
         25    1    1    2    0    0  0.11904528662E+03  0.50864978052E+02 -0.12600374192E+03  0.21968379375E+03  0.12500000000E+03 0.  0.
         25    1    1    2    0    0 -0.11904528662E+03 -0.50864978052E+02 -0.52008490659E+02  0.18732033888E+03  0.12500000000E+03 0.  0.
</event>
<event>
 4    0  0.2259196E-002  0.2423592E+03  0.7546771E-02  0.1118231E+00
         21   -1    0    0  502  501  0.00000000000E+00  0.00000000000E+00  0.36898306869E+02  0.36898306869E+02  0.00000000000E+00 0.  1.
         21   -1    0    0  501  502 -0.00000000000E+00 -0.00000000000E+00 -0.15918878203E+04  0.15918878203E+04  0.00000000000E+00 0.  1.
         25    1    1    2    0    0  0.17684725211E+01 -0.17971477535E+03 -0.42808388133E+03  0.48081320430E+03  0.12500000000E+03 0.  0.
         25    1    1    2    0    0 -0.17684725211E+01  0.17971477535E+03 -0.11269056321E+04  0.11479729228E+04  0.12500000000E+03 0.  0.
</event>
<event>
 4    0  0.2259196E-002  0.3177002E+03  0.7546771E-02  0.1076713E+00
         21   -1    0    0  502  501  0.00000000000E+00  0.00000000000E+00  0.20605133414E+03  0.20605133414E+03  0.00000000000E+00 0. -1.
         21   -1    0    0  501  502 -0.00000000000E+00 -0.00000000000E+00 -0.48984584780E+03  0.48984584780E+03  0.00000000000E+00 0. -1.
         25    1    1    2    0    0 -0.20503894252E+03 -0.11957516260E+03 -0.32830584825E+03  0.42396806183E+03  0.12500000000E+03 0.  0.
         25    1    1    2    0    0  0.20503894252E+03  0.11957516260E+03  0.44511334582E+02  0.27192912011E+03  0.12500000000E+03 0.  0.
</event>
<event>
 4    0  0.2259196E-002  0.2021740E+03  0.7546771E-02  0.1147918E+00
         21   -1    0    0  502  501  0.00000000000E+00  0.00000000000E+00  0.92114440655E+02  0.92114440655E+02  0.00000000000E+00 0. -1.
         21   -1    0    0  501  502 -0.00000000000E+00 -0.00000000000E+00 -0.44373423818E+03  0.44373423818E+03  0.00000000000E+00 0. -1.
         25    1    1    2    0    0 -0.98184861284E+02 -0.11413701246E+03 -0.24314611182E+03  0.31210984651E+03  0.12500000000E+03 0.  0.
         25    1    1    2    0    0  0.98184861284E+02  0.11413701246E+03 -0.10847368570E+03  0.22373883232E+03  0.12500000000E+03 0.  0.
</event>
<event>
 4    0  0.2259196E-002  0.3051890E+03  0.7546771E-02  0.1082675E+00
         21   -1    0    0  502  501  0.00000000000E+00  0.00000000000E+00  0.21796666968E+03  0.21796666968E+03  0.00000000000E+00 0.  1.
         21   -1    0    0  501  502 -0.00000000000E+00 -0.00000000000E+00 -0.42731442149E+03  0.42731442149E+03  0.00000000000E+00 0.  1.
         25    1    1    2    0    0  0.16539142731E+03  0.69450924510E+02  0.12042800799E+03  0.24961101789E+03  0.12500000000E+03 0.  0.
         25    1    1    2    0    0 -0.16539142731E+03 -0.69450924510E+02 -0.32977575980E+03  0.39567007329E+03  0.12500000000E+03 0.  0.
</event>
<event>
 4    0  0.2259196E-002  0.2610084E+03  0.7546771E-02  0.1106539E+00
         21   -1    0    0  502  501  0.00000000000E+00  0.00000000000E+00  0.17266136895E+04  0.17266136895E+04  0.00000000000E+00 0.  1.
         21   -1    0    0  501  502 -0.00000000000E+00 -0.00000000000E+00 -0.39456065097E+02  0.39456065097E+02  0.00000000000E+00 0.  1.
         25    1    1    2    0    0  0.36677487645E+02  0.81967565901E+02  0.13040872489E+03  0.20173089869E+03  0.12500000000E+03 0.  0.
         25    1    1    2    0    0 -0.36677487645E+02 -0.81967565901E+02  0.15567488995E+04  0.15643388559E+04  0.12500000000E+03 0.  0.
</event>
<event>
 4    0  0.2259196E-002  0.2340298E+03  0.7546771E-02  0.1123835E+00
         21   -1    0    0  502  501  0.00000000000E+00  0.00000000000E+00  0.38898072952E+03  0.38898072952E+03  0.00000000000E+00 0. -1.
         21   -1    0    0  501  502 -0.00000000000E+00 -0.00000000000E+00 -0.14080379311E+03  0.14080379311E+03  0.00000000000E+00 0. -1.
         25    1    1    2    0    0  0.61930681743E+02 -0.24624411479E+02 -0.86765974847E+02  0.16611774551E+03  0.12500000000E+03 0.  0.
         25    1    1    2    0    0 -0.61930681743E+02  0.24624411479E+02  0.33494291125E+03  0.36366677712E+03  0.12500000000E+03 0.  0.
</event>
<event>
 4    0  0.2259196E-002  0.2692574E+03  0.7546771E-02  0.1101705E+00
         21   -1    0    0  502  501  0.00000000000E+00  0.00000000000E+00  0.39733218943E+03  0.39733218943E+03  0.00000000000E+00 0. -1.
         21   -1    0    0  501  502 -0.00000000000E+00 -0.00000000000E+00 -0.18246589044E+03  0.18246589044E+03  0.00000000000E+00 0. -1.
         25    1    1    2    0    0 -0.12924284634E+03 -0.20042367351E+03  0.10624906023E+03  0.28946023049E+03  0.12500000000E+03 0.  0.
         25    1    1    2    0    0  0.12924284634E+03  0.20042367351E+03  0.10861723876E+03  0.29033784939E+03  0.12500000000E+03 0.  0.
</event>
<event>
 4    0  0.2259196E-002  0.2246288E+03  0.7546771E-02  0.1130478E+00
         21   -1    0    0  502  501  0.00000000000E+00  0.00000000000E+00  0.57531751646E+03  0.57531751646E+03  0.00000000000E+00 0.  1.
         21   -1    0    0  501  502 -0.00000000000E+00 -0.00000000000E+00 -0.87704752375E+02  0.87704752375E+02  0.00000000000E+00 0.  1.
         25    1    1    2    0    0  0.18102786056E+03  0.36155364918E+02  0.28435200592E+03  0.36132998766E+03  0.12500000000E+03 0.  0.
         25    1    1    2    0    0 -0.18102786056E+03 -0.36155364918E+02  0.20326075817E+03  0.30169228118E+03  0.12500000000E+03 0.  0.
</event>
<event>
 4    0  0.2259196E-002  0.4847406E+03  0.7546771E-02  0.1017840E+00
         21   -1    0    0  502  501  0.00000000000E+00  0.00000000000E+00  0.28171456535E+03  0.28171456535E+03  0.00000000000E+00 0. -1.
         21   -1    0    0  501  502 -0.00000000000E+00 -0.00000000000E+00 -0.83408328317E+03  0.83408328317E+03  0.00000000000E+00 0. -1.
         25    1    1    2    0    0 -0.43294794173E+03  0.49553983731E+02 -0.47369051855E+03  0.65567310827E+03  0.12500000000E+03 0.  0.
         25    1    1    2    0    0  0.43294794173E+03 -0.49553983731E+02 -0.78678199265E+02  0.46012474025E+03  0.12500000000E+03 0.  0.
</event>
<event>
 4    0  0.2259196E-002  0.2154779E+03  0.7546771E-02  0.1137300E+00
         21   -1    0    0  502  501  0.00000000000E+00  0.00000000000E+00  0.28926186457E+03  0.28926186457E+03  0.00000000000E+00 0.  1.
         21   -1    0    0  501  502 -0.00000000000E+00 -0.00000000000E+00 -0.16051450675E+03  0.16051450675E+03  0.00000000000E+00 0.  1.
         25    1    1    2    0    0 -0.15449622164E+03 -0.81987087719E+02  0.79668382595E+02  0.22926625621E+03  0.12500000000E+03 0.  0.
         25    1    1    2    0    0  0.15449622164E+03  0.81987087719E+02  0.49078975228E+02  0.22051011510E+03  0.12500000000E+03 0.  0.
</event>
<event>
 4    0  0.2259196E-002  0.2380396E+03  0.7546771E-02  0.1121106E+00
         21   -1    0    0  502  501  0.00000000000E+00  0.00000000000E+00  0.39339859412E+03  0.39339859412E+03  0.00000000000E+00 0.  1.
         21   -1    0    0  501  502 -0.00000000000E+00 -0.00000000000E+00 -0.14403420292E+03  0.14403420292E+03  0.00000000000E+00 0.  1.
         25    1    1    2    0    0 -0.14071466658E+03 -0.12360004982E+03  0.21183425856E+03  0.30915423789E+03  0.12500000000E+03 0.  0.
         25    1    1    2    0    0  0.14071466658E+03  0.12360004982E+03  0.37530132647E+02  0.22827855914E+03  0.12500000000E+03 0.  0.
</event>
<event>
 4    0  0.2259196E-002  0.1856055E+03  0.7546771E-02  0.1162486E+00
         21   -1    0    0  502  501  0.00000000000E+00  0.00000000000E+00  0.30485450468E+03  0.30485450468E+03  0.00000000000E+00 0. -1.
         21   -1    0    0  501  502 -0.00000000000E+00 -0.00000000000E+00 -0.11300279917E+03  0.11300279917E+03  0.00000000000E+00 0. -1.
         25    1    1    2    0    0 -0.73393614426E+02  0.10201027533E+03  0.15790559077E+03  0.23738553980E+03  0.12500000000E+03 0.  0.
         25    1    1    2    0    0  0.73393614426E+02 -0.10201027533E+03  0.33946114744E+02  0.18047176404E+03  0.12500000000E+03 0.  0.
</event>
<event>
 4    0  0.2259196E-002  0.2039415E+03  0.7546771E-02  0.1146456E+00
         21   -1    0    0  502  501  0.00000000000E+00  0.00000000000E+00  0.16065615752E+04  0.16065615752E+04  0.00000000000E+00 0. -1.
         21   -1    0    0  501  502 -0.00000000000E+00 -0.00000000000E+00 -0.25888912678E+02  0.25888912678E+02  0.00000000000E+00 0. -1.
         25    1    1    2    0    0 -0.48895162210E+02  0.10339338013E+03  0.12446616469E+04  0.12561403358E+04  0.12500000000E+03 0.  0.
         25    1    1    2    0    0  0.48895162210E+02 -0.10339338013E+03  0.33601101560E+03  0.37631015207E+03  0.12500000000E+03 0.  0.
</event>
<event>
 4    0  0.2259196E-002  0.1823903E+03  0.7546771E-02  0.1165510E+00
         21   -1    0    0  502  501  0.00000000000E+00  0.00000000000E+00  0.28396997672E+03  0.28396997672E+03  0.00000000000E+00 0.  1.
         21   -1    0    0  501  502 -0.00000000000E+00 -0.00000000000E+00 -0.11714692987E+03  0.11714692987E+03  0.00000000000E+00 0.  1.
         25    1    1    2    0    0  0.11823455490E+03 -0.87226537752E+01  0.17565846751E+02  0.17317347843E+03  0.12500000000E+03 0.  0.
         25    1    1    2    0    0 -0.11823455490E+03  0.87226537752E+01  0.14925720010E+03  0.22794342816E+03  0.12500000000E+03 0.  0.
</event>
<event>
 4    0  0.2259196E-002  0.1695796E+03  0.7546771E-02  0.1178287E+00
         21   -1    0    0  502  501  0.00000000000E+00  0.00000000000E+00  0.27069160776E+04  0.27069160776E+04  0.00000000000E+00 0.  1.
         21   -1    0    0  501  502 -0.00000000000E+00 -0.00000000000E+00 -0.10623620947E+02  0.10623620947E+02  0.00000000000E+00 0.  1.
         25    1    1    2    0    0  0.92195657823E+02 -0.60772624448E+01  0.18913066450E+04  0.18976835347E+04  0.12500000000E+03 0.  0.
         25    1    1    2    0    0 -0.92195657823E+02  0.60772624448E+01  0.80498581167E+03  0.81985616387E+03  0.12500000000E+03 0.  0.
</event>
<event>
 4    0  0.2259196E-002  0.2216252E+03  0.7546771E-02  0.1132677E+00
         21   -1    0    0  502  501  0.00000000000E+00  0.00000000000E+00  0.77741093124E+02  0.77741093124E+02  0.00000000000E+00 0.  1.
         21   -1    0    0  501  502 -0.00000000000E+00 -0.00000000000E+00 -0.63181190242E+03  0.63181190242E+03  0.00000000000E+00 0.  1.
         25    1    1    2    0    0 -0.13042854210E+03  0.10678520453E+03 -0.39110888195E+03  0.44385340152E+03  0.12500000000E+03 0.  0.
         25    1    1    2    0    0  0.13042854210E+03 -0.10678520453E+03 -0.16296192735E+03  0.26569959402E+03  0.12500000000E+03 0.  0.
</event>
<event>
 4    0  0.2259196E-002  0.1882908E+03  0.7546771E-02  0.1160012E+00
         21   -1    0    0  502  501  0.00000000000E+00  0.00000000000E+00  0.37497794366E+03  0.37497794366E+03  0.00000000000E+00 0.  1.
         21   -1    0    0  501  502 -0.00000000000E+00 -0.00000000000E+00 -0.94548037222E+02  0.94548037222E+02  0.00000000000E+00 0.  1.
         25    1    1    2    0    0  0.42902640046E+02  0.14223022807E+01 -0.26996114323E+02  0.13489421654E+03  0.12500000000E+03 0.  0.
         25    1    1    2    0    0 -0.42902640046E+02 -0.14223022807E+01  0.30742602076E+03  0.33463176434E+03  0.12500000000E+03 0.  0.
</event>
<event>
 4    0  0.2259196E-002  0.2035169E+03  0.7546771E-02  0.1146805E+00
         21   -1    0    0  502  501  0.00000000000E+00  0.00000000000E+00  0.92088336873E+01  0.92088336873E+01  0.00000000000E+00 0.  1.
         21   -1    0    0  501  502 -0.00000000000E+00 -0.00000000000E+00 -0.44977594439E+04  0.44977594439E+04  0.00000000000E+00 0.  1.
         25    1    1    2    0    0 -0.38491733776E+02  0.27117592902E+02 -0.39444738949E+04  0.39467348891E+04  0.12500000000E+03 0.  0.
         25    1    1    2    0    0  0.38491733776E+02 -0.27117592902E+02 -0.54407671533E+03  0.56023338849E+03  0.12500000000E+03 0.  0.
</event>
<event>
 4    0  0.2259196E-002  0.1802474E+03  0.7546771E-02  0.1167564E+00
         21   -1    0    0  502  501  0.00000000000E+00  0.00000000000E+00  0.68591764113E+03  0.68591764113E+03  0.00000000000E+00 0.  1.
         21   -1    0    0  501  502 -0.00000000000E+00 -0.00000000000E+00 -0.47365953068E+02  0.47365953068E+02  0.00000000000E+00 0.  1.
         25    1    1    2    0    0  0.12322993947E+03 -0.60994657481E+01  0.40168389706E+03  0.43840366630E+03  0.12500000000E+03 0.  0.
         25    1    1    2    0    0 -0.12322993947E+03  0.60994657481E+01  0.23686779100E+03  0.29487992790E+03  0.12500000000E+03 0.  0.
</event>
<event>
 4    0  0.2259196E-002  0.2110105E+03  0.7546771E-02  0.1140768E+00
         21   -1    0    0  502  501  0.00000000000E+00  0.00000000000E+00  0.14493748626E+03  0.14493748626E+03  0.00000000000E+00 0. -1.
         21   -1    0    0  501  502 -0.00000000000E+00 -0.00000000000E+00 -0.30720449248E+03  0.30720449248E+03  0.00000000000E+00 0. -1.
         25    1    1    2    0    0  0.10988719034E+03  0.78056051845E+02  0.29858385845E+02  0.18623765740E+03  0.12500000000E+03 0.  0.
         25    1    1    2    0    0 -0.10988719034E+03 -0.78056051845E+02 -0.19212539207E+03  0.26590432134E+03  0.12500000000E+03 0.  0.
</event>
<event>
 4    0  0.2259196E-002  0.2394267E+03  0.7546771E-02  0.1120175E+00
         21   -1    0    0  502  501  0.00000000000E+00  0.00000000000E+00  0.83134894821E+02  0.83134894821E+02  0.00000000000E+00 0. -1.
         21   -1    0    0  501  502 -0.00000000000E+00 -0.00000000000E+00 -0.68954367810E+03  0.68954367810E+03  0.00000000000E+00 0. -1.
         25    1    1    2    0    0 -0.93958341367E+02  0.31576456020E+02 -0.59128943630E+03  0.61243239624E+03  0.12500000000E+03 0.  0.
         25    1    1    2    0    0  0.93958341367E+02 -0.31576456020E+02 -0.15119346980E+02  0.16024617668E+03  0.12500000000E+03 0.  0.
</event>
<event>
 4    0  0.2259196E-002  0.2982355E+03  0.7546771E-02  0.1086126E+00
         21   -1    0    0  502  501  0.00000000000E+00  0.00000000000E+00  0.51628729315E+03  0.51628729315E+03  0.00000000000E+00 0. -1.
         21   -1    0    0  501  502 -0.00000000000E+00 -0.00000000000E+00 -0.17227696161E+03  0.17227696161E+03  0.00000000000E+00 0. -1.
         25    1    1    2    0    0  0.26439371688E+03  0.57491223908E+02  0.15989071587E+03  0.33822968434E+03  0.12500000000E+03 0.  0.
         25    1    1    2    0    0 -0.26439371688E+03 -0.57491223908E+02  0.18411961567E+03  0.35033457041E+03  0.12500000000E+03 0.  0.
</event>
<event>
 4    0  0.2259196E-002  0.3429941E+03  0.7546771E-02  0.1065528E+00
         21   -1    0    0  502  501  0.00000000000E+00  0.00000000000E+00  0.15244049158E+04  0.15244049158E+04  0.00000000000E+00 0.  1.
         21   -1    0    0  501  502 -0.00000000000E+00 -0.00000000000E+00 -0.77174350960E+02  0.77174350960E+02  0.00000000000E+00 0.  1.
         25    1    1    2    0    0  0.25062220099E+03 -0.18900929346E+03  0.86142134286E+03  0.92531493589E+03  0.12500000000E+03 0.  0.
         25    1    1    2    0    0 -0.25062220099E+03  0.18900929346E+03  0.58580922196E+03  0.67626433085E+03  0.12500000000E+03 0.  0.
</event>
<event>
 4    0  0.2259196E-002  0.2175324E+03  0.7546771E-02  0.1135736E+00
         21   -1    0    0  502  501  0.00000000000E+00  0.00000000000E+00  0.19852213193E+03  0.19852213193E+03  0.00000000000E+00 0.  1.
         21   -1    0    0  501  502 -0.00000000000E+00 -0.00000000000E+00 -0.23836303135E+03  0.23836303135E+03  0.00000000000E+00 0.  1.
         25    1    1    2    0    0 -0.16076395248E+03  0.55685206366E+02  0.32734114734E+02  0.21364085024E+03  0.12500000000E+03 0.  0.
         25    1    1    2    0    0  0.16076395248E+03 -0.55685206366E+02 -0.72575014155E+02  0.22324431304E+03  0.12500000000E+03 0.  0.
</event>
<event>
 4    0  0.2259196E-002  0.1729023E+03  0.7546771E-02  0.1174855E+00
         21   -1    0    0  502  501  0.00000000000E+00  0.00000000000E+00  0.89055503853E+03  0.89055503853E+03  0.00000000000E+00 0.  1.
         21   -1    0    0  501  502 -0.00000000000E+00 -0.00000000000E+00 -0.33569198217E+02  0.33569198217E+02  0.00000000000E+00 0.  1.
         25    1    1    2    0    0  0.11711051325E+03  0.34120221756E+01  0.49080624480E+03  0.51984832802E+03  0.12500000000E+03 0.  0.
         25    1    1    2    0    0 -0.11711051325E+03 -0.34120221756E+01  0.36617959551E+03  0.40427590873E+03  0.12500000000E+03 0.  0.
</event>
<event>
 4    0  0.2259196E-002  0.1995582E+03  0.7546771E-02  0.1150112E+00
         21   -1    0    0  502  501  0.00000000000E+00  0.00000000000E+00  0.25730752512E+03  0.25730752512E+03  0.00000000000E+00 0. -1.
         21   -1    0    0  501  502 -0.00000000000E+00 -0.00000000000E+00 -0.15477001095E+03  0.15477001095E+03  0.00000000000E+00 0. -1.
         25    1    1    2    0    0 -0.37238798784E+02 -0.73205436605E+02  0.18766767007E+03  0.23997899590E+03  0.12500000000E+03 0.  0.
         25    1    1    2    0    0  0.37238798784E+02  0.73205436605E+02 -0.85130155903E+02  0.17209854017E+03  0.12500000000E+03 0.  0.
</event>
<event>
 4    0  0.2259196E-002  0.2294330E+03  0.7546771E-02  0.1127040E+00
         21   -1    0    0  502  501  0.00000000000E+00  0.00000000000E+00  0.24681763414E+03  0.24681763414E+03  0.00000000000E+00 0. -1.
         21   -1    0    0  501  502 -0.00000000000E+00 -0.00000000000E+00 -0.21327276977E+03  0.21327276977E+03  0.00000000000E+00 0. -1.
         25    1    1    2    0    0  0.15959064580E+03 -0.10705840465E+03  0.25951326004E+02  0.23071442858E+03  0.12500000000E+03 0.  0.
         25    1    1    2    0    0 -0.15959064580E+03  0.10705840465E+03  0.75935383674E+01  0.22937597533E+03  0.12500000000E+03 0.  0.
</event>
<event>
 4    0  0.2259196E-002  0.2914595E+03  0.7546771E-02  0.1089590E+00
         21   -1    0    0  502  501  0.00000000000E+00  0.00000000000E+00  0.51384227887E+03  0.51384227887E+03  0.00000000000E+00 0.  1.
         21   -1    0    0  501  502 -0.00000000000E+00 -0.00000000000E+00 -0.16532040891E+03  0.16532040891E+03  0.00000000000E+00 0.  1.
         25    1    1    2    0    0 -0.24213637341E+03 -0.57140814662E+01  0.53961537561E+02  0.27784801887E+03  0.12500000000E+03 0.  0.
         25    1    1    2    0    0  0.24213637341E+03  0.57140814662E+01  0.29456033241E+03  0.40131466891E+03  0.12500000000E+03 0.  0.
</event>
<event>
 4    0  0.2259196E-002  0.2327915E+03  0.7546771E-02  0.1124690E+00
         21   -1    0    0  502  501  0.00000000000E+00  0.00000000000E+00  0.48767965228E+02  0.48767965228E+02  0.00000000000E+00 0.  1.
         21   -1    0    0  501  502 -0.00000000000E+00 -0.00000000000E+00 -0.11112186196E+04  0.11112186196E+04  0.00000000000E+00 0.  1.
         25    1    1    2    0    0  0.13151611549E+02 -0.12027426323E+03 -0.14582758298E+03  0.22700120537E+03  0.12500000000E+03 0.  0.
         25    1    1    2    0    0 -0.13151611549E+02  0.12027426323E+03 -0.91662307138E+03  0.93298537945E+03  0.12500000000E+03 0.  0.
</event>
<event>
 4    0  0.2259196E-002  0.2244669E+03  0.7546771E-02  0.1130596E+00
         21   -1    0    0  502  501  0.00000000000E+00  0.00000000000E+00  0.51473607541E+03  0.51473607541E+03  0.00000000000E+00 0.  1.
         21   -1    0    0  501  502 -0.00000000000E+00 -0.00000000000E+00 -0.97885852754E+02  0.97885852754E+02  0.00000000000E+00 0.  1.
         25    1    1    2    0    0 -0.78096632087E+02 -0.31521615149E+02  0.43540985821E+03  0.46075963450E+03  0.12500000000E+03 0.  0.
         25    1    1    2    0    0  0.78096632087E+02  0.31521615149E+02 -0.18559635548E+02  0.15186229366E+03  0.12500000000E+03 0.  0.
</event>
<event>
 4    0  0.2259196E-002  0.3392387E+03  0.7546771E-02  0.1067121E+00
         21   -1    0    0  502  501  0.00000000000E+00  0.00000000000E+00  0.25757231675E+04  0.25757231675E+04  0.00000000000E+00 0. -1.
         21   -1    0    0  501  502 -0.00000000000E+00 -0.00000000000E+00 -0.44679841408E+02  0.44679841408E+02  0.00000000000E+00 0. -1.
         25    1    1    2    0    0  0.14141317782E+03 -0.25932383343E+03  0.83873110807E+03  0.89796514915E+03  0.12500000000E+03 0.  0.
         25    1    1    2    0    0 -0.14141317782E+03  0.25932383343E+03  0.16923122181E+04  0.17224378598E+04  0.12500000000E+03 0.  0.
</event>
<event>
 4    0  0.2259196E-002  0.1912887E+03  0.7546771E-02  0.1157304E+00
         21   -1    0    0  502  501  0.00000000000E+00  0.00000000000E+00  0.24945732413E+03  0.24945732413E+03  0.00000000000E+00 0. -1.
         21   -1    0    0  501  502 -0.00000000000E+00 -0.00000000000E+00 -0.14668393698E+03  0.14668393698E+03  0.00000000000E+00 0. -1.
         25    1    1    2    0    0  0.11366554255E+03 -0.29292307347E+02  0.13917758094E+03  0.22084676559E+03  0.12500000000E+03 0.  0.
         25    1    1    2    0    0 -0.11366554255E+03  0.29292307347E+02 -0.36404193792E+02  0.17529449552E+03  0.12500000000E+03 0.  0.
</event>
<event>
 4    0  0.2259196E-002  0.1896739E+03  0.7546771E-02  0.1158756E+00
         21   -1    0    0  502  501  0.00000000000E+00  0.00000000000E+00  0.13972668814E+04  0.13972668814E+04  0.00000000000E+00 0.  1.
         21   -1    0    0  501  502 -0.00000000000E+00 -0.00000000000E+00 -0.25747535515E+02  0.25747535515E+02  0.00000000000E+00 0.  1.
         25    1    1    2    0    0 -0.12244947497E+03  0.38409989463E+02  0.91948097255E+03  0.93677076176E+03  0.12500000000E+03 0.  0.
         25    1    1    2    0    0  0.12244947497E+03 -0.38409989463E+02  0.45203837338E+03  0.48624365520E+03  0.12500000000E+03 0.  0.
</event>
<event>
 4    0  0.2259196E-002  0.2274379E+03  0.7546771E-02  0.1128456E+00
         21   -1    0    0  502  501  0.00000000000E+00  0.00000000000E+00  0.35687903420E+04  0.35687903420E+04  0.00000000000E+00 0. -1.
         21   -1    0    0  501  502 -0.00000000000E+00 -0.00000000000E+00 -0.14494552323E+02  0.14494552323E+02  0.00000000000E+00 0. -1.
         25    1    1    2    0    0  0.16603316024E+03  0.68888563081E+02  0.22621341717E+04  0.22727051404E+04  0.12500000000E+03 0.  0.
         25    1    1    2    0    0 -0.16603316024E+03 -0.68888563081E+02  0.12921616180E+04  0.13105797540E+04  0.12500000000E+03 0.  0.
</event>
<event>
 4    0  0.2259196E-002  0.2092979E+03  0.7546771E-02  0.1142123E+00
         21   -1    0    0  502  501  0.00000000000E+00  0.00000000000E+00  0.24028798070E+03  0.24028798070E+03  0.00000000000E+00 0.  1.
         21   -1    0    0  501  502 -0.00000000000E+00 -0.00000000000E+00 -0.18230457567E+03  0.18230457567E+03  0.00000000000E+00 0.  1.
         25    1    1    2    0    0  0.23106808905E+02  0.93156637769E+02 -0.11004955926E+03  0.19221859762E+03  0.12500000000E+03 0.  0.
         25    1    1    2    0    0 -0.23106808905E+02 -0.93156637769E+02  0.16803296429E+03  0.23037395874E+03  0.12500000000E+03 0.  0.
</event>
<event>
 4    0  0.2259196E-002  0.3040132E+03  0.7546771E-02  0.1083251E+00
         21   -1    0    0  502  501  0.00000000000E+00  0.00000000000E+00  0.39387617634E+03  0.39387617634E+03  0.00000000000E+00 0. -1.
         21   -1    0    0  501  502 -0.00000000000E+00 -0.00000000000E+00 -0.23465251543E+03  0.23465251543E+03  0.00000000000E+00 0. -1.
         25    1    1    2    0    0  0.11362696045E+03 -0.22573072864E+03  0.19717252736E+03  0.34404571431E+03  0.12500000000E+03 0.  0.
         25    1    1    2    0    0 -0.11362696045E+03  0.22573072864E+03 -0.37948866445E+02  0.28448297745E+03  0.12500000000E+03 0.  0.
</event>
<event>
 4    0  0.2259196E-002  0.1793766E+03  0.7546771E-02  0.1168408E+00
         21   -1    0    0  502  501  0.00000000000E+00  0.00000000000E+00  0.16964460108E+03  0.16964460108E+03  0.00000000000E+00 0. -1.
         21   -1    0    0  501  502 -0.00000000000E+00 -0.00000000000E+00 -0.18966680434E+03  0.18966680434E+03  0.00000000000E+00 0. -1.
         25    1    1    2    0    0  0.77112830403E+02 -0.10164526056E+03 -0.26553516230E+02  0.18057750921E+03  0.12500000000E+03 0.  0.
         25    1    1    2    0    0 -0.77112830403E+02  0.10164526056E+03  0.65313129724E+01  0.17873389622E+03  0.12500000000E+03 0.  0.
</event>
<event>
 4    0  0.2259196E-002  0.2566398E+03  0.7546771E-02  0.1109179E+00
         21   -1    0    0  502  501  0.00000000000E+00  0.00000000000E+00  0.28997426944E+03  0.28997426944E+03  0.00000000000E+00 0. -1.
         21   -1    0    0  501  502 -0.00000000000E+00 -0.00000000000E+00 -0.22713729680E+03  0.22713729680E+03  0.00000000000E+00 0. -1.
         25    1    1    2    0    0 -0.18739629135E+03  0.66447502040E+02  0.13566238238E+03  0.27122301254E+03  0.12500000000E+03 0.  0.
         25    1    1    2    0    0  0.18739629135E+03 -0.66447502040E+02 -0.72825409734E+02  0.24588855370E+03  0.12500000000E+03 0.  0.
</event>
<event>
 4    0  0.2259196E-002  0.1688478E+03  0.7546771E-02  0.1179055E+00
         21   -1    0    0  502  501  0.00000000000E+00  0.00000000000E+00  0.68621645257E+02  0.68621645257E+02  0.00000000000E+00 0.  1.
         21   -1    0    0  501  502 -0.00000000000E+00 -0.00000000000E+00 -0.41546059403E+03  0.41546059403E+03  0.00000000000E+00 0.  1.
         25    1    1    2    0    0 -0.92925270244E+02 -0.24985904357E+02 -0.87109904544E+02  0.18020137829E+03  0.12500000000E+03 0.  0.
         25    1    1    2    0    0  0.92925270244E+02  0.24985904357E+02 -0.25972904423E+03  0.30388086100E+03  0.12500000000E+03 0.  0.
</event>
<event>
 4    0  0.2259196E-002  0.2261237E+03  0.7546771E-02  0.1129398E+00
         21   -1    0    0  502  501  0.00000000000E+00  0.00000000000E+00  0.81182055248E+02  0.81182055248E+02  0.00000000000E+00 0.  1.
         21   -1    0    0  501  502 -0.00000000000E+00 -0.00000000000E+00 -0.62984289925E+03  0.62984289925E+03  0.00000000000E+00 0.  1.
         25    1    1    2    0    0  0.12977641102E+03 -0.74717996110E+02 -0.94505512271E+02  0.21675098073E+03  0.12500000000E+03 0.  0.
         25    1    1    2    0    0 -0.12977641102E+03  0.74717996110E+02 -0.45415533173E+03  0.49427397376E+03  0.12500000000E+03 0.  0.
</event>
<event>
 4    0  0.2259196E-002  0.1871169E+03  0.7546771E-02  0.1161088E+00
         21   -1    0    0  502  501  0.00000000000E+00  0.00000000000E+00  0.13438811991E+02  0.13438811991E+02  0.00000000000E+00 0.  1.
         21   -1    0    0  501  502 -0.00000000000E+00 -0.00000000000E+00 -0.26053439111E+04  0.26053439111E+04  0.00000000000E+00 0. -1.
         25    1    1    2    0    0 -0.12004803249E+03  0.47884754044E+02 -0.16584348844E+04  0.16681533939E+04  0.12500000000E+03 0.  0.
         25    1    1    2    0    0  0.12004803249E+03 -0.47884754044E+02 -0.93347021470E+03  0.95062932918E+03  0.12500000000E+03 0.  0.
</event>
<event>
 4    0  0.2259196E-002  0.2064599E+03  0.7546771E-02  0.1144400E+00
         21   -1    0    0  502  501  0.00000000000E+00  0.00000000000E+00  0.12544411564E+04  0.12544411564E+04  0.00000000000E+00 0.  1.
         21   -1    0    0  501  502 -0.00000000000E+00 -0.00000000000E+00 -0.33979825300E+02  0.33979825300E+02  0.00000000000E+00 0.  1.
         25    1    1    2    0    0 -0.60221055692E+02 -0.16136608614E+02  0.10846114098E+04  0.10935693284E+04  0.12500000000E+03 0.  0.
         25    1    1    2    0    0  0.60221055692E+02  0.16136608614E+02  0.13584992129E+03  0.19485165331E+03  0.12500000000E+03 0.  0.
</event>
<event>
 4    0  0.2259196E-002  0.2443511E+03  0.7546771E-02  0.1116928E+00
         21   -1    0    0  502  501  0.00000000000E+00  0.00000000000E+00  0.95239590376E+02  0.95239590376E+02  0.00000000000E+00 0.  1.
         21   -1    0    0  501  502 -0.00000000000E+00 -0.00000000000E+00 -0.62691840414E+03  0.62691840414E+03  0.00000000000E+00 0.  1.
         25    1    1    2    0    0  0.36452880274E+02 -0.29195140647E+02  0.36644045133E+02  0.13837974838E+03  0.12500000000E+03 0.  0.
         25    1    1    2    0    0 -0.36452880274E+02  0.29195140647E+02 -0.56832285889E+03  0.58377824613E+03  0.12500000000E+03 0.  0.
</event>
<event>
 4    0  0.2259196E-002  0.2235481E+03  0.7546771E-02  0.1131265E+00
         21   -1    0    0  502  501  0.00000000000E+00  0.00000000000E+00  0.47508327464E+03  0.47508327464E+03  0.00000000000E+00 0.  1.
         21   -1    0    0  501  502 -0.00000000000E+00 -0.00000000000E+00 -0.10518941818E+03  0.10518941818E+03  0.00000000000E+00 0.  1.
         25    1    1    2    0    0 -0.10316099186E+03  0.14135362586E+03  0.10572691383E+03  0.23963768087E+03  0.12500000000E+03 0.  0.
         25    1    1    2    0    0  0.10316099186E+03 -0.14135362586E+03  0.26416694264E+03  0.34063501195E+03  0.12500000000E+03 0.  0.
</event>
<event>
 4    0  0.2259196E-002  0.1988908E+03  0.7546771E-02  0.1150678E+00
         21   -1    0    0  502  501  0.00000000000E+00  0.00000000000E+00  0.41557484000E+02  0.41557484000E+02  0.00000000000E+00 0. -1.
         21   -1    0    0  501  502 -0.00000000000E+00 -0.00000000000E+00 -0.95187586576E+03  0.95187586576E+03  0.00000000000E+00 0. -1.
         25    1    1    2    0    0  0.53448650550E+02  0.12044257590E+03 -0.25273770695E+03  0.31123065539E+03  0.12500000000E+03 0.  0.
         25    1    1    2    0    0 -0.53448650550E+02 -0.12044257590E+03 -0.65758067481E+03  0.68220269437E+03  0.12500000000E+03 0.  0.
</event>
<event>
 4    0  0.2259196E-002  0.2573429E+03  0.7546771E-02  0.1108750E+00
         21   -1    0    0  502  501  0.00000000000E+00  0.00000000000E+00  0.18800955592E+03  0.18800955592E+03  0.00000000000E+00 0. -1.
         21   -1    0    0  501  502 -0.00000000000E+00 -0.00000000000E+00 -0.35224471351E+03  0.35224471351E+03  0.00000000000E+00 0. -1.
         25    1    1    2    0    0 -0.19178986735E+03  0.85383298579E+02 -0.16691901517E+03  0.29590643542E+03  0.12500000000E+03 0.  0.
         25    1    1    2    0    0  0.19178986735E+03 -0.85383298579E+02  0.26838575838E+01  0.24434783401E+03  0.12500000000E+03 0.  0.
</event>
<event>
 4    0  0.2259196E-002  0.3001669E+03  0.7546771E-02  0.1085157E+00
         21   -1    0    0  502  501  0.00000000000E+00  0.00000000000E+00  0.12426913494E+04  0.12426913494E+04  0.00000000000E+00 0. -1.
         21   -1    0    0  501  502 -0.00000000000E+00 -0.00000000000E+00 -0.72504059792E+02  0.72504059792E+02  0.00000000000E+00 0. -1.
         25    1    1    2    0    0 -0.22027936079E+03  0.81881310478E+02  0.88903236475E+03  0.92802537216E+03  0.12500000000E+03 0.  0.
         25    1    1    2    0    0  0.22027936079E+03 -0.81881310478E+02  0.28115492482E+03  0.38717003700E+03  0.12500000000E+03 0.  0.
</event>
<event>
 4    0  0.2259196E-002  0.2384710E+03  0.7546771E-02  0.1120816E+00
         21   -1    0    0  502  501  0.00000000000E+00  0.00000000000E+00  0.14516683884E+03  0.14516683884E+03  0.00000000000E+00 0.  1.
         21   -1    0    0  501  502 -0.00000000000E+00 -0.00000000000E+00 -0.39174535549E+03  0.39174535549E+03  0.00000000000E+00 0.  1.
         25    1    1    2    0    0  0.18429631156E+03 -0.54012434598E+02 -0.48948197756E+02  0.23431474476E+03  0.12500000000E+03 0.  0.
         25    1    1    2    0    0 -0.18429631156E+03  0.54012434598E+02 -0.19763031889E+03  0.30259744958E+03  0.12500000000E+03 0.  0.
</event>
<event>
 4    0  0.2259196E-002  0.4837782E+03  0.7546771E-02  0.1018102E+00
         21   -1    0    0  502  501  0.00000000000E+00  0.00000000000E+00  0.28722395100E+03  0.28722395100E+03  0.00000000000E+00 0.  1.
         21   -1    0    0  501  502 -0.00000000000E+00 -0.00000000000E+00 -0.81483933654E+03  0.81483933654E+03  0.00000000000E+00 0.  1.
         25    1    1    2    0    0  0.13882546265E+03 -0.33793523194E+03  0.68159880123E+02  0.39210138909E+03  0.12500000000E+03 0.  0.
         25    1    1    2    0    0 -0.13882546265E+03  0.33793523194E+03 -0.59577526567E+03  0.70996189845E+03  0.12500000000E+03 0.  0.
</event>
<event>
 4    0  0.2259196E-002  0.2457169E+03  0.7546771E-02  0.1116042E+00
         21   -1    0    0  502  501  0.00000000000E+00  0.00000000000E+00  0.12104315319E+04  0.12104315319E+04  0.00000000000E+00 0. -1.
         21   -1    0    0  501  502 -0.00000000000E+00 -0.00000000000E+00 -0.49880380588E+02  0.49880380588E+02  0.00000000000E+00 0. -1.
         25    1    1    2    0    0  0.52366114673E+02 -0.20311892015E+03  0.65061563825E+03  0.69492820811E+03  0.12500000000E+03 0.  0.
         25    1    1    2    0    0 -0.52366114673E+02  0.20311892015E+03  0.50993551303E+03  0.56538370434E+03  0.12500000000E+03 0.  0.
</event>
<event>
 4    0  0.2259196E-002  0.1803425E+03  0.7546771E-02  0.1167472E+00
         21   -1    0    0  502  501  0.00000000000E+00  0.00000000000E+00  0.44188596090E+03  0.44188596090E+03  0.00000000000E+00 0.  1.
         21   -1    0    0  501  502 -0.00000000000E+00 -0.00000000000E+00 -0.73601381436E+02  0.73601381436E+02  0.00000000000E+00 0.  1.
         25    1    1    2    0    0 -0.36918590969E+02 -0.11065365485E+03  0.10215108054E+03  0.19916590307E+03  0.12500000000E+03 0.  0.
         25    1    1    2    0    0  0.36918590969E+02  0.11065365485E+03  0.26613349893E+03  0.31632143927E+03  0.12500000000E+03 0.  0.
</event>
<event>
 4    0  0.2259196E-002  0.1821815E+03  0.7546771E-02  0.1165708E+00
         21   -1    0    0  502  501  0.00000000000E+00  0.00000000000E+00  0.21806777326E+03  0.21806777326E+03  0.00000000000E+00 0.  1.
         21   -1    0    0  501  502 -0.00000000000E+00 -0.00000000000E+00 -0.15220090402E+03  0.15220090402E+03  0.00000000000E+00 0.  1.
         25    1    1    2    0    0 -0.65017200777E+02  0.28526187764E+02 -0.80791696006E+02  0.16490384449E+03  0.12500000000E+03 0.  0.
         25    1    1    2    0    0  0.65017200777E+02 -0.28526187764E+02  0.14665856525E+03  0.20536483279E+03  0.12500000000E+03 0.  0.
</event>
<event>
 4    0  0.2259196E-002  0.2341752E+03  0.7546771E-02  0.1123735E+00
         21   -1    0    0  502  501  0.00000000000E+00  0.00000000000E+00  0.12188023250E+03  0.12188023250E+03  0.00000000000E+00 0.  1.
         21   -1    0    0  501  502 -0.00000000000E+00 -0.00000000000E+00 -0.44993359563E+03  0.44993359563E+03  0.00000000000E+00 0.  1.
         25    1    1    2    0    0  0.73519097519E+02 -0.79376718008E+02  0.38465245914E+02  0.16973596026E+03  0.12500000000E+03 0.  0.
         25    1    1    2    0    0 -0.73519097519E+02  0.79376718008E+02 -0.36651860904E+03  0.40207786788E+03  0.12500000000E+03 0.  0.
</event>
<event>
 4    0  0.2259196E-002  0.1918674E+03  0.7546771E-02  0.1156788E+00
         21   -1    0    0  502  501  0.00000000000E+00  0.00000000000E+00  0.80349346678E+03  0.80349346678E+03  0.00000000000E+00 0. -1.
         21   -1    0    0  501  502 -0.00000000000E+00 -0.00000000000E+00 -0.45816314961E+02  0.45816314961E+02  0.00000000000E+00 0. -1.
         25    1    1    2    0    0  0.12970554152E+03 -0.33924623058E+02  0.50430793864E+03  0.53658727578E+03  0.12500000000E+03 0.  0.
         25    1    1    2    0    0 -0.12970554152E+03  0.33924623058E+02  0.25336921318E+03  0.31272250596E+03  0.12500000000E+03 0.  0.
</event>
<event>
 4    0  0.2259196E-002  0.2332115E+03  0.7546771E-02  0.1124400E+00
         21   -1    0    0  502  501  0.00000000000E+00  0.00000000000E+00  0.66979526004E+02  0.66979526004E+02  0.00000000000E+00 0.  1.
         21   -1    0    0  501  502 -0.00000000000E+00 -0.00000000000E+00 -0.81200337595E+03  0.81200337595E+03  0.00000000000E+00 0.  1.
         25    1    1    2    0    0 -0.16683805190E+03  0.31840239322E+02 -0.18487341487E+03  0.28044948909E+03  0.12500000000E+03 0.  0.
         25    1    1    2    0    0  0.16683805190E+03 -0.31840239322E+02 -0.56015043508E+03  0.59853341287E+03  0.12500000000E+03 0.  0.
</event>
<event>
 4    0  0.2259196E-002  0.2309639E+03  0.7546771E-02  0.1125963E+00
         21   -1    0    0  502  501  0.00000000000E+00  0.00000000000E+00  0.43351874737E+02  0.43351874737E+02  0.00000000000E+00 0. -1.
         21   -1    0    0  501  502 -0.00000000000E+00 -0.00000000000E+00 -0.12304959652E+04  0.12304959652E+04  0.00000000000E+00 0. -1.
         25    1    1    2    0    0  0.10691415467E+03  0.16117091614E+03 -0.64232964998E+03  0.68236286529E+03  0.12500000000E+03 0.  0.
         25    1    1    2    0    0 -0.10691415467E+03 -0.16117091614E+03 -0.54481444049E+03  0.59148497465E+03  0.12500000000E+03 0.  0.
</event>
<event>
 4    0  0.2259196E-002  0.2400310E+03  0.7546771E-02  0.1119772E+00
         21   -1    0    0  502  501  0.00000000000E+00  0.00000000000E+00  0.21449659060E+03  0.21449659060E+03  0.00000000000E+00 0. -1.
         21   -1    0    0  501  502 -0.00000000000E+00 -0.00000000000E+00 -0.26860518854E+03  0.26860518854E+03  0.00000000000E+00 0. -1.
         25    1    1    2    0    0  0.10918268424E+03 -0.17247431874E+03 -0.45102406607E+02  0.24357232241E+03  0.12500000000E+03 0.  0.
         25    1    1    2    0    0 -0.10918268424E+03  0.17247431874E+03 -0.90061913374E+01  0.23952945673E+03  0.12500000000E+03 0.  0.
</event>
<event>
 4    0  0.2259196E-002  0.2016704E+03  0.7546771E-02  0.1148337E+00
         21   -1    0    0  502  501  0.00000000000E+00  0.00000000000E+00  0.34718568848E+02  0.34718568848E+02  0.00000000000E+00 0. -1.
         21   -1    0    0  501  502 -0.00000000000E+00 -0.00000000000E+00 -0.11714462727E+04  0.11714462727E+04  0.00000000000E+00 0. -1.
         25    1    1    2    0    0  0.27201935246E+02  0.37334776424E+02 -0.10210186118E+04  0.10296785112E+04  0.12500000000E+03 0.  0.
         25    1    1    2    0    0 -0.27201935246E+02 -0.37334776424E+02 -0.11570909206E+03  0.17648633034E+03  0.12500000000E+03 0.  0.
</event>
<event>
 4    0  0.2259196E-002  0.2086289E+03  0.7546771E-02  0.1142656E+00
         21   -1    0    0  502  501  0.00000000000E+00  0.00000000000E+00  0.33233601133E+03  0.33233601133E+03  0.00000000000E+00 0. -1.
         21   -1    0    0  501  502 -0.00000000000E+00 -0.00000000000E+00 -0.13096985344E+03  0.13096985344E+03  0.00000000000E+00 0. -1.
         25    1    1    2    0    0 -0.83805056876E+02  0.14294602665E+03  0.77282552728E+02  0.22148238542E+03  0.12500000000E+03 0.  0.
         25    1    1    2    0    0  0.83805056876E+02 -0.14294602665E+03  0.12408360516E+03  0.24182347935E+03  0.12500000000E+03 0.  0.
</event>
<event>
 4    0  0.2259196E-002  0.2648946E+03  0.7546771E-02  0.1104238E+00
         21   -1    0    0  502  501  0.00000000000E+00  0.00000000000E+00  0.40628897229E+03  0.40628897229E+03  0.00000000000E+00 0. -1.
         21   -1    0    0  501  502 -0.00000000000E+00 -0.00000000000E+00 -0.17270752210E+03  0.17270752210E+03  0.00000000000E+00 0. -1.
         25    1    1    2    0    0 -0.12716079056E+03  0.17856938078E+03  0.20481527708E+03  0.32500952006E+03  0.12500000000E+03 0.  0.
         25    1    1    2    0    0  0.12716079056E+03 -0.17856938078E+03  0.28766173113E+02  0.25398697432E+03  0.12500000000E+03 0.  0.
</event>
<event>
 4    0  0.2259196E-002  0.2869766E+03  0.7546771E-02  0.1091938E+00
         21   -1    0    0  502  501  0.00000000000E+00  0.00000000000E+00  0.18685836672E+03  0.18685836672E+03  0.00000000000E+00 0.  1.
         21   -1    0    0  501  502 -0.00000000000E+00 -0.00000000000E+00 -0.44073785274E+03  0.44073785274E+03  0.00000000000E+00 0.  1.
         25    1    1    2    0    0 -0.10356491900E+03 -0.95461326177E+02 -0.36372422801E+03  0.40958377810E+03  0.12500000000E+03 0.  0.
         25    1    1    2    0    0  0.10356491900E+03  0.95461326177E+02  0.10984474199E+03  0.21801244136E+03  0.12500000000E+03 0.  0.
</event>
<event>
 4    0  0.2259196E-002  0.2082317E+03  0.7546771E-02  0.1142974E+00
         21   -1    0    0  502  501  0.00000000000E+00  0.00000000000E+00  0.21545026115E+03  0.21545026115E+03  0.00000000000E+00 0.  1.
         21   -1    0    0  501  502 -0.00000000000E+00 -0.00000000000E+00 -0.20125497367E+03  0.20125497367E+03  0.00000000000E+00 0.  1.
         25    1    1    2    0    0  0.13837707117E+03  0.30695455166E+02 -0.80388891704E+02  0.20537234162E+03  0.12500000000E+03 0.  0.
         25    1    1    2    0    0 -0.13837707117E+03 -0.30695455166E+02  0.94584179192E+02  0.21133289320E+03  0.12500000000E+03 0.  0.
</event>
<event>
 4    0  0.2259196E-002  0.1626245E+03  0.7546771E-02  0.1185765E+00
         21   -1    0    0  502  501  0.00000000000E+00  0.00000000000E+00  0.97058263651E+03  0.97058263651E+03  0.00000000000E+00 0. -1.
         21   -1    0    0  501  502 -0.00000000000E+00 -0.00000000000E+00 -0.27248288730E+02  0.27248288730E+02  0.00000000000E+00 0. -1.
         25    1    1    2    0    0 -0.67122618395E+02  0.42093637337E+02  0.26485354286E+03  0.30339696665E+03  0.12500000000E+03 0.  0.
         25    1    1    2    0    0  0.67122618395E+02 -0.42093637337E+02  0.67848080492E+03  0.69443395860E+03  0.12500000000E+03 0.  0.
</event>
<event>
 4    0  0.2259196E-002  0.2835266E+03  0.7546771E-02  0.1093778E+00
         21   -1    0    0  502  501  0.00000000000E+00  0.00000000000E+00  0.10365308011E+03  0.10365308011E+03  0.00000000000E+00 0.  1.
         21   -1    0    0  501  502 -0.00000000000E+00 -0.00000000000E+00 -0.77554235509E+03  0.77554235509E+03  0.00000000000E+00 0.  1.
         25    1    1    2    0    0  0.56064613240E+02 -0.85565046058E+01  0.48701276234E+02  0.14564775637E+03  0.12500000000E+03 0.  0.
         25    1    1    2    0    0 -0.56064613240E+02  0.85565046058E+01 -0.72059055121E+03  0.73354767883E+03  0.12500000000E+03 0.  0.
</event>
<event>
 4    0  0.2259196E-002  0.3095084E+03  0.7546771E-02  0.1080582E+00
         21   -1    0    0  502  501  0.00000000000E+00  0.00000000000E+00  0.12674736425E+04  0.12674736425E+04  0.00000000000E+00 0.  1.
         21   -1    0    0  501  502 -0.00000000000E+00 -0.00000000000E+00 -0.75579850810E+02  0.75579850810E+02  0.00000000000E+00 0.  1.
         25    1    1    2    0    0 -0.24504079896E+02  0.28177311278E+03  0.56733278151E+03  0.64613313024E+03  0.12500000000E+03 0.  0.
         25    1    1    2    0    0  0.24504079896E+02 -0.28177311278E+03  0.62456101015E+03  0.69692036304E+03  0.12500000000E+03 0.  0.
</event>
<event>
 4    0  0.2259196E-002  0.2915721E+03  0.7546771E-02  0.1089531E+00
         21   -1    0    0  502  501  0.00000000000E+00  0.00000000000E+00  0.22032910111E+03  0.22032910111E+03  0.00000000000E+00 0.  1.
         21   -1    0    0  501  502 -0.00000000000E+00 -0.00000000000E+00 -0.38585144673E+03  0.38585144673E+03  0.00000000000E+00 0.  1.
         25    1    1    2    0    0 -0.25473420768E+03 -0.64073467129E+02 -0.10340459085E+03  0.30872712087E+03  0.12500000000E+03 0.  0.
         25    1    1    2    0    0  0.25473420768E+03  0.64073467129E+02 -0.62117754765E+02  0.29745342696E+03  0.12500000000E+03 0.  0.
</event>
<event>
 4    0  0.2259196E-002  0.2402493E+03  0.7546771E-02  0.1119627E+00
         21   -1    0    0  502  501  0.00000000000E+00  0.00000000000E+00  0.13124706619E+04  0.13124706619E+04  0.00000000000E+00 0. -1.
         21   -1    0    0  501  502 -0.00000000000E+00 -0.00000000000E+00 -0.43977913683E+02  0.43977913683E+02  0.00000000000E+00 0. -1.
         25    1    1    2    0    0  0.16927588790E+03  0.10746946908E+03  0.75699694189E+03  0.79301537377E+03  0.12500000000E+03 0.  0.
         25    1    1    2    0    0 -0.16927588790E+03 -0.10746946908E+03  0.51149580631E+03  0.56343320179E+03  0.12500000000E+03 0.  0.
</event>
<event>
 4    0  0.2259196E-002  0.1840853E+03  0.7546771E-02  0.1163907E+00
         21   -1    0    0  502  501  0.00000000000E+00  0.00000000000E+00  0.52035408376E+03  0.52035408376E+03  0.00000000000E+00 0.  1.
         21   -1    0    0  501  502 -0.00000000000E+00 -0.00000000000E+00 -0.65123715489E+02  0.65123715489E+02  0.00000000000E+00 0.  1.
         25    1    1    2    0    0 -0.12277146298E+03  0.33948595395E+02  0.15584196417E+03  0.23693260022E+03  0.12500000000E+03 0.  0.
         25    1    1    2    0    0  0.12277146298E+03 -0.33948595395E+02  0.29938840410E+03  0.34854519902E+03  0.12500000000E+03 0.  0.
</event>
<event>
 4    0  0.2259196E-002  0.1534833E+03  0.7546771E-02  0.1196257E+00
         21   -1    0    0  502  501  0.00000000000E+00  0.00000000000E+00  0.29285099253E+03  0.29285099253E+03  0.00000000000E+00 0.  1.
         21   -1    0    0  501  502 -0.00000000000E+00 -0.00000000000E+00 -0.80440639059E+02  0.80440639059E+02  0.00000000000E+00 0.  1.
         25    1    1    2    0    0  0.46530607165E+01  0.88937634485E+02  0.10528933623E+03  0.18612468435E+03  0.12500000000E+03 0.  0.
         25    1    1    2    0    0 -0.46530607165E+01 -0.88937634485E+02  0.10712101723E+03  0.18716694723E+03  0.12500000000E+03 0.  0.
</event>
<event>
 4    0  0.2259196E-002  0.1713268E+03  0.7546771E-02  0.1176471E+00
         21   -1    0    0  502  501  0.00000000000E+00  0.00000000000E+00  0.42357451750E+03  0.42357451750E+03  0.00000000000E+00 0.  1.
         21   -1    0    0  501  502 -0.00000000000E+00 -0.00000000000E+00 -0.69298003902E+02  0.69298003902E+02  0.00000000000E+00 0.  1.
         25    1    1    2    0    0  0.65646668012E+02  0.30988513813E+01  0.31666132166E+03  0.34672536760E+03  0.12500000000E+03 0.  0.
         25    1    1    2    0    0 -0.65646668012E+02 -0.30988513813E+01  0.37615191940E+02  0.14614715381E+03  0.12500000000E+03 0.  0.
</event>
<event>
 4    0  0.2259196E-002  0.2319782E+03  0.7546771E-02  0.1125255E+00
         21   -1    0    0  502  501  0.00000000000E+00  0.00000000000E+00  0.81594607368E+03  0.81594607368E+03  0.00000000000E+00 0. -1.
         21   -1    0    0  501  502 -0.00000000000E+00 -0.00000000000E+00 -0.65952757031E+02  0.65952757031E+02  0.00000000000E+00 0.  1.
         25    1    1    2    0    0 -0.18077566364E+03 -0.18883435111E+02  0.51143902258E+03  0.55698410974E+03  0.12500000000E+03 0.  0.
         25    1    1    2    0    0  0.18077566364E+03  0.18883435111E+02  0.23855429407E+03  0.32491472097E+03  0.12500000000E+03 0.  0.
</event>
<event>
 4    0  0.2259196E-002  0.2670324E+03  0.7546771E-02  0.1102990E+00
         21   -1    0    0  502  501  0.00000000000E+00  0.00000000000E+00  0.20136912405E+03  0.20136912405E+03  0.00000000000E+00 0.  1.
         21   -1    0    0  501  502 -0.00000000000E+00 -0.00000000000E+00 -0.35410734691E+03  0.35410734691E+03  0.00000000000E+00 0.  1.
         25    1    1    2    0    0  0.17768845082E+03 -0.15522583123E+03 -0.80125273546E+02  0.27877105965E+03  0.12500000000E+03 0.  0.
         25    1    1    2    0    0 -0.17768845082E+03  0.15522583123E+03 -0.72612949311E+02  0.27670541131E+03  0.12500000000E+03 0.  0.
</event>
<event>
 4    0  0.2259196E-002  0.2535258E+03  0.7546771E-02  0.1111097E+00
         21   -1    0    0  502  501  0.00000000000E+00  0.00000000000E+00  0.71187800189E+02  0.71187800189E+02  0.00000000000E+00 0.  1.
         21   -1    0    0  501  502 -0.00000000000E+00 -0.00000000000E+00 -0.90289814063E+03  0.90289814063E+03  0.00000000000E+00 0. -1.
         25    1    1    2    0    0 -0.20168490400E+03  0.61251524153E+02 -0.29103261970E+03  0.38046489383E+03  0.12500000000E+03 0.  0.
         25    1    1    2    0    0  0.20168490400E+03 -0.61251524153E+02 -0.54067772075E+03  0.59362104699E+03  0.12500000000E+03 0.  0.
</event>
<event>
 4    0  0.2259196E-002  0.1697698E+03  0.7546771E-02  0.1178088E+00
         21   -1    0    0  502  501  0.00000000000E+00  0.00000000000E+00  0.52202203557E+03  0.52202203557E+03  0.00000000000E+00 0.  1.
         21   -1    0    0  501  502 -0.00000000000E+00 -0.00000000000E+00 -0.55211809393E+02  0.55211809393E+02  0.00000000000E+00 0.  1.
         25    1    1    2    0    0 -0.92893102095E+02 -0.25289624219E+02  0.12685547799E+03  0.20245000816E+03  0.12500000000E+03 0.  0.
         25    1    1    2    0    0  0.92893102095E+02  0.25289624219E+02  0.33995474819E+03  0.37478383680E+03  0.12500000000E+03 0.  0.
</event>
<event>
 4    0  0.2259196E-002  0.2667908E+03  0.7546771E-02  0.1103130E+00
         21   -1    0    0  502  501  0.00000000000E+00  0.00000000000E+00  0.16872135652E+03  0.16872135652E+03  0.00000000000E+00 0.  1.
         21   -1    0    0  501  502 -0.00000000000E+00 -0.00000000000E+00 -0.42186334377E+03  0.42186334377E+03  0.00000000000E+00 0.  1.
         25    1    1    2    0    0  0.45745567421E+02  0.15721737630E+03 -0.31421847972E+03  0.37572358636E+03  0.12500000000E+03 0.  0.
         25    1    1    2    0    0 -0.45745567421E+02 -0.15721737630E+03  0.61076492463E+02  0.21486111393E+03  0.12500000000E+03 0.  0.
</event>
<event>
 4    0  0.2259196E-002  0.2280276E+03  0.7546771E-02  0.1128036E+00
         21   -1    0    0  502  501  0.00000000000E+00  0.00000000000E+00  0.49929567591E+02  0.49929567591E+02  0.00000000000E+00 0.  1.
         21   -1    0    0  501  502 -0.00000000000E+00 -0.00000000000E+00 -0.10413982665E+04  0.10413982665E+04  0.00000000000E+00 0.  1.
         25    1    1    2    0    0  0.87339795065E+02  0.70059777789E+02 -0.86517532076E+03  0.88130014633E+03  0.12500000000E+03 0.  0.
         25    1    1    2    0    0 -0.87339795065E+02 -0.70059777789E+02 -0.12629337816E+03  0.21002768778E+03  0.12500000000E+03 0.  0.
</event>
<event>
 4    0  0.2259196E-002  0.2792474E+03  0.7546771E-02  0.1096101E+00
         21   -1    0    0  502  501  0.00000000000E+00  0.00000000000E+00  0.16552898293E+03  0.16552898293E+03  0.00000000000E+00 0.  1.
         21   -1    0    0  501  502 -0.00000000000E+00 -0.00000000000E+00 -0.47109022214E+03  0.47109022214E+03  0.00000000000E+00 0.  1.
         25    1    1    2    0    0  0.18873249446E+03  0.42777875047E+02 -0.33266639915E+03  0.40465026156E+03  0.12500000000E+03 0.  0.
         25    1    1    2    0    0 -0.18873249446E+03 -0.42777875047E+02  0.27105159939E+02  0.23196894351E+03  0.12500000000E+03 0.  0.
</event>
<event>
 4    0  0.2259196E-002  0.2738937E+03  0.7546771E-02  0.1099072E+00
         21   -1    0    0  502  501  0.00000000000E+00  0.00000000000E+00  0.25163318922E+03  0.25163318922E+03  0.00000000000E+00 0. -1.
         21   -1    0    0  501  502 -0.00000000000E+00 -0.00000000000E+00 -0.29812353746E+03  0.29812353746E+03  0.00000000000E+00 0. -1.
         25    1    1    2    0    0  0.14208528578E+03  0.18825159766E+03  0.38342235025E+02  0.26967020496E+03  0.12500000000E+03 0.  0.
         25    1    1    2    0    0 -0.14208528578E+03 -0.18825159766E+03 -0.84832583267E+02  0.28008652171E+03  0.12500000000E+03 0.  0.
</event>
<event>
 4    0  0.2259196E-002  0.1793443E+03  0.7546771E-02  0.1168439E+00
         21   -1    0    0  502  501  0.00000000000E+00  0.00000000000E+00  0.40395393217E+03  0.40395393217E+03  0.00000000000E+00 0. -1.
         21   -1    0    0  501  502 -0.00000000000E+00 -0.00000000000E+00 -0.79623873805E+02  0.79623873805E+02  0.00000000000E+00 0. -1.
         25    1    1    2    0    0 -0.11460484638E+03  0.10509014353E+02  0.23954962848E+03  0.29368986142E+03  0.12500000000E+03 0.  0.
         25    1    1    2    0    0  0.11460484638E+03 -0.10509014353E+02  0.84780429886E+02  0.18988794456E+03  0.12500000000E+03 0.  0.
</event>
<event>
 4    0  0.2259196E-002  0.1488626E+03  0.7546771E-02  0.1201878E+00
         21   -1    0    0  502  501  0.00000000000E+00  0.00000000000E+00  0.60214469014E+02  0.60214469014E+02  0.00000000000E+00 0. -1.
         21   -1    0    0  501  502 -0.00000000000E+00 -0.00000000000E+00 -0.36801896464E+03  0.36801896464E+03  0.00000000000E+00 0. -1.
         25    1    1    2    0    0  0.35941014513E+02 -0.67361238542E+02 -0.11569042652E+03  0.18665092491E+03  0.12500000000E+03 0.  0.
         25    1    1    2    0    0 -0.35941014513E+02  0.67361238542E+02 -0.19211406911E+03  0.24158250874E+03  0.12500000000E+03 0.  0.
</event>
<event>
 4    0  0.2259196E-002  0.2130799E+03  0.7546771E-02  0.1139150E+00
         21   -1    0    0  502  501  0.00000000000E+00  0.00000000000E+00  0.28224330646E+03  0.28224330646E+03  0.00000000000E+00 0.  1.
         21   -1    0    0  501  502 -0.00000000000E+00 -0.00000000000E+00 -0.16086488974E+03  0.16086488974E+03  0.00000000000E+00 0.  1.
         25    1    1    2    0    0 -0.11545258417E+03 -0.55217627632E+02 -0.59671773577E+02  0.18858421502E+03  0.12500000000E+03 0.  0.
         25    1    1    2    0    0  0.11545258417E+03  0.55217627632E+02  0.18105019029E+03  0.25452398118E+03  0.12500000000E+03 0.  0.
</event>
<event>
 4    0  0.2259196E-002  0.1673408E+03  0.7546771E-02  0.1180650E+00
         21   -1    0    0  502  501  0.00000000000E+00  0.00000000000E+00  0.45767967242E+03  0.45767967242E+03  0.00000000000E+00 0. -1.
         21   -1    0    0  501  502 -0.00000000000E+00 -0.00000000000E+00 -0.61184607855E+02  0.61184607855E+02  0.00000000000E+00 0. -1.
         25    1    1    2    0    0 -0.46080399579E+02 -0.42483722443E+02  0.55738614380E+02  0.15053259790E+03  0.12500000000E+03 0.  0.
         25    1    1    2    0    0  0.46080399579E+02  0.42483722443E+02  0.34075645019E+03  0.36833168238E+03  0.12500000000E+03 0.  0.
</event>
<event>
 4    0  0.2259196E-002  0.2089608E+03  0.7546771E-02  0.1142392E+00
         21   -1    0    0  502  501  0.00000000000E+00  0.00000000000E+00  0.14857831066E+03  0.14857831066E+03  0.00000000000E+00 0.  1.
         21   -1    0    0  501  502 -0.00000000000E+00 -0.00000000000E+00 -0.29388288251E+03  0.29388288251E+03  0.00000000000E+00 0.  1.
         25    1    1    2    0    0 -0.66668921657E+02 -0.14008735916E+03 -0.59412084711E+01  0.19932263110E+03  0.12500000000E+03 0.  0.
         25    1    1    2    0    0  0.66668921657E+02  0.14008735916E+03 -0.13936336338E+03  0.24313856206E+03  0.12500000000E+03 0.  0.
</event>
<event>
 4    0  0.2259196E-002  0.2651752E+03  0.7546771E-02  0.1104073E+00
         21   -1    0    0  502  501  0.00000000000E+00  0.00000000000E+00  0.10465041610E+04  0.10465041610E+04  0.00000000000E+00 0. -1.
         21   -1    0    0  501  502 -0.00000000000E+00 -0.00000000000E+00 -0.67193150368E+02  0.67193150368E+02  0.00000000000E+00 0. -1.
         25    1    1    2    0    0 -0.22800786294E+03 -0.22520371269E+02  0.39120142430E+03  0.47027471446E+03  0.12500000000E+03 0.  0.
         25    1    1    2    0    0  0.22800786294E+03  0.22520371269E+02  0.58810958638E+03  0.64342259696E+03  0.12500000000E+03 0.  0.
</event>
<event>
 4    0  0.2259196E-002  0.3368349E+03  0.7546771E-02  0.1068152E+00
         21   -1    0    0  502  501  0.00000000000E+00  0.00000000000E+00  0.21718511957E+03  0.21718511957E+03  0.00000000000E+00 0. -1.
         21   -1    0    0  501  502 -0.00000000000E+00 -0.00000000000E+00 -0.52240108826E+03  0.52240108826E+03  0.00000000000E+00 0. -1.
         25    1    1    2    0    0  0.71349559289E+02 -0.14049933316E+03  0.14401778753E+03  0.24738016362E+03  0.12500000000E+03 0.  0.
         25    1    1    2    0    0 -0.71349559289E+02  0.14049933316E+03 -0.44923375622E+03  0.49220604421E+03  0.12500000000E+03 0.  0.
</event>
<event>
 4    0  0.2259196E-002  0.2046245E+03  0.7546771E-02  0.1145895E+00
         21   -1    0    0  502  501  0.00000000000E+00  0.00000000000E+00  0.11547942816E+03  0.11547942816E+03  0.00000000000E+00 0. -1.
         21   -1    0    0  501  502 -0.00000000000E+00 -0.00000000000E+00 -0.36258566432E+03  0.36258566432E+03  0.00000000000E+00 0. -1.
         25    1    1    2    0    0  0.80985564199E+02  0.45019377170E+01  0.40268532590E+02  0.15435505748E+03  0.12500000000E+03 0.  0.
         25    1    1    2    0    0 -0.80985564199E+02 -0.45019377170E+01 -0.28737476875E+03  0.32371003501E+03  0.12500000000E+03 0.  0.
</event>
<event>
 4    0  0.2259196E-002  0.2482395E+03  0.7546771E-02  0.1114423E+00
         21   -1    0    0  502  501  0.00000000000E+00  0.00000000000E+00  0.42072058939E+03  0.42072058939E+03  0.00000000000E+00 0. -1.
         21   -1    0    0  501  502 -0.00000000000E+00 -0.00000000000E+00 -0.14646975547E+03  0.14646975547E+03  0.00000000000E+00 0. -1.
         25    1    1    2    0    0 -0.19420892747E+03  0.81839947008E+00  0.33170548345E+02  0.23333037214E+03  0.12500000000E+03 0.  0.
         25    1    1    2    0    0  0.19420892747E+03 -0.81839947008E+00  0.24108028558E+03  0.33385997272E+03  0.12500000000E+03 0.  0.
</event>
<event>
 4    0  0.2259196E-002  0.1983159E+03  0.7546771E-02  0.1151168E+00
         21   -1    0    0  502  501  0.00000000000E+00  0.00000000000E+00  0.81200267140E+03  0.81200267140E+03  0.00000000000E+00 0. -1.
         21   -1    0    0  501  502 -0.00000000000E+00 -0.00000000000E+00 -0.48434832225E+02  0.48434832225E+02  0.00000000000E+00 0. -1.
         25    1    1    2    0    0 -0.32835226270E+02  0.10746075534E+03  0.15345168253E+03  0.22759258533E+03  0.12500000000E+03 0.  0.
         25    1    1    2    0    0  0.32835226270E+02 -0.10746075534E+03  0.61011615665E+03  0.63284491830E+03  0.12500000000E+03 0.  0.
</event>
<event>
 4    0  0.2259196E-002  0.2067557E+03  0.7546771E-02  0.1144161E+00
         21   -1    0    0  502  501  0.00000000000E+00  0.00000000000E+00  0.10539150501E+04  0.10539150501E+04  0.00000000000E+00 0.  1.
         21   -1    0    0  501  502 -0.00000000000E+00 -0.00000000000E+00 -0.40561055282E+02  0.40561055282E+02  0.00000000000E+00 0.  1.
         25    1    1    2    0    0  0.66988177373E+02 -0.40788564543E+02  0.88997499268E+03  0.90212616107E+03  0.12500000000E+03 0.  0.
         25    1    1    2    0    0 -0.66988177373E+02  0.40788564543E+02  0.12337900214E+03  0.19234994430E+03  0.12500000000E+03 0.  0.
</event>
<event>
 4    0  0.2259196E-002  0.3184835E+03  0.7546771E-02  0.1076349E+00
         21   -1    0    0  502  501  0.00000000000E+00  0.00000000000E+00  0.21413911912E+03  0.21413911912E+03  0.00000000000E+00 0. -1.
         21   -1    0    0  501  502 -0.00000000000E+00 -0.00000000000E+00 -0.47367201945E+03  0.47367201945E+03  0.00000000000E+00 0. -1.
         25    1    1    2    0    0  0.20550703631E+03  0.36654179002E+02  0.92136499198E+02  0.26017456696E+03  0.12500000000E+03 0.  0.
         25    1    1    2    0    0 -0.20550703631E+03 -0.36654179002E+02 -0.35166939953E+03  0.42763657160E+03  0.12500000000E+03 0.  0.
</event>
<event>
 4    0  0.2259196E-002  0.2850220E+03  0.7546771E-02  0.1092977E+00
         21   -1    0    0  502  501  0.00000000000E+00  0.00000000000E+00  0.52524262192E+03  0.52524262192E+03  0.00000000000E+00 0. -1.
         21   -1    0    0  501  502 -0.00000000000E+00 -0.00000000000E+00 -0.15466664408E+03  0.15466664408E+03  0.00000000000E+00 0.  1.
         25    1    1    2    0    0  0.90523233331E+02  0.23935519614E+03  0.19873721718E+03  0.34728496539E+03  0.12500000000E+03 0.  0.
         25    1    1    2    0    0 -0.90523233331E+02 -0.23935519614E+03  0.17183876067E+03  0.33262430061E+03  0.12500000000E+03 0.  0.
</event>
<event>
 4    0  0.2259196E-002  0.2888689E+03  0.7546771E-02  0.1090941E+00
         21   -1    0    0  502  501  0.00000000000E+00  0.00000000000E+00  0.41784456301E+03  0.41784456301E+03  0.00000000000E+00 0. -1.
         21   -1    0    0  501  502 -0.00000000000E+00 -0.00000000000E+00 -0.19970404409E+03  0.19970404409E+03  0.00000000000E+00 0. -1.
         25    1    1    2    0    0  0.20010950311E+03  0.60672890390E+02 -0.56852490504E+02  0.25016438304E+03  0.12500000000E+03 0.  0.
         25    1    1    2    0    0 -0.20010950311E+03 -0.60672890390E+02  0.27499300942E+03  0.36738422406E+03  0.12500000000E+03 0.  0.
</event>
<event>
 4    0  0.2259196E-002  0.1816649E+03  0.7546771E-02  0.1166201E+00
         21   -1    0    0  502  501  0.00000000000E+00  0.00000000000E+00  0.93976745438E+02  0.93976745438E+02  0.00000000000E+00 0. -1.
         21   -1    0    0  501  502 -0.00000000000E+00 -0.00000000000E+00 -0.35117338757E+03  0.35117338757E+03  0.00000000000E+00 0. -1.
         25    1    1    2    0    0 -0.74861612697E+02 -0.10808103529E+03 -0.14030909156E+03  0.22934125756E+03  0.12500000000E+03 0.  0.
         25    1    1    2    0    0  0.74861612697E+02  0.10808103529E+03 -0.11688755058E+03  0.21580887545E+03  0.12500000000E+03 0.  0.
</event>
<event>
 4    0  0.2259196E-002  0.2427381E+03  0.7546771E-02  0.1117982E+00
         21   -1    0    0  502  501  0.00000000000E+00  0.00000000000E+00  0.81351317289E+03  0.81351317289E+03  0.00000000000E+00 0. -1.
         21   -1    0    0  501  502 -0.00000000000E+00 -0.00000000000E+00 -0.72428786337E+02  0.72428786337E+02  0.00000000000E+00 0. -1.
         25    1    1    2    0    0  0.76715474642E+02 -0.82693279612E+02  0.68962892298E+03  0.70988484555E+03  0.12500000000E+03 0.  0.
         25    1    1    2    0    0 -0.76715474642E+02  0.82693279612E+02  0.51455463576E+02  0.17605711367E+03  0.12500000000E+03 0.  0.
</event>
<event>
 4    0  0.2259196E-002  0.1878624E+03  0.7546771E-02  0.1160404E+00
         21   -1    0    0  502  501  0.00000000000E+00  0.00000000000E+00  0.20940372461E+03  0.20940372461E+03  0.00000000000E+00 0.  1.
         21   -1    0    0  501  502 -0.00000000000E+00 -0.00000000000E+00 -0.16853694486E+03  0.16853694486E+03  0.00000000000E+00 0. -1.
         25    1    1    2    0    0  0.35149947258E+02 -0.13457321269E+03  0.23889278484E+01  0.18701918443E+03  0.12500000000E+03 0.  0.
         25    1    1    2    0    0 -0.35149947258E+02  0.13457321269E+03  0.38477851898E+02  0.19092148505E+03  0.12500000000E+03 0.  0.
</event>
<event>
 4    0  0.2259196E-002  0.2405423E+03  0.7546771E-02  0.1119432E+00
         21   -1    0    0  502  501  0.00000000000E+00  0.00000000000E+00  0.33326500384E+03  0.33326500384E+03  0.00000000000E+00 0. -1.
         21   -1    0    0  501  502 -0.00000000000E+00 -0.00000000000E+00 -0.17361736029E+03  0.17361736029E+03  0.00000000000E+00 0. -1.
         25    1    1    2    0    0  0.15923021465E+03 -0.11614198458E+03  0.18456487208E+02  0.23411292950E+03  0.12500000000E+03 0.  0.
         25    1    1    2    0    0 -0.15923021465E+03  0.11614198458E+03  0.14119115634E+03  0.27276943463E+03  0.12500000000E+03 0.  0.
</event>
<event>
 4    0  0.2259196E-002  0.2975931E+03  0.7546771E-02  0.1086450E+00
         21   -1    0    0  502  501  0.00000000000E+00  0.00000000000E+00  0.20177566329E+03  0.20177566329E+03  0.00000000000E+00 0.  1.
         21   -1    0    0  501  502 -0.00000000000E+00 -0.00000000000E+00 -0.43891134298E+03  0.43891134298E+03  0.00000000000E+00 0.  1.
         25    1    1    2    0    0 -0.53767955365E+02 -0.19687924303E+03 -0.30896288377E+03  0.39081388525E+03  0.12500000000E+03 0.  0.
         25    1    1    2    0    0  0.53767955365E+02  0.19687924303E+03  0.71827204080E+02  0.24987312101E+03  0.12500000000E+03 0.  0.
</event>
<event>
 4    0  0.2259196E-002  0.2966609E+03  0.7546771E-02  0.1086922E+00
         21   -1    0    0  502  501  0.00000000000E+00  0.00000000000E+00  0.99862175401E+02  0.99862175401E+02  0.00000000000E+00 0.  1.
         21   -1    0    0  501  502 -0.00000000000E+00 -0.00000000000E+00 -0.88129130795E+03  0.88129130795E+03  0.00000000000E+00 0.  1.
         25    1    1    2    0    0  0.16290774642E+03 -0.95731747985E+02 -0.70742066346E+03  0.74281390436E+03  0.12500000000E+03 0.  0.
         25    1    1    2    0    0 -0.16290774642E+03  0.95731747985E+02 -0.74008469088E+02  0.23833957899E+03  0.12500000000E+03 0.  0.
</event>
<event>
 4    0  0.2259196E-002  0.2572714E+03  0.7546771E-02  0.1108794E+00
         21   -1    0    0  502  501  0.00000000000E+00  0.00000000000E+00  0.28195901713E+03  0.28195901713E+03  0.00000000000E+00 0. -1.
         21   -1    0    0  501  502 -0.00000000000E+00 -0.00000000000E+00 -0.23474539149E+03  0.23474539149E+03  0.00000000000E+00 0. -1.
         25    1    1    2    0    0 -0.54577083998E+02 -0.21795426191E+03  0.14576735148E+02  0.25752708515E+03  0.12500000000E+03 0.  0.
         25    1    1    2    0    0  0.54577083998E+02  0.21795426191E+03  0.32636890492E+02  0.25917732347E+03  0.12500000000E+03 0.  0.
</event>
<event>
 4    0  0.2259196E-002  0.2280524E+03  0.7546771E-02  0.1128018E+00
         21   -1    0    0  502  501  0.00000000000E+00  0.00000000000E+00  0.23474457575E+03  0.23474457575E+03  0.00000000000E+00 0. -1.
         21   -1    0    0  501  502 -0.00000000000E+00 -0.00000000000E+00 -0.22155096705E+03  0.22155096705E+03  0.00000000000E+00 0. -1.
         25    1    1    2    0    0  0.15260391542E+03  0.98351036932E+02  0.65119190482E+02  0.22983992350E+03  0.12500000000E+03 0.  0.
         25    1    1    2    0    0 -0.15260391542E+03 -0.98351036932E+02 -0.51925581780E+02  0.22645561929E+03  0.12500000000E+03 0.  0.
</event>
<event>
 4    0  0.2259196E-002  0.2396302E+03  0.7546771E-02  0.1120039E+00
         21   -1    0    0  502  501  0.00000000000E+00  0.00000000000E+00  0.96228698209E+03  0.96228698209E+03  0.00000000000E+00 0.  1.
         21   -1    0    0  501  502 -0.00000000000E+00 -0.00000000000E+00 -0.59673066133E+02  0.59673066133E+02  0.00000000000E+00 0.  1.
         25    1    1    2    0    0  0.15662940897E+03  0.27253148851E+02  0.17721570268E+03  0.26889758488E+03  0.12500000000E+03 0.  0.
         25    1    1    2    0    0 -0.15662940897E+03 -0.27253148851E+02  0.72539821328E+03  0.75306246335E+03  0.12500000000E+03 0.  0.
</event>
<event>
 4    0  0.2259196E-002  0.1820599E+03  0.7546771E-02  0.1165824E+00
         21   -1    0    0  502  501  0.00000000000E+00  0.00000000000E+00  0.14874167817E+04  0.14874167817E+04  0.00000000000E+00 0. -1.
         21   -1    0    0  501  502 -0.00000000000E+00 -0.00000000000E+00 -0.22284151259E+02  0.22284151259E+02  0.00000000000E+00 0. -1.
         25    1    1    2    0    0  0.35845563814E+02  0.12440542449E+03  0.61832413356E+03  0.64398086014E+03  0.12500000000E+03 0.  0.
         25    1    1    2    0    0 -0.35845563814E+02 -0.12440542449E+03  0.84680849686E+03  0.86572007279E+03  0.12500000000E+03 0.  0.
</event>
<event>
 4    0  0.2259196E-002  0.1968162E+03  0.7546771E-02  0.1152453E+00
         21   -1    0    0  502  501  0.00000000000E+00  0.00000000000E+00  0.64863233002E+02  0.64863233002E+02  0.00000000000E+00 0. -1.
         21   -1    0    0  501  502 -0.00000000000E+00 -0.00000000000E+00 -0.59720433452E+03  0.59720433452E+03  0.00000000000E+00 0. -1.
         25    1    1    2    0    0 -0.12216884369E+03 -0.19258551883E+02 -0.11747788984E+03  0.21147617547E+03  0.12500000000E+03 0.  0.
         25    1    1    2    0    0  0.12216884369E+03  0.19258551883E+02 -0.41486321168E+03  0.45059139206E+03  0.12500000000E+03 0.  0.
</event>
<event>
 4    0  0.2259196E-002  0.1825112E+03  0.7546771E-02  0.1165395E+00
         21   -1    0    0  502  501  0.00000000000E+00  0.00000000000E+00  0.94033351023E+02  0.94033351023E+02  0.00000000000E+00 0. -1.
         21   -1    0    0  501  502 -0.00000000000E+00 -0.00000000000E+00 -0.35423975233E+03  0.35423975233E+03  0.00000000000E+00 0. -1.
         25    1    1    2    0    0 -0.12580747439E+03 -0.16771453246E+02 -0.17886466955E+03  0.25244082925E+03  0.12500000000E+03 0.  0.
         25    1    1    2    0    0  0.12580747439E+03  0.16771453246E+02 -0.81341731752E+02  0.19583227410E+03  0.12500000000E+03 0.  0.
</event>
<event>
 4    0  0.2259196E-002  0.2462635E+03  0.7546771E-02  0.1115689E+00
         21   -1    0    0  502  501  0.00000000000E+00  0.00000000000E+00  0.55040825566E+03  0.55040825566E+03  0.00000000000E+00 0. -1.
         21   -1    0    0  501  502 -0.00000000000E+00 -0.00000000000E+00 -0.11018316268E+03  0.11018316268E+03  0.00000000000E+00 0. -1.
         25    1    1    2    0    0  0.91665035159E+01 -0.24787250963E+02 -0.62254453404E+02  0.14212336038E+03  0.12500000000E+03 0.  0.
         25    1    1    2    0    0 -0.91665035159E+01  0.24787250963E+02  0.50247954638E+03  0.51846805796E+03  0.12500000000E+03 0.  0.
</event>
<event>
 4    0  0.2259196E-002  0.2019510E+03  0.7546771E-02  0.1148103E+00
         21   -1    0    0  502  501  0.00000000000E+00  0.00000000000E+00  0.14886611535E+04  0.14886611535E+04  0.00000000000E+00 0.  1.
         21   -1    0    0  501  502 -0.00000000000E+00 -0.00000000000E+00 -0.27396578887E+02  0.27396578887E+02  0.00000000000E+00 0.  1.
         25    1    1    2    0    0 -0.82725155946E+02  0.58271771694E+02  0.27214577627E+03  0.31611291391E+03  0.12500000000E+03 0.  0.
         25    1    1    2    0    0  0.82725155946E+02 -0.58271771694E+02  0.11891187983E+04  0.11999448185E+04  0.12500000000E+03 0.  0.
</event>
<event>
 4    0  0.2259196E-002  0.3574826E+03  0.7546771E-02  0.1059585E+00
         21   -1    0    0  502  501  0.00000000000E+00  0.00000000000E+00  0.21216825643E+03  0.21216825643E+03  0.00000000000E+00 0. -1.
         21   -1    0    0  501  502 -0.00000000000E+00 -0.00000000000E+00 -0.60232308232E+03  0.60232308232E+03  0.00000000000E+00 0. -1.
         25    1    1    2    0    0  0.18159159796E+03  0.23673234317E+02 -0.51452799623E+03  0.56026778363E+03  0.12500000000E+03 0.  0.
         25    1    1    2    0    0 -0.18159159796E+03 -0.23673234317E+02  0.12437317034E+03  0.25422355511E+03  0.12500000000E+03 0.  0.
</event>
<event>
 4    0  0.2259196E-002  0.4081694E+03  0.7546771E-02  0.1040987E+00
         21   -1    0    0  502  501  0.00000000000E+00  0.00000000000E+00  0.14331692678E+03  0.14331692678E+03  0.00000000000E+00 0.  1.
         21   -1    0    0  501  502 -0.00000000000E+00 -0.00000000000E+00 -0.11624745104E+04  0.11624745104E+04  0.00000000000E+00 0.  1.
         25    1    1    2    0    0  0.23422571238E+03 -0.12822685824E+03 -0.96108133850E+03  0.10052890881E+04  0.12500000000E+03 0.  0.
         25    1    1    2    0    0 -0.23422571238E+03  0.12822685824E+03 -0.58076245072E+02  0.30050234900E+03  0.12500000000E+03 0.  0.
</event>
<event>
 4    0  0.2259196E-002  0.3958702E+03  0.7546771E-02  0.1045219E+00
         21   -1    0    0  502  501  0.00000000000E+00  0.00000000000E+00  0.65201014501E+03  0.65201014501E+03  0.00000000000E+00 0.  1.
         21   -1    0    0  501  502 -0.00000000000E+00 -0.00000000000E+00 -0.24035396166E+03  0.24035396166E+03  0.00000000000E+00 0.  1.
         25    1    1    2    0    0 -0.18964314941E+01  0.23521531340E+03 -0.12423545820E+03  0.29392054910E+03  0.12500000000E+03 0.  0.
         25    1    1    2    0    0  0.18964314941E+01 -0.23521531340E+03  0.53589164155E+03  0.59844355756E+03  0.12500000000E+03 0.  0.
</event>
<event>
 4    0  0.2259196E-002  0.3683352E+03  0.7546771E-02  0.1055331E+00
         21   -1    0    0  502  501  0.00000000000E+00  0.00000000000E+00  0.12295965880E+04  0.12295965880E+04  0.00000000000E+00 0.  1.
         21   -1    0    0  501  502 -0.00000000000E+00 -0.00000000000E+00 -0.11033765054E+03  0.11033765054E+03  0.00000000000E+00 0. -1.
         25    1    1    2    0    0 -0.22108415513E+03 -0.26161548888E+03  0.65457795612E+03  0.74927843177E+03  0.12500000000E+03 0.  0.
         25    1    1    2    0    0  0.22108415513E+03  0.26161548888E+03  0.46468098138E+03  0.59065580682E+03  0.12500000000E+03 0.  0.
</event>
<event>
 4    0  0.2259196E-002  0.2146010E+03  0.7546771E-02  0.1137973E+00
         21   -1    0    0  502  501  0.00000000000E+00  0.00000000000E+00  0.71557334497E+02  0.71557334497E+02  0.00000000000E+00 0. -1.
         21   -1    0    0  501  502 -0.00000000000E+00 -0.00000000000E+00 -0.64358995843E+03  0.64358995843E+03  0.00000000000E+00 0. -1.
         25    1    1    2    0    0  0.97917216705E+02 -0.10258041687E+03 -0.11676470803E+03  0.22219252979E+03  0.12500000000E+03 0.  0.
         25    1    1    2    0    0 -0.97917216705E+02  0.10258041687E+03 -0.45526791590E+03  0.49295476314E+03  0.12500000000E+03 0.  0.
</event>
<event>
 4    0  0.2259196E-002  0.1983190E+03  0.7546771E-02  0.1151165E+00
         21   -1    0    0  502  501  0.00000000000E+00  0.00000000000E+00  0.23738818843E+03  0.23738818843E+03  0.00000000000E+00 0.  1.
         21   -1    0    0  501  502 -0.00000000000E+00 -0.00000000000E+00 -0.16567982289E+03  0.16567982289E+03  0.00000000000E+00 0.  1.
         25    1    1    2    0    0  0.61488600777E+01  0.76933940239E+02  0.17123850957E+03  0.22561973939E+03  0.12500000000E+03 0.  0.
         25    1    1    2    0    0 -0.61488600777E+01 -0.76933940239E+02 -0.99530144030E+02  0.17744827193E+03  0.12500000000E+03 0.  0.
</event>
<event>
 4    0  0.2259196E-002  0.2637621E+03  0.7546771E-02  0.1104904E+00
         21   -1    0    0  502  501  0.00000000000E+00  0.00000000000E+00  0.13011369931E+03  0.13011369931E+03  0.00000000000E+00 0.  1.
         21   -1    0    0  501  502 -0.00000000000E+00 -0.00000000000E+00 -0.53468955178E+03  0.53468955178E+03  0.00000000000E+00 0.  1.
         25    1    1    2    0    0  0.47010013925E+02  0.18893668896E+03 -0.42688402078E+02  0.23527497427E+03  0.12500000000E+03 0.  0.
         25    1    1    2    0    0 -0.47010013925E+02 -0.18893668896E+03 -0.36188745039E+03  0.42952827683E+03  0.12500000000E+03 0.  0.
</event>
<event>
 4    0  0.2259196E-002  0.2569800E+03  0.7546771E-02  0.1108971E+00
         21   -1    0    0  502  501  0.00000000000E+00  0.00000000000E+00  0.28393688531E+03  0.28393688531E+03  0.00000000000E+00 0. -1.
         21   -1    0    0  501  502 -0.00000000000E+00 -0.00000000000E+00 -0.23258247279E+03  0.23258247279E+03  0.00000000000E+00 0. -1.
         25    1    1    2    0    0 -0.22818224226E+02 -0.19388532868E+03 -0.85787439885E+02  0.24717741983E+03  0.12500000000E+03 0.  0.
         25    1    1    2    0    0  0.22818224226E+02  0.19388532868E+03  0.13714185241E+03  0.26934193828E+03  0.12500000000E+03 0.  0.
</event>
<event>
 4    0  0.2259196E-002  0.1740762E+03  0.7546771E-02  0.1173662E+00
         21   -1    0    0  502  501  0.00000000000E+00  0.00000000000E+00  0.14188771407E+03  0.14188771407E+03  0.00000000000E+00 0. -1.
         21   -1    0    0  501  502 -0.00000000000E+00 -0.00000000000E+00 -0.21356689773E+03  0.21356689773E+03  0.00000000000E+00 0. -1.
         25    1    1    2    0    0 -0.11999278080E+03  0.61573154945E+01 -0.19978667445E+02  0.17452887191E+03  0.12500000000E+03 0.  0.
         25    1    1    2    0    0  0.11999278080E+03 -0.61573154945E+01 -0.51700516213E+02  0.18092573989E+03  0.12500000000E+03 0.  0.
</event>
<event>
 4    0  0.2259196E-002  0.3192346E+03  0.7546771E-02  0.1076002E+00
         21   -1    0    0  502  501  0.00000000000E+00  0.00000000000E+00  0.34452796868E+03  0.34452796868E+03  0.00000000000E+00 0.  1.
         21   -1    0    0  501  502 -0.00000000000E+00 -0.00000000000E+00 -0.29579816583E+03  0.29579816583E+03  0.00000000000E+00 0.  1.
         25    1    1    2    0    0 -0.88373368234E+02  0.25646310150E+03  0.13739835358E+03  0.32876508667E+03  0.12500000000E+03 0.  0.
         25    1    1    2    0    0  0.88373368234E+02 -0.25646310150E+03 -0.88668550742E+02  0.31156104784E+03  0.12500000000E+03 0.  0.
</event>
<event>
 4    0  0.2259196E-002  0.2624514E+03  0.7546771E-02  0.1105679E+00
         21   -1    0    0  502  501  0.00000000000E+00  0.00000000000E+00  0.51480231867E+03  0.51480231867E+03  0.00000000000E+00 0.  1.
         21   -1    0    0  501  502 -0.00000000000E+00 -0.00000000000E+00 -0.13380031377E+03  0.13380031377E+03  0.00000000000E+00 0.  1.
         25    1    1    2    0    0  0.67037535449E+01 -0.22776114694E+03  0.23565988721E+03  0.35082853762E+03  0.12500000000E+03 0.  0.
         25    1    1    2    0    0 -0.67037535449E+01  0.22776114694E+03  0.14534211770E+03  0.29777409482E+03  0.12500000000E+03 0.  0.
</event>
<event>
 4    0  0.2259196E-002  0.2261748E+03  0.7546771E-02  0.1129361E+00
         21   -1    0    0  502  501  0.00000000000E+00  0.00000000000E+00  0.50940109314E+03  0.50940109314E+03  0.00000000000E+00 0. -1.
         21   -1    0    0  501  502 -0.00000000000E+00 -0.00000000000E+00 -0.10042195136E+03  0.10042195136E+03  0.00000000000E+00 0. -1.
         25    1    1    2    0    0 -0.83445485869E+02  0.15263316874E+03  0.30235642788E+03  0.37054614124E+03  0.12500000000E+03 0.  0.
         25    1    1    2    0    0  0.83445485869E+02 -0.15263316874E+03  0.10662271390E+03  0.23927690325E+03  0.12500000000E+03 0.  0.
</event>
<event>
 4    0  0.2259196E-002  0.2911070E+03  0.7546771E-02  0.1089773E+00
         21   -1    0    0  502  501  0.00000000000E+00  0.00000000000E+00  0.23897901887E+03  0.23897901887E+03  0.00000000000E+00 0.  1.
         21   -1    0    0  501  502 -0.00000000000E+00 -0.00000000000E+00 -0.35460546754E+03  0.35460546754E+03  0.00000000000E+00 0.  1.
         25    1    1    2    0    0  0.23624608599E+03 -0.32532694284E+02 -0.17064380275E+03  0.31877091580E+03  0.12500000000E+03 0.  0.
         25    1    1    2    0    0 -0.23624608599E+03  0.32532694284E+02  0.55017354083E+02  0.27481357061E+03  0.12500000000E+03 0.  0.
</event>
<event>
 4    0  0.2259196E-002  0.1663216E+03  0.7546771E-02  0.1181739E+00
         21   -1    0    0  502  501  0.00000000000E+00  0.00000000000E+00  0.12016935394E+03  0.12016935394E+03  0.00000000000E+00 0.  1.
         21   -1    0    0  501  502 -0.00000000000E+00 -0.00000000000E+00 -0.23019907382E+03  0.23019907382E+03  0.00000000000E+00 0.  1.
         25    1    1    2    0    0 -0.47075794675E+02  0.53793924658E+02  0.32654718384E+02  0.14765245480E+03  0.12500000000E+03 0.  0.
         25    1    1    2    0    0  0.47075794675E+02 -0.53793924658E+02 -0.14268443826E+03  0.20271597297E+03  0.12500000000E+03 0.  0.
</event>
<event>
 4    0  0.2259196E-002  0.3525685E+03  0.7546771E-02  0.1061566E+00
         21   -1    0    0  502  501  0.00000000000E+00  0.00000000000E+00  0.14494496334E+03  0.14494496334E+03  0.00000000000E+00 0.  1.
         21   -1    0    0  501  502 -0.00000000000E+00 -0.00000000000E+00 -0.85759818254E+03  0.85759818254E+03  0.00000000000E+00 0.  1.
         25    1    1    2    0    0  0.12820302631E+03  0.26283047357E+03 -0.57271462723E+03  0.65509000758E+03  0.12500000000E+03 0.  0.
         25    1    1    2    0    0 -0.12820302631E+03 -0.26283047357E+03 -0.13993859198E+03  0.34745313830E+03  0.12500000000E+03 0.  0.
</event>
<event>
 4    0  0.2259196E-002  0.2709263E+03  0.7546771E-02  0.1100751E+00
         21   -1    0    0  502  501  0.00000000000E+00  0.00000000000E+00  0.67338465074E+03  0.67338465074E+03  0.00000000000E+00 0.  1.
         21   -1    0    0  501  502 -0.00000000000E+00 -0.00000000000E+00 -0.10900315266E+03  0.10900315266E+03  0.00000000000E+00 0.  1.
         25    1    1    2    0    0  0.14761157994E+03  0.80751760880E+02  0.53004804799E+03  0.56998768285E+03  0.12500000000E+03 0.  0.
         25    1    1    2    0    0 -0.14761157994E+03 -0.80751760880E+02  0.34333450091E+02  0.21240012056E+03  0.12500000000E+03 0.  0.
</event>
<event>
 4    0  0.2259196E-002  0.2823474E+03  0.7546771E-02  0.1094414E+00
         21   -1    0    0  502  501  0.00000000000E+00  0.00000000000E+00  0.13176083003E+03  0.13176083003E+03  0.00000000000E+00 0. -1.
         21   -1    0    0  501  502 -0.00000000000E+00 -0.00000000000E+00 -0.60503592948E+03  0.60503592948E+03  0.00000000000E+00 0. -1.
         25    1    1    2    0    0  0.21352425587E+03  0.12834239961E+03 -0.29543415360E+03  0.40616587559E+03  0.12500000000E+03 0.  0.
         25    1    1    2    0    0 -0.21352425587E+03 -0.12834239961E+03 -0.17784094584E+03  0.33063088392E+03  0.12500000000E+03 0.  0.
</event>
<event>
 4    0  0.2259196E-002  0.2022442E+03  0.7546771E-02  0.1147859E+00
         21   -1    0    0  502  501  0.00000000000E+00  0.00000000000E+00  0.11340192166E+03  0.11340192166E+03  0.00000000000E+00 0. -1.
         21   -1    0    0  501  502 -0.00000000000E+00 -0.00000000000E+00 -0.36068820156E+03  0.36068820156E+03  0.00000000000E+00 0. -1.
         25    1    1    2    0    0 -0.90292168832E+02  0.47117523774E+02 -0.26673690253E+03  0.31168303125E+03  0.12500000000E+03 0.  0.
         25    1    1    2    0    0  0.90292168832E+02 -0.47117523774E+02  0.19450622631E+02  0.16240709196E+03  0.12500000000E+03 0.  0.
</event>
<event>
 4    0  0.2259196E-002  0.1833531E+03  0.7546771E-02  0.1164597E+00
         21   -1    0    0  502  501  0.00000000000E+00  0.00000000000E+00  0.12162270025E+03  0.12162270025E+03  0.00000000000E+00 0.  1.
         21   -1    0    0  501  502 -0.00000000000E+00 -0.00000000000E+00 -0.27641510419E+03  0.27641510419E+03  0.00000000000E+00 0.  1.
         25    1    1    2    0    0  0.59093910554E+02  0.92581887119E+02 -0.16098116743E+03  0.23152415069E+03  0.12500000000E+03 0.  0.
         25    1    1    2    0    0 -0.59093910554E+02 -0.92581887119E+02  0.61887634932E+01  0.16651365374E+03  0.12500000000E+03 0.  0.
</event>
<event>
 4    0  0.2259196E-002  0.1919182E+03  0.7546771E-02  0.1156743E+00
         21   -1    0    0  502  501  0.00000000000E+00  0.00000000000E+00  0.27834045858E+02  0.27834045858E+02  0.00000000000E+00 0. -1.
         21   -1    0    0  501  502 -0.00000000000E+00 -0.00000000000E+00 -0.13232924018E+04  0.13232924018E+04  0.00000000000E+00 0. -1.
         25    1    1    2    0    0 -0.13834529215E+03  0.44136480443E+02 -0.60914756196E+03  0.63857121843E+03  0.12500000000E+03 0.  0.
         25    1    1    2    0    0  0.13834529215E+03 -0.44136480443E+02 -0.68631079403E+03  0.71255522927E+03  0.12500000000E+03 0.  0.
</event>
<event>
 4    0  0.2259196E-002  0.1706329E+03  0.7546771E-02  0.1177189E+00
         21   -1    0    0  502  501  0.00000000000E+00  0.00000000000E+00  0.15901842433E+03  0.15901842433E+03  0.00000000000E+00 0. -1.
         21   -1    0    0  501  502 -0.00000000000E+00 -0.00000000000E+00 -0.18309577523E+03  0.18309577523E+03  0.00000000000E+00 0. -1.
         25    1    1    2    0    0  0.38949125703E+02  0.88957454281E+02 -0.75916284216E+02  0.17555268518E+03  0.12500000000E+03 0.  0.
         25    1    1    2    0    0 -0.38949125703E+02 -0.88957454281E+02  0.51838933312E+02  0.16656151438E+03  0.12500000000E+03 0.  0.
</event>
<event>
 4    0  0.2259196E-002  0.3300739E+03  0.7546771E-02  0.1071104E+00
         21   -1    0    0  502  501  0.00000000000E+00  0.00000000000E+00  0.53531521569E+02  0.53531521569E+02  0.00000000000E+00 0.  1.
         21   -1    0    0  501  502 -0.00000000000E+00 -0.00000000000E+00 -0.20352264794E+04  0.20352264794E+04  0.00000000000E+00 0.  1.
         25    1    1    2    0    0  0.22585728597E+03 -0.19258184100E+03 -0.76214600666E+03  0.82740003298E+03  0.12500000000E+03 0.  0.
         25    1    1    2    0    0 -0.22585728597E+03  0.19258184100E+03 -0.12195489512E+04  0.12613579680E+04  0.12500000000E+03 0.  0.
</event>
<event>
 4    0  0.2259196E-002  0.2438688E+03  0.7546771E-02  0.1117242E+00
         21   -1    0    0  502  501  0.00000000000E+00  0.00000000000E+00  0.92133960409E+03  0.92133960409E+03  0.00000000000E+00 0.  1.
         21   -1    0    0  501  502 -0.00000000000E+00 -0.00000000000E+00 -0.64549490113E+02  0.64549490113E+02  0.00000000000E+00 0.  1.
         25    1    1    2    0    0  0.33398209340E+02  0.11371479344E+03  0.79452760019E+02  0.18969511251E+03  0.12500000000E+03 0.  0.
         25    1    1    2    0    0 -0.33398209340E+02 -0.11371479344E+03  0.77733735396E+03  0.79619398170E+03  0.12500000000E+03 0.  0.
</event>
<event>
 4    0  0.2259196E-002  0.2547199E+03  0.7546771E-02  0.1110358E+00
         21   -1    0    0  502  501  0.00000000000E+00  0.00000000000E+00  0.22259351973E+04  0.22259351973E+04  0.00000000000E+00 0. -1.
         21   -1    0    0  501  502 -0.00000000000E+00 -0.00000000000E+00 -0.29148294256E+02  0.29148294256E+02  0.00000000000E+00 0. -1.
         25    1    1    2    0    0  0.51510719346E+01  0.20524098128E+03  0.72522281553E+03  0.76401801425E+03  0.12500000000E+03 0.  0.
         25    1    1    2    0    0 -0.51510719346E+01 -0.20524098128E+03  0.14715640876E+04  0.14910654774E+04  0.12500000000E+03 0.  0.
</event>
<event>
 4    0  0.2259196E-002  0.2273514E+03  0.7546771E-02  0.1128518E+00
         21   -1    0    0  502  501  0.00000000000E+00  0.00000000000E+00  0.90187612206E+03  0.90187612206E+03  0.00000000000E+00 0.  1.
         21   -1    0    0  501  502 -0.00000000000E+00 -0.00000000000E+00 -0.57312353992E+02  0.57312353992E+02  0.00000000000E+00 0.  1.
         25    1    1    2    0    0 -0.16325420601E+03  0.96360750515E+02  0.39857353279E+03  0.45871907641E+03  0.12500000000E+03 0.  0.
         25    1    1    2    0    0  0.16325420601E+03 -0.96360750515E+02  0.44599023528E+03  0.50046939965E+03  0.12500000000E+03 0.  0.
</event>
<event>
 4    0  0.2259196E-002  0.3700253E+03  0.7546771E-02  0.1054683E+00
         21   -1    0    0  502  501  0.00000000000E+00  0.00000000000E+00  0.73114958470E+03  0.73114958470E+03  0.00000000000E+00 0.  1.
         21   -1    0    0  501  502 -0.00000000000E+00 -0.00000000000E+00 -0.18726502297E+03  0.18726502297E+03  0.00000000000E+00 0.  1.
         25    1    1    2    0    0  0.19932428945E+03 -0.59426305393E+01 -0.82406882505E+02  0.24936194880E+03  0.12500000000E+03 0.  0.
         25    1    1    2    0    0 -0.19932428945E+03  0.59426305393E+01  0.62629144423E+03  0.66905265887E+03  0.12500000000E+03 0.  0.
</event>
<event>
 4    0  0.2259196E-002  0.1969156E+03  0.7546771E-02  0.1152368E+00
         21   -1    0    0  502  501  0.00000000000E+00  0.00000000000E+00  0.14531220440E+03  0.14531220440E+03  0.00000000000E+00 0. -1.
         21   -1    0    0  501  502 -0.00000000000E+00 -0.00000000000E+00 -0.26684456092E+03  0.26684456092E+03  0.00000000000E+00 0. -1.
         25    1    1    2    0    0  0.14773298361E+03 -0.27922528286E+02 -0.85221653887E+02  0.21328955043E+03  0.12500000000E+03 0.  0.
         25    1    1    2    0    0 -0.14773298361E+03  0.27922528286E+02 -0.36310702632E+02  0.19886721489E+03  0.12500000000E+03 0.  0.
</event>
<event>
 4    0  0.2259196E-002  0.2559429E+03  0.7546771E-02  0.1109606E+00
         21   -1    0    0  502  501  0.00000000000E+00  0.00000000000E+00  0.13880061972E+03  0.13880061972E+03  0.00000000000E+00 0.  1.
         21   -1    0    0  501  502 -0.00000000000E+00 -0.00000000000E+00 -0.47194872373E+03  0.47194872373E+03  0.00000000000E+00 0.  1.
         25    1    1    2    0    0 -0.10696123226E+03 -0.37781341689E+01 -0.40046153971E+03  0.43295429816E+03  0.12500000000E+03 0.  0.
         25    1    1    2    0    0  0.10696123226E+03  0.37781341689E+01  0.67313435697E+02  0.17779504529E+03  0.12500000000E+03 0.  0.
</event>
<event>
 4    0  0.2259196E-002  0.1883424E+03  0.7546771E-02  0.1159965E+00
         21   -1    0    0  502  501  0.00000000000E+00  0.00000000000E+00  0.99999290384E+02  0.99999290384E+02  0.00000000000E+00 0.  1.
         21   -1    0    0  501  502 -0.00000000000E+00 -0.00000000000E+00 -0.35473129191E+03  0.35473129191E+03  0.00000000000E+00 0.  1.
         25    1    1    2    0    0  0.69653641993E+02 -0.28298155984E+01  0.20426117572E+02  0.14457476951E+03  0.12500000000E+03 0.  0.
         25    1    1    2    0    0 -0.69653641993E+02  0.28298155984E+01 -0.27515811910E+03  0.31015581279E+03  0.12500000000E+03 0.  0.
</event>
<event>
 4    0  0.2259196E-002  0.4990775E+03  0.7546771E-02  0.1014020E+00
         21   -1    0    0  502  501  0.00000000000E+00  0.00000000000E+00  0.23938103515E+04  0.23938103515E+04  0.00000000000E+00 0.  1.
         21   -1    0    0  501  502 -0.00000000000E+00 -0.00000000000E+00 -0.10405099242E+03  0.10405099242E+03  0.00000000000E+00 0.  1.
         25    1    1    2    0    0 -0.82183912128E+02 -0.40550810502E+03  0.17693086033E+04  0.18213371331E+04  0.12500000000E+03 0.  0.
         25    1    1    2    0    0  0.82183912128E+02  0.40550810502E+03  0.52045075576E+03  0.67652421082E+03  0.12500000000E+03 0.  0.
</event>
<event>
 4    0  0.2259196E-002  0.2072608E+03  0.7546771E-02  0.1143754E+00
         21   -1    0    0  502  501  0.00000000000E+00  0.00000000000E+00  0.59525776807E+03  0.59525776807E+03  0.00000000000E+00 0.  1.
         21   -1    0    0  501  502 -0.00000000000E+00 -0.00000000000E+00 -0.72165427475E+02  0.72165427475E+02  0.00000000000E+00 0.  1.
         25    1    1    2    0    0  0.37852094538E+02  0.12250423749E+03  0.42958406414E+03  0.46541114880E+03  0.12500000000E+03 0.  0.
         25    1    1    2    0    0 -0.37852094538E+02 -0.12250423749E+03  0.93508276459E+02  0.20201204675E+03  0.12500000000E+03 0.  0.
</event>
<event>
 4    0  0.2259196E-002  0.2210007E+03  0.7546771E-02  0.1133139E+00
         21   -1    0    0  502  501  0.00000000000E+00  0.00000000000E+00  0.43677486902E+02  0.43677486902E+02  0.00000000000E+00 0.  1.
         21   -1    0    0  501  502 -0.00000000000E+00 -0.00000000000E+00 -0.11182257165E+04  0.11182257165E+04  0.00000000000E+00 0.  1.
         25    1    1    2    0    0  0.10099102052E+03  0.66484989029E+02 -0.89575506160E+03  0.91248099727E+03  0.12500000000E+03 0.  0.
         25    1    1    2    0    0 -0.10099102052E+03 -0.66484989029E+02 -0.17879316800E+03  0.24942220614E+03  0.12500000000E+03 0.  0.
</event>
<event>
 4    0  0.2259196E-002  0.2071921E+03  0.7546771E-02  0.1143809E+00
         21   -1    0    0  502  501  0.00000000000E+00  0.00000000000E+00  0.65098212698E+02  0.65098212698E+02  0.00000000000E+00 0. -1.
         21   -1    0    0  501  502 -0.00000000000E+00 -0.00000000000E+00 -0.65944291371E+03  0.65944291371E+03  0.00000000000E+00 0. -1.
         25    1    1    2    0    0  0.12684607799E+03  0.30477712366E+02 -0.11985285058E+03  0.21681449270E+03  0.12500000000E+03 0.  0.
         25    1    1    2    0    0 -0.12684607799E+03 -0.30477712366E+02 -0.47449185044E+03  0.50772663371E+03  0.12500000000E+03 0.  0.
</event>
<event>
 4    0  0.2259196E-002  0.2483221E+03  0.7546771E-02  0.1114370E+00
         21   -1    0    0  502  501  0.00000000000E+00  0.00000000000E+00  0.61932125265E+03  0.61932125265E+03  0.00000000000E+00 0. -1.
         21   -1    0    0  501  502 -0.00000000000E+00 -0.00000000000E+00 -0.99566869461E+02  0.99566869461E+02  0.00000000000E+00 0. -1.
         25    1    1    2    0    0 -0.17071523203E+03 -0.12822460652E+03  0.22904739357E+03  0.33715419124E+03  0.12500000000E+03 0.  0.
         25    1    1    2    0    0  0.17071523203E+03  0.12822460652E+03  0.29070698962E+03  0.38173393087E+03  0.12500000000E+03 0.  0.
</event>
<event>
 4    0  0.2259196E-002  0.1461549E+03  0.7546771E-02  0.1205279E+00
         21   -1    0    0  502  501  0.00000000000E+00  0.00000000000E+00  0.35481219387E+02  0.35481219387E+02  0.00000000000E+00 0.  1.
         21   -1    0    0  501  502 -0.00000000000E+00 -0.00000000000E+00 -0.60204375523E+03  0.60204375523E+03  0.00000000000E+00 0.  1.
         25    1    1    2    0    0  0.42803367941E+02  0.62127983019E+02 -0.26877612226E+03  0.30587189881E+03  0.12500000000E+03 0.  0.
         25    1    1    2    0    0 -0.42803367941E+02 -0.62127983019E+02 -0.29778641358E+03  0.33165307581E+03  0.12500000000E+03 0.  0.
</event>
<event>
 4    0  0.2259196E-002  0.1867721E+03  0.7546771E-02  0.1161405E+00
         21   -1    0    0  502  501  0.00000000000E+00  0.00000000000E+00  0.49793591667E+03  0.49793591667E+03  0.00000000000E+00 0. -1.
         21   -1    0    0  501  502 -0.00000000000E+00 -0.00000000000E+00 -0.70056870999E+02  0.70056870999E+02  0.00000000000E+00 0. -1.
         25    1    1    2    0    0  0.46215587858E+02  0.79358963202E+01  0.41254439744E+03  0.43360897001E+03  0.12500000000E+03 0.  0.
         25    1    1    2    0    0 -0.46215587858E+02 -0.79358963202E+01  0.15334648223E+02  0.13438381766E+03  0.12500000000E+03 0.  0.
</event>
<event>
 4    0  0.2259196E-002  0.2281950E+03  0.7546771E-02  0.1127917E+00
         21   -1    0    0  502  501  0.00000000000E+00  0.00000000000E+00  0.70804947245E+03  0.70804947245E+03  0.00000000000E+00 0.  1.
         21   -1    0    0  501  502 -0.00000000000E+00 -0.00000000000E+00 -0.73544239282E+02  0.73544239282E+02  0.00000000000E+00 0.  1.
         25    1    1    2    0    0 -0.30216628938E+02  0.47449227163E+02  0.48178659353E+01  0.13715934403E+03  0.12500000000E+03 0.  0.
         25    1    1    2    0    0  0.30216628938E+02 -0.47449227163E+02  0.62968736723E+03  0.64443436770E+03  0.12500000000E+03 0.  0.
</event>
<event>
 4    0  0.2259196E-002  0.2235793E+03  0.7546771E-02  0.1131242E+00
         21   -1    0    0  502  501  0.00000000000E+00  0.00000000000E+00  0.39249729745E+03  0.39249729745E+03  0.00000000000E+00 0.  1.
         21   -1    0    0  501  502 -0.00000000000E+00 -0.00000000000E+00 -0.12735812177E+03  0.12735812177E+03  0.00000000000E+00 0.  1.
         25    1    1    2    0    0 -0.10644041409E+03 -0.21464161452E+02 -0.42097162021E+02  0.17084332890E+03  0.12500000000E+03 0.  0.
         25    1    1    2    0    0  0.10644041409E+03  0.21464161452E+02  0.30723633771E+03  0.34901209032E+03  0.12500000000E+03 0.  0.
</event>
<event>
 4    0  0.2259196E-002  0.2614154E+03  0.7546771E-02  0.1106296E+00
         21   -1    0    0  502  501  0.00000000000E+00  0.00000000000E+00  0.79138612986E+03  0.79138612986E+03  0.00000000000E+00 0.  1.
         21   -1    0    0  501  502 -0.00000000000E+00 -0.00000000000E+00 -0.86352278496E+02  0.86352278496E+02  0.00000000000E+00 0.  1.
         25    1    1    2    0    0 -0.18526085338E+03 -0.13448562058E+03  0.32319618464E+03  0.41531763712E+03  0.12500000000E+03 0.  0.
         25    1    1    2    0    0  0.18526085338E+03  0.13448562058E+03  0.38183766672E+03  0.46242077123E+03  0.12500000000E+03 0.  0.
</event>
<event>
 4    0  0.2259196E-002  0.2099818E+03  0.7546771E-02  0.1141580E+00
         21   -1    0    0  502  501  0.00000000000E+00  0.00000000000E+00  0.15075635933E+03  0.15075635933E+03  0.00000000000E+00 0. -1.
         21   -1    0    0  501  502 -0.00000000000E+00 -0.00000000000E+00 -0.29247438550E+03  0.29247438550E+03  0.00000000000E+00 0. -1.
         25    1    1    2    0    0 -0.86596091268E+02  0.87621101530E+02  0.50814910468E+02  0.18271150917E+03  0.12500000000E+03 0.  0.
         25    1    1    2    0    0  0.86596091268E+02 -0.87621101530E+02 -0.19253293664E+03  0.26051923566E+03  0.12500000000E+03 0.  0.
</event>
<event>
 4    0  0.2259196E-002  0.2263806E+03  0.7546771E-02  0.1129213E+00
         21   -1    0    0  502  501  0.00000000000E+00  0.00000000000E+00  0.65878679230E+02  0.65878679230E+02  0.00000000000E+00 0. -1.
         21   -1    0    0  501  502 -0.00000000000E+00 -0.00000000000E+00 -0.77791754691E+03  0.77791754691E+03  0.00000000000E+00 0. -1.
         25    1    1    2    0    0 -0.78820528014E+02  0.49311891393E+02 -0.49907675562E+02  0.16358518988E+03  0.12500000000E+03 0.  0.
         25    1    1    2    0    0  0.78820528014E+02 -0.49311891393E+02 -0.66213119212E+03  0.68021103626E+03  0.12500000000E+03 0.  0.
</event>
<event>
 4    0  0.2259196E-002  0.3229242E+03  0.7546771E-02  0.1074311E+00
         21   -1    0    0  502  501  0.00000000000E+00  0.00000000000E+00  0.14924685881E+03  0.14924685881E+03  0.00000000000E+00 0. -1.
         21   -1    0    0  501  502 -0.00000000000E+00 -0.00000000000E+00 -0.69870863204E+03  0.69870863204E+03  0.00000000000E+00 0. -1.
         25    1    1    2    0    0 -0.16655687223E+03  0.11301959499E+03  0.13338740814E+02  0.23731317398E+03  0.12500000000E+03 0.  0.
         25    1    1    2    0    0  0.16655687223E+03 -0.11301959499E+03 -0.56280051405E+03  0.61064231687E+03  0.12500000000E+03 0.  0.
</event>
<event>
 4    0  0.2259196E-002  0.2571258E+03  0.7546771E-02  0.1108883E+00
         21   -1    0    0  502  501  0.00000000000E+00  0.00000000000E+00  0.44651618500E+03  0.44651618500E+03  0.00000000000E+00 0.  1.
         21   -1    0    0  501  502 -0.00000000000E+00 -0.00000000000E+00 -0.14806556913E+03  0.14806556913E+03  0.00000000000E+00 0.  1.
         25    1    1    2    0    0 -0.10035911643E+03 -0.20098261824E+03  0.15473497155E+03  0.30005645554E+03  0.12500000000E+03 0.  0.
         25    1    1    2    0    0  0.10035911643E+03  0.20098261824E+03  0.14371564432E+03  0.29452529859E+03  0.12500000000E+03 0.  0.
</event>
<event>
 4    0  0.2259196E-002  0.2427516E+03  0.7546771E-02  0.1117973E+00
         21   -1    0    0  502  501  0.00000000000E+00  0.00000000000E+00  0.82803802927E+02  0.82803802927E+02  0.00000000000E+00 0. -1.
         21   -1    0    0  501  502 -0.00000000000E+00 -0.00000000000E+00 -0.71166213248E+03  0.71166213248E+03  0.00000000000E+00 0. -1.
         25    1    1    2    0    0  0.10524423116E+03  0.14711978548E+03 -0.14609102891E+03  0.26398516663E+03  0.12500000000E+03 0.  0.
         25    1    1    2    0    0 -0.10524423116E+03 -0.14711978548E+03 -0.48276730065E+03  0.53048076878E+03  0.12500000000E+03 0.  0.
</event>
<event>
 4    0  0.2259196E-002  0.1703744E+03  0.7546771E-02  0.1177458E+00
         21   -1    0    0  502  501  0.00000000000E+00  0.00000000000E+00  0.29742205926E+02  0.29742205926E+02  0.00000000000E+00 0.  1.
         21   -1    0    0  501  502 -0.00000000000E+00 -0.00000000000E+00 -0.97596760176E+03  0.97596760176E+03  0.00000000000E+00 0.  1.
         25    1    1    2    0    0  0.28421268800E+02  0.11184545369E+03 -0.50036475201E+03  0.52849508899E+03  0.12500000000E+03 0.  0.
         25    1    1    2    0    0 -0.28421268800E+02 -0.11184545369E+03 -0.44586064383E+03  0.47721471870E+03  0.12500000000E+03 0.  0.
</event>
<event>
 4    0  0.2259196E-002  0.1964843E+03  0.7546771E-02  0.1152740E+00
         21   -1    0    0  502  501  0.00000000000E+00  0.00000000000E+00  0.32162025014E+03  0.32162025014E+03  0.00000000000E+00 0.  1.
         21   -1    0    0  501  502 -0.00000000000E+00 -0.00000000000E+00 -0.12003627187E+03  0.12003627187E+03  0.00000000000E+00 0.  1.
         25    1    1    2    0    0 -0.89106750169E+02 -0.10993647225E+03  0.39696451701E+02  0.19294260580E+03  0.12500000000E+03 0.  0.
         25    1    1    2    0    0  0.89106750169E+02  0.10993647225E+03  0.16188752657E+03  0.24871391620E+03  0.12500000000E+03 0.  0.
</event>
<event>
 4    0  0.2259196E-002  0.2181596E+03  0.7546771E-02  0.1135263E+00
         21   -1    0    0  502  501  0.00000000000E+00  0.00000000000E+00  0.45478699638E+03  0.45478699638E+03  0.00000000000E+00 0. -1.
         21   -1    0    0  501  502 -0.00000000000E+00 -0.00000000000E+00 -0.10465029437E+03  0.10465029437E+03  0.00000000000E+00 0. -1.
         25    1    1    2    0    0 -0.15455222741E+03  0.52414013626E+02  0.81417162774E+02  0.22110489415E+03  0.12500000000E+03 0.  0.
         25    1    1    2    0    0  0.15455222741E+03 -0.52414013626E+02  0.26871953924E+03  0.33833239660E+03  0.12500000000E+03 0.  0.
</event>
<event>
 4    0  0.2259196E-002  0.2005858E+03  0.7546771E-02  0.1149246E+00
         21   -1    0    0  502  501  0.00000000000E+00  0.00000000000E+00  0.52965751988E+03  0.52965751988E+03  0.00000000000E+00 0.  1.
         21   -1    0    0  501  502 -0.00000000000E+00 -0.00000000000E+00 -0.75963568822E+02  0.75963568822E+02  0.00000000000E+00 0.  1.
         25    1    1    2    0    0  0.49318559872E+02  0.12492237577E+02  0.28241809190E+01  0.13498648949E+03  0.12500000000E+03 0.  0.
         25    1    1    2    0    0 -0.49318559872E+02 -0.12492237577E+02  0.45086977014E+03  0.47063459921E+03  0.12500000000E+03 0.  0.
</event>
<event>
 4    0  0.2259196E-002  0.1871860E+03  0.7546771E-02  0.1161024E+00
         21   -1    0    0  502  501  0.00000000000E+00  0.00000000000E+00  0.51727724988E+03  0.51727724988E+03  0.00000000000E+00 0. -1.
         21   -1    0    0  501  502 -0.00000000000E+00 -0.00000000000E+00 -0.67736595590E+02  0.67736595590E+02  0.00000000000E+00 0. -1.
         25    1    1    2    0    0  0.81344399668E+02 -0.18695127260E+01  0.48023241890E+02  0.15668962377E+03  0.12500000000E+03 0.  0.
         25    1    1    2    0    0 -0.81344399668E+02  0.18695127260E+01  0.40151741240E+03  0.42832422170E+03  0.12500000000E+03 0.  0.
</event>
<event>
 4    0  0.2259196E-002  0.2459548E+03  0.7546771E-02  0.1115888E+00
         21   -1    0    0  502  501  0.00000000000E+00  0.00000000000E+00  0.32885404597E+03  0.32885404597E+03  0.00000000000E+00 0. -1.
         21   -1    0    0  501  502 -0.00000000000E+00 -0.00000000000E+00 -0.18395317448E+03  0.18395317448E+03  0.00000000000E+00 0. -1.
         25    1    1    2    0    0 -0.47368435697E+02 -0.23955319005E+01  0.28766504067E+03  0.31721551491E+03  0.12500000000E+03 0.  0.
         25    1    1    2    0    0  0.47368435697E+02  0.23955319005E+01 -0.14276416919E+03  0.19559170554E+03  0.12500000000E+03 0.  0.
</event>
<event>
 4    0  0.2259196E-002  0.3916350E+03  0.7546771E-02  0.1046715E+00
         21   -1    0    0  502  501  0.00000000000E+00  0.00000000000E+00  0.28728693027E+03  0.28728693027E+03  0.00000000000E+00 0.  1.
         21   -1    0    0  501  502 -0.00000000000E+00 -0.00000000000E+00 -0.53388439774E+03  0.53388439774E+03  0.00000000000E+00 0.  1.
         25    1    1    2    0    0 -0.21365384212E+03 -0.27458287420E+02  0.19356978559E+03  0.31543015660E+03  0.12500000000E+03 0.  0.
         25    1    1    2    0    0  0.21365384212E+03  0.27458287420E+02 -0.44016725306E+03  0.50574117142E+03  0.12500000000E+03 0.  0.
</event>
<event>
 4    0  0.2259196E-002  0.2209472E+03  0.7546771E-02  0.1133179E+00
         21   -1    0    0  502  501  0.00000000000E+00  0.00000000000E+00  0.19016811712E+03  0.19016811712E+03  0.00000000000E+00 0.  1.
         21   -1    0    0  501  502 -0.00000000000E+00 -0.00000000000E+00 -0.25670802587E+03  0.25670802587E+03  0.00000000000E+00 0.  1.
         25    1    1    2    0    0 -0.88878606785E+02 -0.10551295746E+03 -0.15360848011E+03  0.24135649173E+03  0.12500000000E+03 0.  0.
         25    1    1    2    0    0  0.88878606785E+02  0.10551295746E+03  0.87068571361E+02  0.20551965126E+03  0.12500000000E+03 0.  0.
</event>
<event>
 4    0  0.2259196E-002  0.2285433E+03  0.7546771E-02  0.1127669E+00
         21   -1    0    0  502  501  0.00000000000E+00  0.00000000000E+00  0.58092150054E+03  0.58092150054E+03  0.00000000000E+00 0. -1.
         21   -1    0    0  501  502 -0.00000000000E+00 -0.00000000000E+00 -0.89912362670E+02  0.89912362670E+02  0.00000000000E+00 0. -1.
         25    1    1    2    0    0 -0.16260506276E+03  0.36929920919E+02  0.10780678600E+03  0.23463062162E+03  0.12500000000E+03 0.  0.
         25    1    1    2    0    0  0.16260506276E+03 -0.36929920919E+02  0.38320235187E+03  0.43620324159E+03  0.12500000000E+03 0.  0.
</event>
<event>
 4    0  0.2259196E-002  0.2255216E+03  0.7546771E-02  0.1129832E+00
         21   -1    0    0  502  501  0.00000000000E+00  0.00000000000E+00  0.27722056099E+03  0.27722056099E+03  0.00000000000E+00 0.  1.
         21   -1    0    0  501  502 -0.00000000000E+00 -0.00000000000E+00 -0.18346395804E+03  0.18346395804E+03  0.00000000000E+00 0.  1.
         25    1    1    2    0    0  0.62325528886E+02  0.16435221542E+03 -0.20399733455E+02  0.21665011283E+03  0.12500000000E+03 0.  0.
         25    1    1    2    0    0 -0.62325528886E+02 -0.16435221542E+03  0.11415633641E+03  0.24403440620E+03  0.12500000000E+03 0.  0.
</event>
<event>
 4    0  0.2259196E-002  0.1753325E+03  0.7546771E-02  0.1172398E+00
         21   -1    0    0  502  501  0.00000000000E+00  0.00000000000E+00  0.44140094411E+03  0.44140094411E+03  0.00000000000E+00 0. -1.
         21   -1    0    0  501  502 -0.00000000000E+00 -0.00000000000E+00 -0.69645267243E+02  0.69645267243E+02  0.00000000000E+00 0. -1.
         25    1    1    2    0    0 -0.11444669197E+03  0.25395529167E+02  0.23988898802E+03  0.29481299967E+03  0.12500000000E+03 0.  0.
         25    1    1    2    0    0  0.11444669197E+03 -0.25395529167E+02  0.13186668885E+03  0.21623321168E+03  0.12500000000E+03 0.  0.
</event>
<event>
 4    0  0.2259196E-002  0.3002673E+03  0.7546771E-02  0.1085107E+00
         21   -1    0    0  502  501  0.00000000000E+00  0.00000000000E+00  0.17927727172E+03  0.17927727172E+03  0.00000000000E+00 0.  1.
         21   -1    0    0  501  502 -0.00000000000E+00 -0.00000000000E+00 -0.50291065703E+03  0.50291065703E+03  0.00000000000E+00 0.  1.
         25    1    1    2    0    0 -0.30800464410E+02  0.19953350223E+03 -0.37057889445E+03  0.44013180314E+03  0.12500000000E+03 0.  0.
         25    1    1    2    0    0  0.30800464410E+02 -0.19953350223E+03  0.46945509143E+02  0.24205612562E+03  0.12500000000E+03 0.  0.
</event>
<event>
 4    0  0.2259196E-002  0.1909912E+03  0.7546771E-02  0.1157570E+00
         21   -1    0    0  502  501  0.00000000000E+00  0.00000000000E+00  0.13215302735E+04  0.13215302735E+04  0.00000000000E+00 0. -1.
         21   -1    0    0  501  502 -0.00000000000E+00 -0.00000000000E+00 -0.27602561798E+02  0.27602561798E+02  0.00000000000E+00 0. -1.
         25    1    1    2    0    0  0.61510783961E+01 -0.62329221487E+02  0.11065194553E+04  0.11153174761E+04  0.12500000000E+03 0.  0.
         25    1    1    2    0    0 -0.61510783961E+01  0.62329221487E+02  0.18740825644E+03  0.23381535920E+03  0.12500000000E+03 0.  0.
</event>
<event>
 4    0  0.2259196E-002  0.3286455E+03  0.7546771E-02  0.1071738E+00
         21   -1    0    0  502  501  0.00000000000E+00  0.00000000000E+00  0.16991315385E+03  0.16991315385E+03  0.00000000000E+00 0.  1.
         21   -1    0    0  501  502 -0.00000000000E+00 -0.00000000000E+00 -0.63566527651E+03  0.63566527651E+03  0.00000000000E+00 0.  1.
         25    1    1    2    0    0 -0.33498125627E+02 -0.87569642467E+02  0.12147463597E+03  0.19791830104E+03  0.12500000000E+03 0.  0.
         25    1    1    2    0    0  0.33498125627E+02  0.87569642467E+02 -0.58722675864E+03  0.60766012932E+03  0.12500000000E+03 0.  0.
</event>
<event>
 4    0  0.2259196E-002  0.2245006E+03  0.7546771E-02  0.1130571E+00
         21   -1    0    0  502  501  0.00000000000E+00  0.00000000000E+00  0.99876085469E+02  0.99876085469E+02  0.00000000000E+00 0.  1.
         21   -1    0    0  501  502 -0.00000000000E+00 -0.00000000000E+00 -0.50463071299E+03  0.50463071299E+03  0.00000000000E+00 0.  1.
         25    1    1    2    0    0 -0.13390856294E+03  0.88081893305E+02 -0.74046540174E+02  0.21632802239E+03  0.12500000000E+03 0.  0.
         25    1    1    2    0    0  0.13390856294E+03 -0.88081893305E+02 -0.33070808735E+03  0.38817877607E+03  0.12500000000E+03 0.  0.
</event>
<event>
 4    0  0.2259196E-002  0.2455329E+03  0.7546771E-02  0.1116161E+00
         21   -1    0    0  502  501  0.00000000000E+00  0.00000000000E+00  0.13353808840E+04  0.13353808840E+04  0.00000000000E+00 0. -1.
         21   -1    0    0  501  502 -0.00000000000E+00 -0.00000000000E+00 -0.45145473969E+02  0.45145473969E+02  0.00000000000E+00 0. -1.
         25    1    1    2    0    0 -0.72027762520E+02  0.19712658731E+03  0.71480771664E+03  0.75539523547E+03  0.12500000000E+03 0.  0.
         25    1    1    2    0    0  0.72027762520E+02 -0.19712658731E+03  0.57542769341E+03  0.62513112252E+03  0.12500000000E+03 0.  0.
</event>
<event>
 4    0  0.2259196E-002  0.2397213E+03  0.7546771E-02  0.1119979E+00
         21   -1    0    0  502  501  0.00000000000E+00  0.00000000000E+00  0.52536401113E+03  0.52536401113E+03  0.00000000000E+00 0.  1.
         21   -1    0    0  501  502 -0.00000000000E+00 -0.00000000000E+00 -0.10938377524E+03  0.10938377524E+03  0.00000000000E+00 0.  1.
         25    1    1    2    0    0  0.21291735733E+02  0.13764228412E+02 -0.60733182012E+02  0.14126680924E+03  0.12500000000E+03 0.  0.
         25    1    1    2    0    0 -0.21291735733E+02 -0.13764228412E+02  0.47671341790E+03  0.49348097714E+03  0.12500000000E+03 0.  0.
</event>
<event>
 4    0  0.2259196E-002  0.1672179E+03  0.7546771E-02  0.1180781E+00
         21   -1    0    0  502  501  0.00000000000E+00  0.00000000000E+00  0.86161583964E+03  0.86161583964E+03  0.00000000000E+00 0.  1.
         21   -1    0    0  501  502 -0.00000000000E+00 -0.00000000000E+00 -0.32452771298E+02  0.32452771298E+02  0.00000000000E+00 0.  1.
         25    1    1    2    0    0  0.16413465772E+02  0.67365880666E+02  0.18261025808E+03  0.23190314809E+03  0.12500000000E+03 0.  0.
         25    1    1    2    0    0 -0.16413465772E+02 -0.67365880666E+02  0.64655281026E+03  0.66216546285E+03  0.12500000000E+03 0.  0.
</event>
<event>
 4    0  0.2259196E-002  0.2733531E+03  0.7546771E-02  0.1099376E+00
         21   -1    0    0  502  501  0.00000000000E+00  0.00000000000E+00  0.17508962297E+03  0.17508962297E+03  0.00000000000E+00 0. -1.
         21   -1    0    0  501  502 -0.00000000000E+00 -0.00000000000E+00 -0.42676383302E+03  0.42676383302E+03  0.00000000000E+00 0. -1.
         25    1    1    2    0    0 -0.18018768575E+02 -0.24162183291E+03 -0.14760912311E+03  0.31003102971E+03  0.12500000000E+03 0.  0.
         25    1    1    2    0    0  0.18018768575E+02  0.24162183291E+03 -0.10406508695E+03  0.29182242628E+03  0.12500000000E+03 0.  0.
</event>
<event>
 4    0  0.2259196E-002  0.2017107E+03  0.7546771E-02  0.1148304E+00
         21   -1    0    0  502  501  0.00000000000E+00  0.00000000000E+00  0.16624024788E+03  0.16624024788E+03  0.00000000000E+00 0. -1.
         21   -1    0    0  501  502 -0.00000000000E+00 -0.00000000000E+00 -0.24474937770E+03  0.24474937770E+03  0.00000000000E+00 0. -1.
         25    1    1    2    0    0  0.11028705654E+03 -0.10682313380E+03 -0.78549936711E+02  0.21300119556E+03  0.12500000000E+03 0.  0.
         25    1    1    2    0    0 -0.11028705654E+03  0.10682313380E+03  0.40806883607E-01  0.19798843002E+03  0.12500000000E+03 0.  0.
</event>
<event>
 4    0  0.2259196E-002  0.1795312E+03  0.7546771E-02  0.1168258E+00
         21   -1    0    0  502  501  0.00000000000E+00  0.00000000000E+00  0.22521824024E+03  0.22521824024E+03  0.00000000000E+00 0.  1.
         21   -1    0    0  501  502 -0.00000000000E+00 -0.00000000000E+00 -0.14311200503E+03  0.14311200503E+03  0.00000000000E+00 0.  1.
         25    1    1    2    0    0  0.92529946532E+02 -0.55204467541E+02 -0.31461742630E+02  0.16800049253E+03  0.12500000000E+03 0.  0.
         25    1    1    2    0    0 -0.92529946532E+02  0.55204467541E+02  0.11356797784E+03  0.20032975274E+03  0.12500000000E+03 0.  0.
</event>
<event>
 4    0  0.2259196E-002  0.1494142E+03  0.7546771E-02  0.1201195E+00
         21   -1    0    0  502  501  0.00000000000E+00  0.00000000000E+00  0.22579367628E+03  0.22579367628E+03  0.00000000000E+00 0. -1.
         21   -1    0    0  501  502 -0.00000000000E+00 -0.00000000000E+00 -0.98871706497E+02  0.98871706497E+02  0.00000000000E+00 0. -1.
         25    1    1    2    0    0  0.59147821447E+02 -0.38981864460E+02  0.18908729311E+02  0.14491580515E+03  0.12500000000E+03 0.  0.
         25    1    1    2    0    0 -0.59147821447E+02  0.38981864460E+02  0.10801324047E+03  0.17974957762E+03  0.12500000000E+03 0.  0.
</event>
<event>
 4    0  0.2259196E-002  0.2445516E+03  0.7546771E-02  0.1116797E+00
         21   -1    0    0  502  501  0.00000000000E+00  0.00000000000E+00  0.16224751411E+03  0.16224751411E+03  0.00000000000E+00 0. -1.
         21   -1    0    0  501  502 -0.00000000000E+00 -0.00000000000E+00 -0.36860639578E+03  0.36860639578E+03  0.00000000000E+00 0. -1.
         25    1    1    2    0    0 -0.15311007131E+03  0.56454949648E+01 -0.25935809758E+03  0.32613829633E+03  0.12500000000E+03 0.  0.
         25    1    1    2    0    0  0.15311007131E+03 -0.56454949648E+01  0.52999215921E+02  0.20471561357E+03  0.12500000000E+03 0.  0.
</event>
<event>
 4    0  0.2259196E-002  0.2462803E+03  0.7546771E-02  0.1115678E+00
         21   -1    0    0  502  501  0.00000000000E+00  0.00000000000E+00  0.27281473990E+03  0.27281473990E+03  0.00000000000E+00 0. -1.
         21   -1    0    0  501  502 -0.00000000000E+00 -0.00000000000E+00 -0.22232666311E+03  0.22232666311E+03  0.00000000000E+00 0. -1.
         25    1    1    2    0    0 -0.46958225029E+02  0.64562173355E+02 -0.17239648717E+03  0.22741789269E+03  0.12500000000E+03 0.  0.
         25    1    1    2    0    0  0.46958225029E+02 -0.64562173355E+02  0.22288456396E+03  0.26772351032E+03  0.12500000000E+03 0.  0.
</event>
<event>
 4    0  0.2259196E-002  0.1847815E+03  0.7546771E-02  0.1163254E+00
         21   -1    0    0  502  501  0.00000000000E+00  0.00000000000E+00  0.60551372318E+02  0.60551372318E+02  0.00000000000E+00 0. -1.
         21   -1    0    0  501  502 -0.00000000000E+00 -0.00000000000E+00 -0.56388797196E+03  0.56388797196E+03  0.00000000000E+00 0. -1.
         25    1    1    2    0    0  0.69660847971E+02  0.16532475910E+02 -0.56124260706E+02  0.15459912399E+03  0.12500000000E+03 0.  0.
         25    1    1    2    0    0 -0.69660847971E+02 -0.16532475910E+02 -0.44721233894E+03  0.46984022029E+03  0.12500000000E+03 0.  0.
</event>
<event>
 4    0  0.2259196E-002  0.2034210E+03  0.7546771E-02  0.1146884E+00
         21   -1    0    0  502  501  0.00000000000E+00  0.00000000000E+00  0.79970580665E+03  0.79970580665E+03  0.00000000000E+00 0. -1.
         21   -1    0    0  501  502 -0.00000000000E+00 -0.00000000000E+00 -0.51744142919E+02  0.51744142919E+02  0.00000000000E+00 0. -1.
         25    1    1    2    0    0  0.64387563668E+02  0.11218393768E+03  0.17517217554E+03  0.25108023680E+03  0.12500000000E+03 0.  0.
         25    1    1    2    0    0 -0.64387563668E+02 -0.11218393768E+03  0.57278948818E+03  0.60036971276E+03  0.12500000000E+03 0.  0.
</event>
<event>
 4    0  0.2259196E-002  0.4071438E+03  0.7546771E-02  0.1041334E+00
         21   -1    0    0  502  501  0.00000000000E+00  0.00000000000E+00  0.74808463915E+03  0.74808463915E+03  0.00000000000E+00 0.  1.
         21   -1    0    0  501  502 -0.00000000000E+00 -0.00000000000E+00 -0.22158729682E+03  0.22158729682E+03  0.00000000000E+00 0.  1.
         25    1    1    2    0    0  0.33792694308E+03  0.99730583417E+02  0.45526393417E+03  0.58909342034E+03  0.12500000000E+03 0.  0.
         25    1    1    2    0    0 -0.33792694308E+03 -0.99730583417E+02  0.71233408153E+02  0.38057851564E+03  0.12500000000E+03 0.  0.
</event>
<event>
 4    0  0.2259196E-002  0.2096003E+03  0.7546771E-02  0.1141883E+00
         21   -1    0    0  502  501  0.00000000000E+00  0.00000000000E+00  0.40833671485E+03  0.40833671485E+03  0.00000000000E+00 0. -1.
         21   -1    0    0  501  502 -0.00000000000E+00 -0.00000000000E+00 -0.10758837898E+03  0.10758837898E+03  0.00000000000E+00 0. -1.
         25    1    1    2    0    0 -0.26524913761E+02 -0.15329244302E+03  0.71519246554E+02  0.21199562911E+03  0.12500000000E+03 0.  0.
         25    1    1    2    0    0  0.26524913761E+02  0.15329244302E+03  0.22922908931E+03  0.30392946472E+03  0.12500000000E+03 0.  0.
</event>
<event>
 4    0  0.2259196E-002  0.1862906E+03  0.7546771E-02  0.1161850E+00
         21   -1    0    0  502  501  0.00000000000E+00  0.00000000000E+00  0.17311866346E+03  0.17311866346E+03  0.00000000000E+00 0. -1.
         21   -1    0    0  501  502 -0.00000000000E+00 -0.00000000000E+00 -0.20046477674E+03  0.20046477674E+03  0.00000000000E+00 0. -1.
         25    1    1    2    0    0  0.55547891548E+02  0.15896563090E+01 -0.14046912701E+03  0.19607312643E+03  0.12500000000E+03 0.  0.
         25    1    1    2    0    0 -0.55547891548E+02 -0.15896563090E+01  0.11312301372E+03  0.17751031377E+03  0.12500000000E+03 0.  0.
</event>
<event>
 4    0  0.2259196E-002  0.3432981E+03  0.7546771E-02  0.1065400E+00
         21   -1    0    0  502  501  0.00000000000E+00  0.00000000000E+00  0.72988977157E+03  0.72988977157E+03  0.00000000000E+00 0.  1.
         21   -1    0    0  501  502 -0.00000000000E+00 -0.00000000000E+00 -0.16146766196E+03  0.16146766196E+03  0.00000000000E+00 0.  1.
         25    1    1    2    0    0  0.25181289880E+03 -0.17922466987E+03  0.39045466957E+03  0.51343068400E+03  0.12500000000E+03 0.  0.
         25    1    1    2    0    0 -0.25181289880E+03  0.17922466987E+03  0.17796744004E+03  0.37792674952E+03  0.12500000000E+03 0.  0.
</event>
<event>
 4    0  0.2259196E-002  0.4016895E+03  0.7546771E-02  0.1043196E+00
         21   -1    0    0  502  501  0.00000000000E+00  0.00000000000E+00  0.10827120712E+03  0.10827120712E+03  0.00000000000E+00 0. -1.
         21   -1    0    0  501  502 -0.00000000000E+00 -0.00000000000E+00 -0.14902803271E+04  0.14902803271E+04  0.00000000000E+00 0. -1.
         25    1    1    2    0    0  0.11077703958E+03  0.35374088171E+03 -0.87255853215E+03  0.95623614025E+03  0.12500000000E+03 0.  0.
         25    1    1    2    0    0 -0.11077703958E+03 -0.35374088171E+03 -0.50945058780E+03  0.64231539394E+03  0.12500000000E+03 0.  0.
</event>
<event>
 4    0  0.2259196E-002  0.3193124E+03  0.7546771E-02  0.1075966E+00
         21   -1    0    0  502  501  0.00000000000E+00  0.00000000000E+00  0.19486214705E+04  0.19486214705E+04  0.00000000000E+00 0.  1.
         21   -1    0    0  501  502 -0.00000000000E+00 -0.00000000000E+00 -0.52324364843E+02  0.52324364843E+02  0.00000000000E+00 0.  1.
         25    1    1    2    0    0  0.20994111956E+03 -0.14180237649E+03  0.14144835153E+04  0.14424187335E+04  0.12500000000E+03 0.  0.
         25    1    1    2    0    0 -0.20994111956E+03  0.14180237649E+03  0.48181359040E+03  0.55852710190E+03  0.12500000000E+03 0.  0.
</event>
<event>
 4    0  0.2259196E-002  0.1924128E+03  0.7546771E-02  0.1156303E+00
         21   -1    0    0  502  501  0.00000000000E+00  0.00000000000E+00  0.24045165066E+03  0.24045165066E+03  0.00000000000E+00 0. -1.
         21   -1    0    0  501  502 -0.00000000000E+00 -0.00000000000E+00 -0.15397148536E+03  0.15397148536E+03  0.00000000000E+00 0. -1.
         25    1    1    2    0    0  0.72780061040E+02 -0.11731633994E+03  0.92795014453E+02  0.20807685025E+03  0.12500000000E+03 0.  0.
         25    1    1    2    0    0 -0.72780061040E+02  0.11731633994E+03 -0.63148491565E+01  0.18634628577E+03  0.12500000000E+03 0.  0.
</event>
<event>
 4    0  0.2259196E-002  0.2341991E+03  0.7546771E-02  0.1123719E+00
         21   -1    0    0  502  501  0.00000000000E+00  0.00000000000E+00  0.90056521918E+02  0.90056521918E+02  0.00000000000E+00 0.  1.
         21   -1    0    0  501  502 -0.00000000000E+00 -0.00000000000E+00 -0.60905319800E+03  0.60905319800E+03  0.00000000000E+00 0.  1.
         25    1    1    2    0    0  0.88925981111E+02  0.48950810380E+02 -0.56754407613E+01  0.16112486643E+03  0.12500000000E+03 0.  0.
         25    1    1    2    0    0 -0.88925981111E+02 -0.48950810380E+02 -0.51332123532E+03  0.53798485349E+03  0.12500000000E+03 0.  0.
</event>
<event>
 4    0  0.2259196E-002  0.3525669E+03  0.7546771E-02  0.1061566E+00
         21   -1    0    0  502  501  0.00000000000E+00  0.00000000000E+00  0.19726108237E+03  0.19726108237E+03  0.00000000000E+00 0. -1.
         21   -1    0    0  501  502 -0.00000000000E+00 -0.00000000000E+00 -0.63014668078E+03  0.63014668078E+03  0.00000000000E+00 0. -1.
         25    1    1    2    0    0 -0.30097800729E+03 -0.30900664725E+02 -0.62839582458E+02  0.33334130419E+03  0.12500000000E+03 0.  0.
         25    1    1    2    0    0  0.30097800729E+03  0.30900664725E+02 -0.37004601596E+03  0.49406645897E+03  0.12500000000E+03 0.  0.
</event>
<event>
 4    0  0.2259196E-002  0.3143637E+03  0.7546771E-02  0.1078273E+00
         21   -1    0    0  502  501  0.00000000000E+00  0.00000000000E+00  0.13768281120E+03  0.13768281120E+03  0.00000000000E+00 0.  1.
         21   -1    0    0  501  502 -0.00000000000E+00 -0.00000000000E+00 -0.71776976278E+03  0.71776976278E+03  0.00000000000E+00 0.  1.
         25    1    1    2    0    0  0.22977694263E+03  0.12010325923E+03 -0.46202646791E+03  0.54434887093E+03  0.12500000000E+03 0.  0.
         25    1    1    2    0    0 -0.22977694263E+03 -0.12010325923E+03 -0.11806048367E+03  0.31110370304E+03  0.12500000000E+03 0.  0.
</event>
<event>
 4    0  0.2259196E-002  0.1396405E+03  0.7546771E-02  0.1213814E+00
         21   -1    0    0  502  501  0.00000000000E+00  0.00000000000E+00  0.14039708344E+03  0.14039708344E+03  0.00000000000E+00 0. -1.
         21   -1    0    0  501  502 -0.00000000000E+00 -0.00000000000E+00 -0.13888789896E+03  0.13888789896E+03  0.00000000000E+00 0. -1.
         25    1    1    2    0    0 -0.60217839623E+02  0.13194379009E+02  0.93672723710E+01  0.13968903192E+03  0.12500000000E+03 0.  0.
         25    1    1    2    0    0  0.60217839623E+02 -0.13194379009E+02 -0.78580878886E+01  0.13959595048E+03  0.12500000000E+03 0.  0.
</event>
<event>
 4    0  0.2259196E-002  0.1865122E+03  0.7546771E-02  0.1161645E+00
         21   -1    0    0  502  501  0.00000000000E+00  0.00000000000E+00  0.75132252458E+02  0.75132252458E+02  0.00000000000E+00 0.  1.
         21   -1    0    0  501  502 -0.00000000000E+00 -0.00000000000E+00 -0.46300752940E+03  0.46300752940E+03  0.00000000000E+00 0.  1.
         25    1    1    2    0    0  0.11296427984E+03  0.46148317173E+02 -0.99654729803E+02  0.20111355218E+03  0.12500000000E+03 0.  0.
         25    1    1    2    0    0 -0.11296427984E+03 -0.46148317173E+02 -0.28822054714E+03  0.33702622968E+03  0.12500000000E+03 0.  0.
</event>
<event>
 4    0  0.2259196E-002  0.2634731E+03  0.7546771E-02  0.1105074E+00
         21   -1    0    0  502  501  0.00000000000E+00  0.00000000000E+00  0.10208370867E+03  0.10208370867E+03  0.00000000000E+00 0. -1.
         21   -1    0    0  501  502 -0.00000000000E+00 -0.00000000000E+00 -0.68001111799E+03  0.68001111799E+03  0.00000000000E+00 0. -1.
         25    1    1    2    0    0  0.22506097299E+03  0.53890604640E+02 -0.26614276663E+03  0.37418392678E+03  0.12500000000E+03 0.  0.
         25    1    1    2    0    0 -0.22506097299E+03 -0.53890604640E+02 -0.31178464269E+03  0.40791089989E+03  0.12500000000E+03 0.  0.
</event>
<event>
 4    0  0.2259196E-002  0.2505984E+03  0.7546771E-02  0.1112927E+00
         21   -1    0    0  502  501  0.00000000000E+00  0.00000000000E+00  0.26843976549E+03  0.26843976549E+03  0.00000000000E+00 0. -1.
         21   -1    0    0  501  502 -0.00000000000E+00 -0.00000000000E+00 -0.23394290758E+03  0.23394290758E+03  0.00000000000E+00 0. -1.
         25    1    1    2    0    0 -0.13976252034E+03  0.77664727409E+02  0.16459692496E+03  0.26130924148E+03  0.12500000000E+03 0.  0.
         25    1    1    2    0    0  0.13976252034E+03 -0.77664727409E+02 -0.13010006705E+03  0.24107343160E+03  0.12500000000E+03 0.  0.
</event>
<event>
 4    0  0.2259196E-002  0.2154011E+03  0.7546771E-02  0.1137359E+00
         21   -1    0    0  502  501  0.00000000000E+00  0.00000000000E+00  0.42464836076E+03  0.42464836076E+03  0.00000000000E+00 0.  1.
         21   -1    0    0  501  502 -0.00000000000E+00 -0.00000000000E+00 -0.10926130848E+03  0.10926130848E+03  0.00000000000E+00 0.  1.
         25    1    1    2    0    0 -0.26376402476E+02  0.12746575784E+03  0.11949232817E+02  0.18086187601E+03  0.12500000000E+03 0.  0.
         25    1    1    2    0    0  0.26376402476E+02 -0.12746575784E+03  0.30343781946E+03  0.35304779323E+03  0.12500000000E+03 0.  0.
</event>
<event>
 4    0  0.2259196E-002  0.2166492E+03  0.7546771E-02  0.1136406E+00
         21   -1    0    0  502  501  0.00000000000E+00  0.00000000000E+00  0.81619632088E+03  0.81619632088E+03  0.00000000000E+00 0.  1.
         21   -1    0    0  501  502 -0.00000000000E+00 -0.00000000000E+00 -0.57506859001E+02  0.57506859001E+02  0.00000000000E+00 0.  1.
         25    1    1    2    0    0 -0.31698722714E+02 -0.15684636629E+03  0.22702579599E+03  0.30458382046E+03  0.12500000000E+03 0.  0.
         25    1    1    2    0    0  0.31698722714E+02  0.15684636629E+03  0.53166366588E+03  0.56911935942E+03  0.12500000000E+03 0.  0.
</event>
<event>
 4    0  0.2259196E-002  0.2596933E+03  0.7546771E-02  0.1107328E+00
         21   -1    0    0  502  501  0.00000000000E+00  0.00000000000E+00  0.16587948599E+03  0.16587948599E+03  0.00000000000E+00 0.  1.
         21   -1    0    0  501  502 -0.00000000000E+00 -0.00000000000E+00 -0.40656402774E+03  0.40656402774E+03  0.00000000000E+00 0.  1.
         25    1    1    2    0    0 -0.59798114846E+02 -0.65062790767E+02  0.11086473277E+03  0.18901050302E+03  0.12500000000E+03 0.  0.
         25    1    1    2    0    0  0.59798114846E+02  0.65062790767E+02 -0.35154927452E+03  0.38343301070E+03  0.12500000000E+03 0.  0.
</event>
<event>
 4    0  0.2259196E-002  0.2114315E+03  0.7546771E-02  0.1140437E+00
         21   -1    0    0  502  501  0.00000000000E+00  0.00000000000E+00  0.66971219564E+03  0.66971219564E+03  0.00000000000E+00 0.  1.
         21   -1    0    0  501  502 -0.00000000000E+00 -0.00000000000E+00 -0.66749962944E+02  0.66749962944E+02  0.00000000000E+00 0.  1.
         25    1    1    2    0    0 -0.10612962394E+03 -0.84489582415E+02  0.48143480450E+03  0.51556421287E+03  0.12500000000E+03 0.  0.
         25    1    1    2    0    0  0.10612962394E+03  0.84489582415E+02  0.12152742820E+03  0.22089794571E+03  0.12500000000E+03 0.  0.
</event>
<event>
 4    0  0.2259196E-002  0.2135891E+03  0.7546771E-02  0.1138755E+00
         21   -1    0    0  502  501  0.00000000000E+00  0.00000000000E+00  0.29938682009E+04  0.29938682009E+04  0.00000000000E+00 0.  1.
         21   -1    0    0  501  502 -0.00000000000E+00 -0.00000000000E+00 -0.15237919091E+02  0.15237919091E+02  0.00000000000E+00 0.  1.
         25    1    1    2    0    0 -0.86195448798E+02  0.30989232233E+02  0.25247167253E+04  0.25294682308E+04  0.12500000000E+03 0.  0.
         25    1    1    2    0    0  0.86195448798E+02 -0.30989232233E+02  0.45391355648E+03  0.47963788910E+03  0.12500000000E+03 0.  0.
</event>
<event>
 4    0  0.2259196E-002  0.1989373E+03  0.7546771E-02  0.1150639E+00
         21   -1    0    0  502  501  0.00000000000E+00  0.00000000000E+00  0.31580718961E+03  0.31580718961E+03  0.00000000000E+00 0. -1.
         21   -1    0    0  501  502 -0.00000000000E+00 -0.00000000000E+00 -0.12531717533E+03  0.12531717533E+03  0.00000000000E+00 0. -1.
         25    1    1    2    0    0 -0.67385779389E+02 -0.74397315710E+02  0.22584264672E+03  0.27695794794E+03  0.12500000000E+03 0.  0.
         25    1    1    2    0    0  0.67385779389E+02  0.74397315710E+02 -0.35352632438E+02  0.16416641700E+03  0.12500000000E+03 0.  0.
</event>
<event>
 4    0  0.2259196E-002  0.2373930E+03  0.7546771E-02  0.1121542E+00
         21   -1    0    0  502  501  0.00000000000E+00  0.00000000000E+00  0.63905285066E+02  0.63905285066E+02  0.00000000000E+00 0.  1.
         21   -1    0    0  501  502 -0.00000000000E+00 -0.00000000000E+00 -0.88185850218E+03  0.88185850218E+03  0.00000000000E+00 0.  1.
         25    1    1    2    0    0 -0.13170757816E+03  0.60640482052E+02 -0.12934452367E+03  0.23103930404E+03  0.12500000000E+03 0.  0.
         25    1    1    2    0    0  0.13170757816E+03 -0.60640482052E+02 -0.68860869344E+03  0.71472448321E+03  0.12500000000E+03 0.  0.
</event>
<event>
 4    0  0.2259196E-002  0.2450815E+03  0.7546771E-02  0.1116453E+00
         21   -1    0    0  502  501  0.00000000000E+00  0.00000000000E+00  0.63637637912E+03  0.63637637912E+03  0.00000000000E+00 0.  1.
         21   -1    0    0  501  502 -0.00000000000E+00 -0.00000000000E+00 -0.94385885480E+02  0.94385885480E+02  0.00000000000E+00 0.  1.
         25    1    1    2    0    0  0.17789631015E+03  0.11010809525E+03  0.23243253870E+03  0.33678000958E+03  0.12500000000E+03 0.  0.
         25    1    1    2    0    0 -0.17789631015E+03 -0.11010809525E+03  0.30955795494E+03  0.39398225503E+03  0.12500000000E+03 0.  0.
</event>
<event>
 4    0  0.2259196E-002  0.2508491E+03  0.7546771E-02  0.1112769E+00
         21   -1    0    0  502  501  0.00000000000E+00  0.00000000000E+00  0.31623578549E+03  0.31623578549E+03  0.00000000000E+00 0. -1.
         21   -1    0    0  501  502 -0.00000000000E+00 -0.00000000000E+00 -0.19898209182E+03  0.19898209182E+03  0.00000000000E+00 0. -1.
         25    1    1    2    0    0  0.24412409118E+02 -0.20424137353E+03 -0.13914895269E+02  0.24109983138E+03  0.12500000000E+03 0.  0.
         25    1    1    2    0    0 -0.24412409118E+02  0.20424137353E+03  0.13116858894E+03  0.27411804593E+03  0.12500000000E+03 0.  0.
</event>
<event>
 4    0  0.2259196E-002  0.2211414E+03  0.7546771E-02  0.1133035E+00
         21   -1    0    0  502  501  0.00000000000E+00  0.00000000000E+00  0.35031604323E+03  0.35031604323E+03  0.00000000000E+00 0. -1.
         21   -1    0    0  501  502 -0.00000000000E+00 -0.00000000000E+00 -0.13959827136E+03  0.13959827136E+03  0.00000000000E+00 0. -1.
         25    1    1    2    0    0  0.11856243425E+03  0.49855994279E+02  0.24865812931E+03  0.30659180722E+03  0.12500000000E+03 0.  0.
         25    1    1    2    0    0 -0.11856243425E+03 -0.49855994279E+02 -0.37940357445E+02  0.18332250736E+03  0.12500000000E+03 0.  0.
</event>
<event>
 4    0  0.2259196E-002  0.1857628E+03  0.7546771E-02  0.1162339E+00
         21   -1    0    0  502  501  0.00000000000E+00  0.00000000000E+00  0.64540143363E+02  0.64540143363E+02  0.00000000000E+00 0.  1.
         21   -1    0    0  501  502 -0.00000000000E+00 -0.00000000000E+00 -0.53467210996E+03  0.53467210996E+03  0.00000000000E+00 0.  1.
         25    1    1    2    0    0  0.13003625693E+03  0.40487042372E+02 -0.26454995815E+03  0.32273876289E+03  0.12500000000E+03 0.  0.
         25    1    1    2    0    0 -0.13003625693E+03 -0.40487042372E+02 -0.20558200845E+03  0.27647349044E+03  0.12500000000E+03 0.  0.
</event>
<event>
 4    0  0.2259196E-002  0.1768152E+03  0.7546771E-02  0.1170921E+00
         21   -1    0    0  502  501  0.00000000000E+00  0.00000000000E+00  0.55248731858E+03  0.55248731858E+03  0.00000000000E+00 0.  1.
         21   -1    0    0  501  502 -0.00000000000E+00 -0.00000000000E+00 -0.56587051442E+02  0.56587051442E+02  0.00000000000E+00 0.  1.
         25    1    1    2    0    0  0.30425968576E+02  0.31462413317E+02  0.44971486568E+03  0.46881135165E+03  0.12500000000E+03 0.  0.
         25    1    1    2    0    0 -0.30425968576E+02 -0.31462413317E+02  0.46185401450E+02  0.14026301837E+03  0.12500000000E+03 0.  0.
</event>
<event>
 4    0  0.2259196E-002  0.2145971E+03  0.7546771E-02  0.1137976E+00
         21   -1    0    0  502  501  0.00000000000E+00  0.00000000000E+00  0.18056467049E+03  0.18056467049E+03  0.00000000000E+00 0.  1.
         21   -1    0    0  501  502 -0.00000000000E+00 -0.00000000000E+00 -0.25504387005E+03  0.25504387005E+03  0.00000000000E+00 0.  1.
         25    1    1    2    0    0  0.14472416388E+03  0.69506976759E+02  0.31974960781E+02  0.20597014722E+03  0.12500000000E+03 0.  0.
         25    1    1    2    0    0 -0.14472416388E+03 -0.69506976759E+02 -0.10645416034E+03  0.22963839331E+03  0.12500000000E+03 0.  0.
</event>
<event>
 4    0  0.2259196E-002  0.1587129E+03  0.7546771E-02  0.1190158E+00
         21   -1    0    0  502  501  0.00000000000E+00  0.00000000000E+00  0.86214316714E+03  0.86214316714E+03  0.00000000000E+00 0. -1.
         21   -1    0    0  501  502 -0.00000000000E+00 -0.00000000000E+00 -0.29217648278E+02  0.29217648278E+02  0.00000000000E+00 0. -1.
         25    1    1    2    0    0 -0.51906920307E+01  0.29287401740E+02  0.67808436062E+03  0.69015077722E+03  0.12500000000E+03 0.  0.
         25    1    1    2    0    0  0.51906920307E+01 -0.29287401740E+02  0.15484115824E+03  0.20121003819E+03  0.12500000000E+03 0.  0.
</event>
<event>
 4    0  0.2259196E-002  0.1941407E+03  0.7546771E-02  0.1154779E+00
         21   -1    0    0  502  501  0.00000000000E+00  0.00000000000E+00  0.20131016501E+02  0.20131016501E+02  0.00000000000E+00 0.  1.
         21   -1    0    0  501  502 -0.00000000000E+00 -0.00000000000E+00 -0.18722662873E+04  0.18722662873E+04  0.00000000000E+00 0.  1.
         25    1    1    2    0    0  0.60441623167E+02 -0.13448581061E+03 -0.83806923652E+03  0.86007247850E+03  0.12500000000E+03 0.  0.
         25    1    1    2    0    0 -0.60441623167E+02  0.13448581061E+03 -0.10140660343E+04  0.10323248253E+04  0.12500000000E+03 0.  0.
</event>
<event>
 4    0  0.2259196E-002  0.2179676E+03  0.7546771E-02  0.1135407E+00
         21   -1    0    0  502  501  0.00000000000E+00  0.00000000000E+00  0.15773666855E+03  0.15773666855E+03  0.00000000000E+00 0.  1.
         21   -1    0    0  501  502 -0.00000000000E+00 -0.00000000000E+00 -0.30119744838E+03  0.30119744838E+03  0.00000000000E+00 0.  1.
         25    1    1    2    0    0 -0.64871758265E+01  0.18114857088E+02  0.11515898882E+03  0.17104626335E+03  0.12500000000E+03 0.  0.
         25    1    1    2    0    0  0.64871758265E+01 -0.18114857088E+02 -0.25861976866E+03  0.28788785358E+03  0.12500000000E+03 0.  0.
</event>
<event>
 4    0  0.2259196E-002  0.2495372E+03  0.7546771E-02  0.1113598E+00
         21   -1    0    0  502  501  0.00000000000E+00  0.00000000000E+00  0.21423681757E+04  0.21423681757E+04  0.00000000000E+00 0. -1.
         21   -1    0    0  501  502 -0.00000000000E+00 -0.00000000000E+00 -0.29065420908E+02  0.29065420908E+02  0.00000000000E+00 0. -1.
         25    1    1    2    0    0 -0.14123250393E+03 -0.17548922391E+02  0.17634483840E+04  0.17735923398E+04  0.12500000000E+03 0.  0.
         25    1    1    2    0    0  0.14123250393E+03  0.17548922391E+02  0.34985437082E+03  0.39784125682E+03  0.12500000000E+03 0.  0.
</event>
<event>
 4    0  0.2259196E-002  0.2069257E+03  0.7546771E-02  0.1144024E+00
         21   -1    0    0  502  501  0.00000000000E+00  0.00000000000E+00  0.32006262527E+02  0.32006262527E+02  0.00000000000E+00 0. -1.
         21   -1    0    0  501  502 -0.00000000000E+00 -0.00000000000E+00 -0.13378078208E+04  0.13378078208E+04  0.00000000000E+00 0.  1.
         25    1    1    2    0    0  0.13775425258E+03 -0.85190199529E+02 -0.55036678792E+03  0.58716454716E+03  0.12500000000E+03 0.  0.
         25    1    1    2    0    0 -0.13775425258E+03  0.85190199529E+02 -0.75543477036E+03  0.78264953618E+03  0.12500000000E+03 0.  0.
</event>
<event>
 4    0  0.2259196E-002  0.2418965E+03  0.7546771E-02  0.1118536E+00
         21   -1    0    0  502  501  0.00000000000E+00  0.00000000000E+00  0.53561203776E+03  0.53561203776E+03  0.00000000000E+00 0. -1.
         21   -1    0    0  501  502 -0.00000000000E+00 -0.00000000000E+00 -0.10924682533E+03  0.10924682533E+03  0.00000000000E+00 0. -1.
         25    1    1    2    0    0 -0.20021086081E+03  0.36509366552E+01  0.28360330248E+03  0.36898990677E+03  0.12500000000E+03 0.  0.
         25    1    1    2    0    0  0.20021086081E+03 -0.36509366552E+01  0.14276190995E+03  0.27586895632E+03  0.12500000000E+03 0.  0.
</event>
<event>
 4    0  0.2259196E-002  0.1548740E+03  0.7546771E-02  0.1194609E+00
         21   -1    0    0  502  501  0.00000000000E+00  0.00000000000E+00  0.33047573713E+03  0.33047573713E+03  0.00000000000E+00 0. -1.
         21   -1    0    0  501  502 -0.00000000000E+00 -0.00000000000E+00 -0.72580115434E+02  0.72580115434E+02  0.00000000000E+00 0. -1.
         25    1    1    2    0    0  0.77892627131E+02  0.12351724848E+02  0.18915927948E+03  0.24005428444E+03  0.12500000000E+03 0.  0.
         25    1    1    2    0    0 -0.77892627131E+02 -0.12351724848E+02  0.68736342223E+02  0.16300156812E+03  0.12500000000E+03 0.  0.
</event>
<event>
 4    0  0.2259196E-002  0.2079307E+03  0.7546771E-02  0.1143215E+00
         21   -1    0    0  502  501  0.00000000000E+00  0.00000000000E+00  0.20078990400E+03  0.20078990400E+03  0.00000000000E+00 0.  1.
         21   -1    0    0  501  502 -0.00000000000E+00 -0.00000000000E+00 -0.21532549161E+03  0.21532549161E+03  0.00000000000E+00 0.  1.
         25    1    1    2    0    0  0.10868921400E+03 -0.70564483455E+02  0.96802898784E+02  0.20442233924E+03  0.12500000000E+03 0.  0.
         25    1    1    2    0    0 -0.10868921400E+03  0.70564483455E+02 -0.11133848639E+03  0.21169305638E+03  0.12500000000E+03 0.  0.
</event>
<event>
 4    0  0.2259196E-002  0.2312915E+03  0.7546771E-02  0.1125734E+00
         21   -1    0    0  502  501  0.00000000000E+00  0.00000000000E+00  0.11412471702E+03  0.11412471702E+03  0.00000000000E+00 0. -1.
         21   -1    0    0  501  502 -0.00000000000E+00 -0.00000000000E+00 -0.46874809276E+03  0.46874809276E+03  0.00000000000E+00 0. -1.
         25    1    1    2    0    0 -0.91784113112E+02  0.66568903277E+02 -0.37660120308E+03  0.41268536255E+03  0.12500000000E+03 0.  0.
         25    1    1    2    0    0  0.91784113112E+02 -0.66568903277E+02  0.21977827338E+02  0.17018744724E+03  0.12500000000E+03 0.  0.
</event>
<event>
 4    0  0.2259196E-002  0.2170561E+03  0.7546771E-02  0.1136097E+00
         21   -1    0    0  502  501  0.00000000000E+00  0.00000000000E+00  0.63151078277E+02  0.63151078277E+02  0.00000000000E+00 0.  1.
         21   -1    0    0  501  502 -0.00000000000E+00 -0.00000000000E+00 -0.74604170287E+03  0.74604170287E+03  0.00000000000E+00 0.  1.
         25    1    1    2    0    0  0.95504724984E+02  0.20389728862E+02 -0.61761856687E+03  0.63766338117E+03  0.12500000000E+03 0.  0.
         25    1    1    2    0    0 -0.95504724984E+02 -0.20389728862E+02 -0.65272057717E+02  0.17152939998E+03  0.12500000000E+03 0.  0.
</event>
<event>
 4    0  0.2259196E-002  0.2447840E+03  0.7546771E-02  0.1116646E+00
         21   -1    0    0  502  501  0.00000000000E+00  0.00000000000E+00  0.12176694121E+03  0.12176694121E+03  0.00000000000E+00 0. -1.
         21   -1    0    0  501  502 -0.00000000000E+00 -0.00000000000E+00 -0.49208087629E+03  0.49208087629E+03  0.00000000000E+00 0. -1.
         25    1    1    2    0    0  0.81307643793E+02  0.19351138374E+03 -0.16587061267E+03  0.29528909347E+03  0.12500000000E+03 0.  0.
         25    1    1    2    0    0 -0.81307643793E+02 -0.19351138374E+03 -0.20444332241E+03  0.31855872403E+03  0.12500000000E+03 0.  0.
</event>
<event>
 4    0  0.2259196E-002  0.2239701E+03  0.7546771E-02  0.1130957E+00
         21   -1    0    0  502  501  0.00000000000E+00  0.00000000000E+00  0.19905850798E+03  0.19905850798E+03  0.00000000000E+00 0. -1.
         21   -1    0    0  501  502 -0.00000000000E+00 -0.00000000000E+00 -0.25199937071E+03  0.25199937071E+03  0.00000000000E+00 0. -1.
         25    1    1    2    0    0 -0.97289620409E+02  0.13980343685E+03  0.48393143850E+02  0.21674216841E+03  0.12500000000E+03 0.  0.
         25    1    1    2    0    0  0.97289620409E+02 -0.13980343685E+03 -0.10133400659E+03  0.23431571028E+03  0.12500000000E+03 0.  0.
</event>
<event>
 4    0  0.2259196E-002  0.2532906E+03  0.7546771E-02  0.1111243E+00
         21   -1    0    0  502  501  0.00000000000E+00  0.00000000000E+00  0.17928835119E+03  0.17928835119E+03  0.00000000000E+00 0. -1.
         21   -1    0    0  501  502 -0.00000000000E+00 -0.00000000000E+00 -0.35783754170E+03  0.35783754170E+03  0.00000000000E+00 0. -1.
         25    1    1    2    0    0 -0.11083458677E+03  0.10957081144E+03  0.75808529344E+02  0.21368668996E+03  0.12500000000E+03 0.  0.
         25    1    1    2    0    0  0.11083458677E+03 -0.10957081144E+03 -0.25435771985E+03  0.32343920293E+03  0.12500000000E+03 0.  0.
</event>
<event>
 4    0  0.2259196E-002  0.1869615E+03  0.7546771E-02  0.1161231E+00
         21   -1    0    0  502  501  0.00000000000E+00  0.00000000000E+00  0.39414434184E+03  0.39414434184E+03  0.00000000000E+00 0.  1.
         21   -1    0    0  501  502 -0.00000000000E+00 -0.00000000000E+00 -0.88684764088E+02  0.88684764088E+02  0.00000000000E+00 0.  1.
         25    1    1    2    0    0  0.15394643544E+02  0.82551773093E+02  0.29580740782E+03  0.33193194003E+03  0.12500000000E+03 0.  0.
         25    1    1    2    0    0 -0.15394643544E+02 -0.82551773093E+02  0.96521699274E+01  0.15089716589E+03  0.12500000000E+03 0.  0.
</event>
<event>
 4    0  0.2259196E-002  0.2030559E+03  0.7546771E-02  0.1147186E+00
         21   -1    0    0  502  501  0.00000000000E+00  0.00000000000E+00  0.27400355370E+02  0.27400355370E+02  0.00000000000E+00 0.  1.
         21   -1    0    0  501  502 -0.00000000000E+00 -0.00000000000E+00 -0.15047862986E+04  0.15047862986E+04  0.00000000000E+00 0.  1.
         25    1    1    2    0    0  0.12868793056E+03  0.84033348566E+02 -0.90676322908E+03  0.92815232627E+03  0.12500000000E+03 0.  0.
         25    1    1    2    0    0 -0.12868793056E+03 -0.84033348566E+02 -0.57062271419E+03  0.60403432775E+03  0.12500000000E+03 0.  0.
</event>
<event>
 4    0  0.2259196E-002  0.2645486E+03  0.7546771E-02  0.1104441E+00
         21   -1    0    0  502  501  0.00000000000E+00  0.00000000000E+00  0.97888695383E+02  0.97888695383E+02  0.00000000000E+00 0. -1.
         21   -1    0    0  501  502 -0.00000000000E+00 -0.00000000000E+00 -0.71495441157E+03  0.71495441157E+03  0.00000000000E+00 0. -1.
         25    1    1    2    0    0 -0.19611551619E+03 -0.12451183077E+03 -0.33912237155E+03  0.42964342725E+03  0.12500000000E+03 0.  0.
         25    1    1    2    0    0  0.19611551619E+03  0.12451183077E+03 -0.27794334464E+03  0.38319967970E+03  0.12500000000E+03 0.  0.
</event>
<event>
 4    0  0.2259196E-002  0.3368393E+03  0.7546771E-02  0.1068150E+00
         21   -1    0    0  502  501  0.00000000000E+00  0.00000000000E+00  0.19678354448E+03  0.19678354448E+03  0.00000000000E+00 0. -1.
         21   -1    0    0  501  502 -0.00000000000E+00 -0.00000000000E+00 -0.57657606451E+03  0.57657606451E+03  0.00000000000E+00 0. -1.
         25    1    1    2    0    0 -0.21510346249E+03 -0.47893207927E+02  0.64922122446E+02  0.26153994136E+03  0.12500000000E+03 0.  0.
         25    1    1    2    0    0  0.21510346249E+03  0.47893207927E+02 -0.44471464248E+03  0.51181966764E+03  0.12500000000E+03 0.  0.
</event>
<event>
 4    0  0.2259196E-002  0.2519067E+03  0.7546771E-02  0.1112106E+00
         21   -1    0    0  502  501  0.00000000000E+00  0.00000000000E+00  0.19900306000E+03  0.19900306000E+03  0.00000000000E+00 0.  1.
         21   -1    0    0  501  502 -0.00000000000E+00 -0.00000000000E+00 -0.31887441767E+03  0.31887441767E+03  0.00000000000E+00 0.  1.
         25    1    1    2    0    0 -0.76905039017E+02 -0.52898491610E+02 -0.26324304953E+03  0.30599761203E+03  0.12500000000E+03 0.  0.
         25    1    1    2    0    0  0.76905039017E+02  0.52898491610E+02  0.14337169185E+03  0.21187986564E+03  0.12500000000E+03 0.  0.
</event>
<event>
 4    0  0.2259196E-002  0.2672790E+03  0.7546771E-02  0.1102847E+00
         21   -1    0    0  502  501  0.00000000000E+00  0.00000000000E+00  0.30382635303E+03  0.30382635303E+03  0.00000000000E+00 0.  1.
         21   -1    0    0  501  502 -0.00000000000E+00 -0.00000000000E+00 -0.23512797283E+03  0.23512797283E+03  0.00000000000E+00 0.  1.
         25    1    1    2    0    0 -0.18449092209E+03  0.12466168235E+03  0.11396468190E+03  0.27962543536E+03  0.12500000000E+03 0.  0.
         25    1    1    2    0    0  0.18449092209E+03 -0.12466168235E+03 -0.45266301702E+02  0.25932889050E+03  0.12500000000E+03 0.  0.
</event>
<event>
 4    0  0.2259196E-002  0.2487959E+03  0.7546771E-02  0.1114068E+00
         21   -1    0    0  502  501  0.00000000000E+00  0.00000000000E+00  0.15806734478E+04  0.15806734478E+04  0.00000000000E+00 0. -1.
         21   -1    0    0  501  502 -0.00000000000E+00 -0.00000000000E+00 -0.39160158478E+02  0.39160158478E+02  0.00000000000E+00 0. -1.
         25    1    1    2    0    0 -0.17321192688E+03  0.12565694678E+03  0.84225450232E+03  0.87795767926E+03  0.12500000000E+03 0.  0.
         25    1    1    2    0    0  0.17321192688E+03 -0.12565694678E+03  0.69925878695E+03  0.74187592697E+03  0.12500000000E+03 0.  0.
</event>
<event>
 4    0  0.2259196E-002  0.1983266E+03  0.7546771E-02  0.1151159E+00
         21   -1    0    0  502  501  0.00000000000E+00  0.00000000000E+00  0.80469052344E+02  0.80469052344E+02  0.00000000000E+00 0.  1.
         21   -1    0    0  501  502 -0.00000000000E+00 -0.00000000000E+00 -0.48880218600E+03  0.48880218600E+03  0.00000000000E+00 0.  1.
         25    1    1    2    0    0 -0.89956517449E+02  0.12432530733E+03 -0.22229153126E+03  0.29763649296E+03  0.12500000000E+03 0.  0.
         25    1    1    2    0    0  0.89956517449E+02 -0.12432530733E+03 -0.18604160240E+03  0.27163474538E+03  0.12500000000E+03 0.  0.
</event>
<event>
 4    0  0.2259196E-002  0.2502805E+03  0.7546771E-02  0.1113128E+00
         21   -1    0    0  502  501  0.00000000000E+00  0.00000000000E+00  0.18605323972E+03  0.18605323972E+03  0.00000000000E+00 0. -1.
         21   -1    0    0  501  502 -0.00000000000E+00 -0.00000000000E+00 -0.33667972141E+03  0.33667972141E+03  0.00000000000E+00 0. -1.
         25    1    1    2    0    0 -0.19117359118E+03 -0.65547110626E+02 -0.15735240525E+03  0.28500621943E+03  0.12500000000E+03 0.  0.
         25    1    1    2    0    0  0.19117359118E+03  0.65547110626E+02  0.67259235627E+01  0.23772674171E+03  0.12500000000E+03 0.  0.
</event>
<event>
 4    0  0.2259196E-002  0.1650791E+03  0.7546771E-02  0.1183079E+00
         21   -1    0    0  502  501  0.00000000000E+00  0.00000000000E+00  0.21251602198E+04  0.21251602198E+04  0.00000000000E+00 0. -1.
         21   -1    0    0  501  502 -0.00000000000E+00 -0.00000000000E+00 -0.12823082112E+02  0.12823082112E+02  0.00000000000E+00 0. -1.
         25    1    1    2    0    0  0.66505883144E+02 -0.73609738753E+01  0.50864666720E+03  0.52803754458E+03  0.12500000000E+03 0.  0.
         25    1    1    2    0    0 -0.66505883144E+02  0.73609738753E+01  0.16036904705E+04  0.16099457574E+04  0.12500000000E+03 0.  0.
</event>
<event>
 4    0  0.2259196E-002  0.1671996E+03  0.7546771E-02  0.1180800E+00
         21   -1    0    0  502  501  0.00000000000E+00  0.00000000000E+00  0.75983269165E+03  0.75983269165E+03  0.00000000000E+00 0.  1.
         21   -1    0    0  501  502 -0.00000000000E+00 -0.00000000000E+00 -0.36791922175E+02  0.36791922175E+02  0.00000000000E+00 0.  1.
         25    1    1    2    0    0 -0.83679101380E+02  0.21601339951E+02  0.19541209656E+03  0.24754736391E+03  0.12500000000E+03 0.  0.
         25    1    1    2    0    0  0.83679101380E+02 -0.21601339951E+02  0.52762867292E+03  0.54907724992E+03  0.12500000000E+03 0.  0.
</event>
<event>
 4    0  0.2259196E-002  0.2050101E+03  0.7546771E-02  0.1145580E+00
         21   -1    0    0  502  501  0.00000000000E+00  0.00000000000E+00  0.30489279702E+03  0.30489279702E+03  0.00000000000E+00 0. -1.
         21   -1    0    0  501  502 -0.00000000000E+00 -0.00000000000E+00 -0.13784888730E+03  0.13784888730E+03  0.00000000000E+00 0. -1.
         25    1    1    2    0    0 -0.24400421080E+02  0.15217936383E+03  0.27933577891E+02  0.20039766490E+03  0.12500000000E+03 0.  0.
         25    1    1    2    0    0  0.24400421080E+02 -0.15217936383E+03  0.13911033183E+03  0.24234401942E+03  0.12500000000E+03 0.  0.
</event>
<event>
 4    0  0.2259196E-002  0.1990176E+03  0.7546771E-02  0.1150570E+00
         21   -1    0    0  502  501  0.00000000000E+00  0.00000000000E+00  0.36550520242E+02  0.36550520242E+02  0.00000000000E+00 0. -1.
         21   -1    0    0  501  502 -0.00000000000E+00 -0.00000000000E+00 -0.10836514299E+04  0.10836514299E+04  0.00000000000E+00 0. -1.
         25    1    1    2    0    0  0.23472007985E+02 -0.10255766674E+03 -0.84337026319E+03  0.85905029597E+03  0.12500000000E+03 0.  0.
         25    1    1    2    0    0 -0.23472007985E+02  0.10255766674E+03 -0.20373064644E+03  0.26115165415E+03  0.12500000000E+03 0.  0.
</event>
<event>
 4    0  0.2259196E-002  0.2757934E+03  0.7546771E-02  0.1098009E+00
         21   -1    0    0  502  501  0.00000000000E+00  0.00000000000E+00  0.53785668041E+02  0.53785668041E+02  0.00000000000E+00 0.  1.
         21   -1    0    0  501  502 -0.00000000000E+00 -0.00000000000E+00 -0.14141682740E+04  0.14141682740E+04  0.00000000000E+00 0.  1.
         25    1    1    2    0    0 -0.15112567948E+03  0.14655065677E+03 -0.10180954392E+04  0.10471195679E+04  0.12500000000E+03 0.  0.
         25    1    1    2    0    0  0.15112567948E+03 -0.14655065677E+03 -0.34228716677E+03  0.42083437423E+03  0.12500000000E+03 0.  0.
</event>
<event>
 4    0  0.2259196E-002  0.2415987E+03  0.7546771E-02  0.1118732E+00
         21   -1    0    0  502  501  0.00000000000E+00  0.00000000000E+00  0.10757357676E+03  0.10757357676E+03  0.00000000000E+00 0.  1.
         21   -1    0    0  501  502 -0.00000000000E+00 -0.00000000000E+00 -0.54260453292E+03  0.54260453292E+03  0.00000000000E+00 0.  1.
         25    1    1    2    0    0  0.11286049600E+02 -0.26437546816E+02 -0.49300886340E+03  0.50942031584E+03  0.12500000000E+03 0.  0.
         25    1    1    2    0    0 -0.11286049600E+02  0.26437546816E+02  0.57977907247E+02  0.14075779384E+03  0.12500000000E+03 0.  0.
</event>
<event>
 4    0  0.2259196E-002  0.2362553E+03  0.7546771E-02  0.1122313E+00
         21   -1    0    0  502  501  0.00000000000E+00  0.00000000000E+00  0.13973827255E+04  0.13973827255E+04  0.00000000000E+00 0. -1.
         21   -1    0    0  501  502 -0.00000000000E+00 -0.00000000000E+00 -0.39943635549E+02  0.39943635549E+02  0.00000000000E+00 0. -1.
         25    1    1    2    0    0  0.14675365920E+03 -0.13535024787E+03  0.62302546672E+03  0.66606460518E+03  0.12500000000E+03 0.  0.
         25    1    1    2    0    0 -0.14675365920E+03  0.13535024787E+03  0.73441362324E+03  0.77126175589E+03  0.12500000000E+03 0.  0.
</event>
<event>
 4    0  0.2259196E-002  0.2881736E+03  0.7546771E-02  0.1091307E+00
         21   -1    0    0  502  501  0.00000000000E+00  0.00000000000E+00  0.34123773148E+02  0.34123773148E+02  0.00000000000E+00 0. -1.
         21   -1    0    0  501  502 -0.00000000000E+00 -0.00000000000E+00 -0.24336117375E+04  0.24336117375E+04  0.00000000000E+00 0. -1.
         25    1    1    2    0    0  0.16987261232E+03  0.19635735421E+03 -0.11891690978E+04  0.12235853293E+04  0.12500000000E+03 0.  0.
         25    1    1    2    0    0 -0.16987261232E+03 -0.19635735421E+03 -0.12103188666E+04  0.12441501813E+04  0.12500000000E+03 0.  0.
</event>
<event>
 4    0  0.2259196E-002  0.1883860E+03  0.7546771E-02  0.1159925E+00
         21   -1    0    0  502  501  0.00000000000E+00  0.00000000000E+00  0.21901155064E+03  0.21901155064E+03  0.00000000000E+00 0.  1.
         21   -1    0    0  501  502 -0.00000000000E+00 -0.00000000000E+00 -0.16204301043E+03  0.16204301043E+03  0.00000000000E+00 0.  1.
         25    1    1    2    0    0 -0.13178283222E+03 -0.32175020799E+01 -0.21954668513E+02  0.18298654229E+03  0.12500000000E+03 0.  0.
         25    1    1    2    0    0  0.13178283222E+03  0.32175020799E+01  0.78923208730E+02  0.19806801878E+03  0.12500000000E+03 0.  0.
</event>
<event>
 4    0  0.2259196E-002  0.2417014E+03  0.7546771E-02  0.1118665E+00
         21   -1    0    0  502  501  0.00000000000E+00  0.00000000000E+00  0.81498119855E+03  0.81498119855E+03  0.00000000000E+00 0.  1.
         21   -1    0    0  501  502 -0.00000000000E+00 -0.00000000000E+00 -0.71682128594E+02  0.71682128594E+02  0.00000000000E+00 0.  1.
         25    1    1    2    0    0  0.31894975106E+02  0.19915067302E+03  0.45602940476E+03  0.51406818420E+03  0.12500000000E+03 0.  0.
         25    1    1    2    0    0 -0.31894975106E+02 -0.19915067302E+03  0.28726966519E+03  0.37259514294E+03  0.12500000000E+03 0.  0.
</event>
<event>
 4    0  0.2259196E-002  0.1840260E+03  0.7546771E-02  0.1163963E+00
         21   -1    0    0  502  501  0.00000000000E+00  0.00000000000E+00  0.80358097387E+03  0.80358097387E+03  0.00000000000E+00 0.  1.
         21   -1    0    0  501  502 -0.00000000000E+00 -0.00000000000E+00 -0.42143339424E+02  0.42143339424E+02  0.00000000000E+00 0.  1.
         25    1    1    2    0    0 -0.11945379951E+03  0.62697743882E+02  0.39531840069E+03  0.43600671466E+03  0.12500000000E+03 0.  0.
         25    1    1    2    0    0  0.11945379951E+03 -0.62697743882E+02  0.36611923376E+03  0.40971759863E+03  0.12500000000E+03 0.  0.
</event>
<event>
 4    0  0.2259196E-002  0.3663935E+03  0.7546771E-02  0.1056081E+00
         21   -1    0    0  502  501  0.00000000000E+00  0.00000000000E+00  0.15239389627E+03  0.15239389627E+03  0.00000000000E+00 0.  1.
         21   -1    0    0  501  502 -0.00000000000E+00 -0.00000000000E+00 -0.88090287096E+03  0.88090287096E+03  0.00000000000E+00 0.  1.
         25    1    1    2    0    0 -0.20255022985E+03  0.15861594475E+03 -0.68714266508E+03  0.74429540890E+03  0.12500000000E+03 0.  0.
         25    1    1    2    0    0  0.20255022985E+03 -0.15861594475E+03 -0.41366309611E+02  0.28900135832E+03  0.12500000000E+03 0.  0.
</event>
<event>
 4    0  0.2259196E-002  0.2538324E+03  0.7546771E-02  0.1110906E+00
         21   -1    0    0  502  501  0.00000000000E+00  0.00000000000E+00  0.13966589691E+04  0.13966589691E+04  0.00000000000E+00 0.  1.
         21   -1    0    0  501  502 -0.00000000000E+00 -0.00000000000E+00 -0.46132170875E+02  0.46132170875E+02  0.00000000000E+00 0.  1.
         25    1    1    2    0    0 -0.15889228609E+02 -0.13932810677E+03  0.11604172322E+04  0.11755245390E+04  0.12500000000E+03 0.  0.
         25    1    1    2    0    0  0.15889228609E+02  0.13932810677E+03  0.19010956603E+03  0.26726660102E+03  0.12500000000E+03 0.  0.
</event>
<event>
 4    0  0.2259196E-002  0.1600523E+03  0.7546771E-02  0.1188638E+00
         21   -1    0    0  502  501  0.00000000000E+00  0.00000000000E+00  0.80632028824E+03  0.80632028824E+03  0.00000000000E+00 0. -1.
         21   -1    0    0  501  502 -0.00000000000E+00 -0.00000000000E+00 -0.31769914460E+02  0.31769914460E+02  0.00000000000E+00 0. -1.
         25    1    1    2    0    0  0.24426495176E+02 -0.96204048637E+01  0.63979721859E+03  0.65242216913E+03  0.12500000000E+03 0.  0.
         25    1    1    2    0    0 -0.24426495176E+02  0.96204048637E+01  0.13475315519E+03  0.18566803357E+03  0.12500000000E+03 0.  0.
</event>
<event>
 4    0  0.2259196E-002  0.3311809E+03  0.7546771E-02  0.1070616E+00
         21   -1    0    0  502  501  0.00000000000E+00  0.00000000000E+00  0.89159857106E+03  0.89159857106E+03  0.00000000000E+00 0. -1.
         21   -1    0    0  501  502 -0.00000000000E+00 -0.00000000000E+00 -0.12301590737E+03  0.12301590737E+03  0.00000000000E+00 0. -1.
         25    1    1    2    0    0 -0.61254430399E+02 -0.30049011958E+03  0.37959737453E+03  0.50375151013E+03  0.12500000000E+03 0.  0.
         25    1    1    2    0    0  0.61254430399E+02  0.30049011958E+03  0.38898528916E+03  0.51086296831E+03  0.12500000000E+03 0.  0.
</event>
<event>
 4    0  0.2259196E-002  0.5001380E+03  0.7546771E-02  0.1013743E+00
         21   -1    0    0  502  501  0.00000000000E+00  0.00000000000E+00  0.81037275689E+03  0.81037275689E+03  0.00000000000E+00 0.  1.
         21   -1    0    0  501  502 -0.00000000000E+00 -0.00000000000E+00 -0.30867033780E+03  0.30867033780E+03  0.00000000000E+00 0.  1.
         25    1    1    2    0    0 -0.16910101043E+03 -0.34749046438E+03 -0.75635745494E+02  0.41314711733E+03  0.12500000000E+03 0.  0.
         25    1    1    2    0    0  0.16910101043E+03  0.34749046438E+03  0.57733816459E+03  0.70589597736E+03  0.12500000000E+03 0.  0.
</event>
<event>
 4    0  0.2259196E-002  0.2209848E+03  0.7546771E-02  0.1133151E+00
         21   -1    0    0  502  501  0.00000000000E+00  0.00000000000E+00  0.36627232874E+03  0.36627232874E+03  0.00000000000E+00 0. -1.
         21   -1    0    0  501  502 -0.00000000000E+00 -0.00000000000E+00 -0.13332776634E+03  0.13332776634E+03  0.00000000000E+00 0. -1.
         25    1    1    2    0    0  0.14400289873E+03 -0.23642928936E+02 -0.69088951482E+01  0.19227208784E+03  0.12500000000E+03 0.  0.
         25    1    1    2    0    0 -0.14400289873E+03  0.23642928936E+02  0.23985345755E+03  0.30732800723E+03  0.12500000000E+03 0.  0.
</event>
<event>
 4    0  0.2259196E-002  0.2991005E+03  0.7546771E-02  0.1085691E+00
         21   -1    0    0  502  501  0.00000000000E+00  0.00000000000E+00  0.32082725528E+03  0.32082725528E+03  0.00000000000E+00 0. -1.
         21   -1    0    0  501  502 -0.00000000000E+00 -0.00000000000E+00 -0.27884515888E+03  0.27884515888E+03  0.00000000000E+00 0. -1.
         25    1    1    2    0    0  0.11603999348E+03 -0.89778443423E+01 -0.22515361162E+03  0.28260401732E+03  0.12500000000E+03 0.  0.
         25    1    1    2    0    0 -0.11603999348E+03  0.89778443423E+01  0.26713570803E+03  0.31706839685E+03  0.12500000000E+03 0.  0.
</event>
<event>
 4    0  0.2259196E-002  0.2252689E+03  0.7546771E-02  0.1130015E+00
         21   -1    0    0  502  501  0.00000000000E+00  0.00000000000E+00  0.97585531147E+02  0.97585531147E+02  0.00000000000E+00 0. -1.
         21   -1    0    0  501  502 -0.00000000000E+00 -0.00000000000E+00 -0.52001631722E+03  0.52001631722E+03  0.00000000000E+00 0. -1.
         25    1    1    2    0    0  0.28937207124E+02 -0.18328048260E+03 -0.24727503581E+03  0.33346520147E+03  0.12500000000E+03 0.  0.
         25    1    1    2    0    0 -0.28937207124E+02  0.18328048260E+03 -0.17515575026E+03  0.28413664689E+03  0.12500000000E+03 0.  0.
</event>
<event>
 4    0  0.2259196E-002  0.1858723E+03  0.7546771E-02  0.1162238E+00
         21   -1    0    0  502  501  0.00000000000E+00  0.00000000000E+00  0.52998050709E+02  0.52998050709E+02  0.00000000000E+00 0. -1.
         21   -1    0    0  501  502 -0.00000000000E+00 -0.00000000000E+00 -0.65188262247E+03  0.65188262247E+03  0.00000000000E+00 0. -1.
         25    1    1    2    0    0 -0.18030709371E+02  0.12859842930E+03 -0.38552059037E+03  0.42557465632E+03  0.12500000000E+03 0.  0.
         25    1    1    2    0    0  0.18030709371E+02 -0.12859842930E+03 -0.21336398139E+03  0.27930601686E+03  0.12500000000E+03 0.  0.
</event>
<event>
 4    0  0.2259196E-002  0.2732563E+03  0.7546771E-02  0.1099430E+00
         21   -1    0    0  502  501  0.00000000000E+00  0.00000000000E+00  0.12464165903E+03  0.12464165903E+03  0.00000000000E+00 0. -1.
         21   -1    0    0  501  502 -0.00000000000E+00 -0.00000000000E+00 -0.59906930094E+03  0.59906930094E+03  0.00000000000E+00 0. -1.
         25    1    1    2    0    0 -0.23974937137E+03 -0.16179625122E+02 -0.28500476115E+03  0.39318475965E+03  0.12500000000E+03 0.  0.
         25    1    1    2    0    0  0.23974937137E+03  0.16179625122E+02 -0.18942288077E+03  0.33052620032E+03  0.12500000000E+03 0.  0.
</event>
<event>
 4    0  0.2259196E-002  0.2236181E+03  0.7546771E-02  0.1131214E+00
         21   -1    0    0  502  501  0.00000000000E+00  0.00000000000E+00  0.74978495273E+02  0.74978495273E+02  0.00000000000E+00 0.  1.
         21   -1    0    0  501  502 -0.00000000000E+00 -0.00000000000E+00 -0.66692538821E+03  0.66692538821E+03  0.00000000000E+00 0.  1.
         25    1    1    2    0    0 -0.46643369494E+02 -0.17899415333E+03 -0.31731749802E+03  0.38798183642E+03  0.12500000000E+03 0.  0.
         25    1    1    2    0    0  0.46643369494E+02  0.17899415333E+03 -0.27462939492E+03  0.35392204707E+03  0.12500000000E+03 0.  0.
</event>
<event>
 4    0  0.2259196E-002  0.2595589E+03  0.7546771E-02  0.1107409E+00
         21   -1    0    0  502  501  0.00000000000E+00  0.00000000000E+00  0.12907527388E+03  0.12907527388E+03  0.00000000000E+00 0.  1.
         21   -1    0    0  501  502 -0.00000000000E+00 -0.00000000000E+00 -0.52194974966E+03  0.52194974966E+03  0.00000000000E+00 0.  1.
         25    1    1    2    0    0 -0.20091660929E+03 -0.95864107123E+02 -0.25510435732E+03  0.36091639481E+03  0.12500000000E+03 0.  0.
         25    1    1    2    0    0  0.20091660929E+03  0.95864107123E+02 -0.13777011846E+03  0.29010862873E+03  0.12500000000E+03 0.  0.
</event>
<event>
 4    0  0.2259196E-002  0.2224342E+03  0.7546771E-02  0.1132081E+00
         21   -1    0    0  502  501  0.00000000000E+00  0.00000000000E+00  0.58367215889E+03  0.58367215889E+03  0.00000000000E+00 0. -1.
         21   -1    0    0  501  502 -0.00000000000E+00 -0.00000000000E+00 -0.84768409812E+02  0.84768409812E+02  0.00000000000E+00 0. -1.
         25    1    1    2    0    0 -0.92627277554E+02  0.10979552614E+03  0.42219438689E+03  0.46315005174E+03  0.12500000000E+03 0.  0.
         25    1    1    2    0    0  0.92627277554E+02 -0.10979552614E+03  0.76709362189E+02  0.20529051696E+03  0.12500000000E+03 0.  0.
</event>
<event>
 4    0  0.2259196E-002  0.1984160E+03  0.7546771E-02  0.1151082E+00
         21   -1    0    0  502  501  0.00000000000E+00  0.00000000000E+00  0.97491960654E+02  0.97491960654E+02  0.00000000000E+00 0.  1.
         21   -1    0    0  501  502 -0.00000000000E+00 -0.00000000000E+00 -0.40381718135E+03  0.40381718135E+03  0.00000000000E+00 0.  1.
         25    1    1    2    0    0 -0.10492981288E+03  0.85990095074E+02 -0.60853683223E+02  0.19424915146E+03  0.12500000000E+03 0.  0.
         25    1    1    2    0    0  0.10492981288E+03 -0.85990095074E+02 -0.24547153747E+03  0.30705999054E+03  0.12500000000E+03 0.  0.
</event>
<event>
 4    0  0.2259196E-002  0.2929626E+03  0.7546771E-02  0.1088812E+00
         21   -1    0    0  502  501  0.00000000000E+00  0.00000000000E+00  0.14738282704E+03  0.14738282704E+03  0.00000000000E+00 0. -1.
         21   -1    0    0  501  502 -0.00000000000E+00 -0.00000000000E+00 -0.58234122876E+03  0.58234122876E+03  0.00000000000E+00 0.  1.
         25    1    1    2    0    0  0.36817035973E+02 -0.25906853240E+03 -0.16567657114E+03  0.33398461767E+03  0.12500000000E+03 0.  0.
         25    1    1    2    0    0 -0.36817035973E+02  0.25906853240E+03 -0.26928183058E+03  0.39573943813E+03  0.12500000000E+03 0.  0.
</event>
<event>
 4    0  0.2259196E-002  0.2378890E+03  0.7546771E-02  0.1121207E+00
         21   -1    0    0  502  501  0.00000000000E+00  0.00000000000E+00  0.83607563465E+02  0.83607563465E+02  0.00000000000E+00 0.  1.
         21   -1    0    0  501  502 -0.00000000000E+00 -0.00000000000E+00 -0.67686678023E+03  0.67686678023E+03  0.00000000000E+00 0.  1.
         25    1    1    2    0    0  0.74776401273E+02 -0.11230488129E+03 -0.55479132727E+02  0.19211150594E+03  0.12500000000E+03 0.  0.
         25    1    1    2    0    0 -0.74776401273E+02  0.11230488129E+03 -0.53778008404E+03  0.56836283775E+03  0.12500000000E+03 0.  0.
</event>
<event>
 4    0  0.2259196E-002  0.1745408E+03  0.7546771E-02  0.1173194E+00
         21   -1    0    0  502  501  0.00000000000E+00  0.00000000000E+00  0.16538927334E+03  0.16538927334E+03  0.00000000000E+00 0. -1.
         21   -1    0    0  501  502 -0.00000000000E+00 -0.00000000000E+00 -0.18419875933E+03  0.18419875933E+03  0.00000000000E+00 0. -1.
         25    1    1    2    0    0 -0.17098740948E+02  0.77228482520E+02 -0.10218304149E+03  0.17978592665E+03  0.12500000000E+03 0.  0.
         25    1    1    2    0    0  0.17098740948E+02 -0.77228482520E+02  0.83373555496E+02  0.16980210602E+03  0.12500000000E+03 0.  0.
</event>
<event>
 4    0  0.2259196E-002  0.2936166E+03  0.7546771E-02  0.1088476E+00
         21   -1    0    0  502  501  0.00000000000E+00  0.00000000000E+00  0.44162393658E+03  0.44162393658E+03  0.00000000000E+00 0. -1.
         21   -1    0    0  501  502 -0.00000000000E+00 -0.00000000000E+00 -0.19521298570E+03  0.19521298570E+03  0.00000000000E+00 0. -1.
         25    1    1    2    0    0 -0.46001284913E+02 -0.10201787680E+03 -0.13810898182E+03  0.21730820569E+03  0.12500000000E+03 0.  0.
         25    1    1    2    0    0  0.46001284913E+02  0.10201787680E+03  0.38451993270E+03  0.41952871659E+03  0.12500000000E+03 0.  0.
</event>
<event>
 4    0  0.2259196E-002  0.1500707E+03  0.7546771E-02  0.1200386E+00
         21   -1    0    0  502  501  0.00000000000E+00  0.00000000000E+00  0.67951862575E+02  0.67951862575E+02  0.00000000000E+00 0. -1.
         21   -1    0    0  501  502 -0.00000000000E+00 -0.00000000000E+00 -0.33142906082E+03  0.33142906082E+03  0.00000000000E+00 0. -1.
         25    1    1    2    0    0 -0.37133101658E+02 -0.46020529587E+02 -0.20932161743E+03  0.25087306732E+03  0.12500000000E+03 0.  0.
         25    1    1    2    0    0  0.37133101658E+02  0.46020529587E+02 -0.54155580810E+02  0.14850785607E+03  0.12500000000E+03 0.  0.
</event>
<event>
 4    0  0.2259196E-002  0.1625646E+03  0.7546771E-02  0.1185831E+00
         21   -1    0    0  502  501  0.00000000000E+00  0.00000000000E+00  0.32775666949E+03  0.32775666949E+03  0.00000000000E+00 0.  1.
         21   -1    0    0  501  502 -0.00000000000E+00 -0.00000000000E+00 -0.80630709248E+02  0.80630709248E+02  0.00000000000E+00 0.  1.
         25    1    1    2    0    0 -0.86004152863E+02 -0.52185110581E+02  0.90754287749E+02  0.18434028540E+03  0.12500000000E+03 0.  0.
         25    1    1    2    0    0  0.86004152863E+02  0.52185110581E+02  0.15637167249E+03  0.22404709334E+03  0.12500000000E+03 0.  0.
</event>
<event>
 4    0  0.2259196E-002  0.2387115E+03  0.7546771E-02  0.1120654E+00
         21   -1    0    0  502  501  0.00000000000E+00  0.00000000000E+00  0.23995574434E+03  0.23995574434E+03  0.00000000000E+00 0. -1.
         21   -1    0    0  501  502 -0.00000000000E+00 -0.00000000000E+00 -0.23747372862E+03  0.23747372862E+03  0.00000000000E+00 0. -1.
         25    1    1    2    0    0 -0.17438378697E+03 -0.10097418058E+03  0.28676666267E+02  0.23885736642E+03  0.12500000000E+03 0.  0.
         25    1    1    2    0    0  0.17438378697E+03  0.10097418058E+03 -0.26194650540E+02  0.23857210654E+03  0.12500000000E+03 0.  0.
</event>
<event>
 4    0  0.2259196E-002  0.2116110E+03  0.7546771E-02  0.1140297E+00
         21   -1    0    0  502  501  0.00000000000E+00  0.00000000000E+00  0.52945581468E+02  0.52945581468E+02  0.00000000000E+00 0.  1.
         21   -1    0    0  501  502 -0.00000000000E+00 -0.00000000000E+00 -0.84575887363E+03  0.84575887363E+03  0.00000000000E+00 0.  1.
         25    1    1    2    0    0 -0.27453141490E+02  0.12571468848E+03 -0.15808093364E+03  0.23910758971E+03  0.12500000000E+03 0.  0.
         25    1    1    2    0    0  0.27453141490E+02 -0.12571468848E+03 -0.63473235852E+03  0.65959686539E+03  0.12500000000E+03 0.  0.
</event>
<event>
 4    0  0.2259196E-002  0.3197744E+03  0.7546771E-02  0.1075753E+00
         21   -1    0    0  502  501  0.00000000000E+00  0.00000000000E+00  0.49366709723E+03  0.49366709723E+03  0.00000000000E+00 0. -1.
         21   -1    0    0  501  502 -0.00000000000E+00 -0.00000000000E+00 -0.20713481522E+03  0.20713481522E+03  0.00000000000E+00 0. -1.
         25    1    1    2    0    0 -0.38720782951E+02 -0.29080560343E+03  0.16927656225E+03  0.36103566658E+03  0.12500000000E+03 0.  0.
         25    1    1    2    0    0  0.38720782951E+02  0.29080560343E+03  0.11725571975E+03  0.33976624587E+03  0.12500000000E+03 0.  0.
</event>
<event>
 4    0  0.2259196E-002  0.3184963E+03  0.7546771E-02  0.1076343E+00
         21   -1    0    0  502  501  0.00000000000E+00  0.00000000000E+00  0.21620493572E+04  0.21620493572E+04  0.00000000000E+00 0. -1.
         21   -1    0    0  501  502 -0.00000000000E+00 -0.00000000000E+00 -0.46918406073E+02  0.46918406073E+02  0.00000000000E+00 0. -1.
         25    1    1    2    0    0  0.67075573065E+02  0.21030366342E+03  0.38972533412E+03  0.46501354755E+03  0.12500000000E+03 0.  0.
         25    1    1    2    0    0 -0.67075573065E+02 -0.21030366342E+03  0.17254056170E+04  0.17439542158E+04  0.12500000000E+03 0.  0.
</event>
<event>
 4    0  0.2259196E-002  0.1771438E+03  0.7546771E-02  0.1170596E+00
         21   -1    0    0  502  501  0.00000000000E+00  0.00000000000E+00  0.59942618677E+03  0.59942618677E+03  0.00000000000E+00 0. -1.
         21   -1    0    0  501  502 -0.00000000000E+00 -0.00000000000E+00 -0.52349957095E+02  0.52349957095E+02  0.00000000000E+00 0. -1.
         25    1    1    2    0    0  0.11249506160E+03  0.53268376834E+02  0.24374458428E+03  0.30088050987E+03  0.12500000000E+03 0.  0.
         25    1    1    2    0    0 -0.11249506160E+03 -0.53268376834E+02  0.30333164539E+03  0.35089563399E+03  0.12500000000E+03 0.  0.
</event>
<event>
 4    0  0.2259196E-002  0.2188114E+03  0.7546771E-02  0.1134772E+00
         21   -1    0    0  502  501  0.00000000000E+00  0.00000000000E+00  0.42002709590E+02  0.42002709590E+02  0.00000000000E+00 0. -1.
         21   -1    0    0  501  502 -0.00000000000E+00 -0.00000000000E+00 -0.11398894302E+04  0.11398894302E+04  0.00000000000E+00 0. -1.
         25    1    1    2    0    0  0.16564770220E+03  0.50274477867E+02 -0.67809150053E+03  0.71091473994E+03  0.12500000000E+03 0.  0.
         25    1    1    2    0    0 -0.16564770220E+03 -0.50274477867E+02 -0.41979522010E+03  0.47097739988E+03  0.12500000000E+03 0.  0.
</event>
<event>
 4    0  0.2259196E-002  0.1903664E+03  0.7546771E-02  0.1158131E+00
         21   -1    0    0  502  501  0.00000000000E+00  0.00000000000E+00  0.25187132409E+03  0.25187132409E+03  0.00000000000E+00 0. -1.
         21   -1    0    0  501  502 -0.00000000000E+00 -0.00000000000E+00 -0.14388050784E+03  0.14388050784E+03  0.00000000000E+00 0. -1.
         25    1    1    2    0    0 -0.29105286904E+02  0.49843206144E+02 -0.82655034433E+02  0.16058741433E+03  0.12500000000E+03 0.  0.
         25    1    1    2    0    0  0.29105286904E+02 -0.49843206144E+02  0.19064585068E+03  0.23516441760E+03  0.12500000000E+03 0.  0.
</event>
<event>
 4    0  0.2259196E-002  0.1906084E+03  0.7546771E-02  0.1157914E+00
         21   -1    0    0  502  501  0.00000000000E+00  0.00000000000E+00  0.11095795641E+03  0.11095795641E+03  0.00000000000E+00 0. -1.
         21   -1    0    0  501  502 -0.00000000000E+00 -0.00000000000E+00 -0.32743552424E+03  0.32743552424E+03  0.00000000000E+00 0. -1.
         25    1    1    2    0    0  0.12275211119E+03 -0.64292530228E+02 -0.15285116141E+03  0.24122621704E+03  0.12500000000E+03 0.  0.
         25    1    1    2    0    0 -0.12275211119E+03  0.64292530228E+02 -0.63626406421E+02  0.19716726361E+03  0.12500000000E+03 0.  0.
</event>
<event>
 4    0  0.2259196E-002  0.1870189E+03  0.7546771E-02  0.1161178E+00
         21   -1    0    0  502  501  0.00000000000E+00  0.00000000000E+00  0.75373516343E+02  0.75373516343E+02  0.00000000000E+00 0. -1.
         21   -1    0    0  501  502 -0.00000000000E+00 -0.00000000000E+00 -0.46403673688E+03  0.46403673688E+03  0.00000000000E+00 0. -1.
         25    1    1    2    0    0 -0.33865197469E+01 -0.18527555194E+02  0.44327972186E+01  0.12648868925E+03  0.12500000000E+03 0.  0.
         25    1    1    2    0    0  0.33865197469E+01  0.18527555194E+02 -0.39309601775E+03  0.41292156397E+03  0.12500000000E+03 0.  0.
</event>
<event>
 4    0  0.2259196E-002  0.2672781E+03  0.7546771E-02  0.1102848E+00
         21   -1    0    0  502  501  0.00000000000E+00  0.00000000000E+00  0.11660100341E+03  0.11660100341E+03  0.00000000000E+00 0.  1.
         21   -1    0    0  501  502 -0.00000000000E+00 -0.00000000000E+00 -0.61266678939E+03  0.61266678939E+03  0.00000000000E+00 0.  1.
         25    1    1    2    0    0  0.13335337026E+03  0.17696799850E+03 -0.35979953696E+03  0.44066030074E+03  0.12500000000E+03 0.  0.
         25    1    1    2    0    0 -0.13335337026E+03 -0.17696799850E+03 -0.13626624902E+03  0.28860749206E+03  0.12500000000E+03 0.  0.
</event>
<event>
 4    0  0.2259196E-002  0.1945656E+03  0.7546771E-02  0.1154407E+00
         21   -1    0    0  502  501  0.00000000000E+00  0.00000000000E+00  0.90558042770E+03  0.90558042770E+03  0.00000000000E+00 0.  1.
         21   -1    0    0  501  502 -0.00000000000E+00 -0.00000000000E+00 -0.41802759696E+02  0.41802759696E+02  0.00000000000E+00 0.  1.
         25    1    1    2    0    0 -0.78814377520E+02 -0.12579553995E+03  0.46584595211E+03  0.50465203366E+03  0.12500000000E+03 0.  0.
         25    1    1    2    0    0  0.78814377520E+02  0.12579553995E+03  0.39793171589E+03  0.44273115374E+03  0.12500000000E+03 0.  0.
</event>
<event>
 4    0  0.2259196E-002  0.2273208E+03  0.7546771E-02  0.1128540E+00
         21   -1    0    0  502  501  0.00000000000E+00  0.00000000000E+00  0.71119567513E+02  0.71119567513E+02  0.00000000000E+00 0. -1.
         21   -1    0    0  501  502 -0.00000000000E+00 -0.00000000000E+00 -0.72658944571E+03  0.72658944571E+03  0.00000000000E+00 0. -1.
         25    1    1    2    0    0  0.32861713491E+02 -0.12832733262E+03 -0.89072578693E+02  0.20274792425E+03  0.12500000000E+03 0.  0.
         25    1    1    2    0    0 -0.32861713491E+02  0.12832733262E+03 -0.56639729951E+03  0.59496108898E+03  0.12500000000E+03 0.  0.
</event>
<event>
 4    0  0.2259196E-002  0.1654831E+03  0.7546771E-02  0.1182642E+00
         21   -1    0    0  502  501  0.00000000000E+00  0.00000000000E+00  0.16673845903E+03  0.16673845903E+03  0.00000000000E+00 0. -1.
         21   -1    0    0  501  502 -0.00000000000E+00 -0.00000000000E+00 -0.16423716587E+03  0.16423716587E+03  0.00000000000E+00 0. -1.
         25    1    1    2    0    0  0.54882713067E+02  0.73352893604E+02 -0.56775942696E+02  0.16504928616E+03  0.12500000000E+03 0.  0.
         25    1    1    2    0    0 -0.54882713067E+02 -0.73352893604E+02  0.59277235855E+02  0.16592633873E+03  0.12500000000E+03 0.  0.
</event>
<event>
 4    0  0.2259196E-002  0.1542975E+03  0.7546771E-02  0.1195290E+00
         21   -1    0    0  502  501  0.00000000000E+00  0.00000000000E+00  0.11949968056E+02  0.11949968056E+02  0.00000000000E+00 0.  1.
         21   -1    0    0  501  502 -0.00000000000E+00 -0.00000000000E+00 -0.19922832501E+04  0.19922832501E+04  0.00000000000E+00 0.  1.
         25    1    1    2    0    0  0.71487262722E+01 -0.65115935409E+02 -0.58501309746E+03  0.60179441135E+03  0.12500000000E+03 0.  0.
         25    1    1    2    0    0 -0.71487262722E+01  0.65115935409E+02 -0.13953201846E+04  0.14024388069E+04  0.12500000000E+03 0.  0.
</event>
<event>
 4    0  0.2259196E-002  0.2306984E+03  0.7546771E-02  0.1126149E+00
         21   -1    0    0  502  501  0.00000000000E+00  0.00000000000E+00  0.10429524157E+04  0.10429524157E+04  0.00000000000E+00 0.  1.
         21   -1    0    0  501  502 -0.00000000000E+00 -0.00000000000E+00 -0.51029872625E+02  0.51029872625E+02  0.00000000000E+00 0.  1.
         25    1    1    2    0    0  0.14198844668E+03  0.12760732642E+03  0.57644974602E+03  0.61997069159E+03  0.12500000000E+03 0.  0.
         25    1    1    2    0    0 -0.14198844668E+03 -0.12760732642E+03  0.41547279705E+03  0.47401159673E+03  0.12500000000E+03 0.  0.
</event>
<event>
 4    0  0.2259196E-002  0.1853804E+03  0.7546771E-02  0.1162695E+00
         21   -1    0    0  502  501  0.00000000000E+00  0.00000000000E+00  0.36822844323E+02  0.36822844323E+02  0.00000000000E+00 0. -1.
         21   -1    0    0  501  502 -0.00000000000E+00 -0.00000000000E+00 -0.93327613802E+03  0.93327613802E+03  0.00000000000E+00 0. -1.
         25    1    1    2    0    0 -0.84522172822E+02 -0.10584212494E+03 -0.50018454468E+03  0.53306297175E+03  0.12500000000E+03 0.  0.
         25    1    1    2    0    0  0.84522172822E+02  0.10584212494E+03 -0.39626874902E+03  0.43703601060E+03  0.12500000000E+03 0.  0.
</event>
<event>
 4    0  0.2259196E-002  0.1916970E+03  0.7546771E-02  0.1156940E+00
         21   -1    0    0  502  501  0.00000000000E+00  0.00000000000E+00  0.11367864618E+03  0.11367864618E+03  0.00000000000E+00 0.  1.
         21   -1    0    0  501  502 -0.00000000000E+00 -0.00000000000E+00 -0.32325982258E+03  0.32325982258E+03  0.00000000000E+00 0.  1.
         25    1    1    2    0    0  0.17837493910E+02 -0.66295705517E+02  0.41199000459E+02  0.14844411203E+03  0.12500000000E+03 0.  0.
         25    1    1    2    0    0 -0.17837493910E+02  0.66295705517E+02 -0.25078017685E+03  0.28849435672E+03  0.12500000000E+03 0.  0.
</event>
<event>
 4    0  0.2259196E-002  0.2894441E+03  0.7546771E-02  0.1090640E+00
         21   -1    0    0  502  501  0.00000000000E+00  0.00000000000E+00  0.11106437077E+03  0.11106437077E+03  0.00000000000E+00 0.  1.
         21   -1    0    0  501  502 -0.00000000000E+00 -0.00000000000E+00 -0.75431813201E+03  0.75431813201E+03  0.00000000000E+00 0.  1.
         25    1    1    2    0    0 -0.13154523537E+03  0.18682898793E+03 -0.13286803055E+03  0.29238353788E+03  0.12500000000E+03 0.  0.
         25    1    1    2    0    0  0.13154523537E+03 -0.18682898793E+03 -0.51038573069E+03  0.57299896490E+03  0.12500000000E+03 0.  0.
</event>
<event>
 4    0  0.2259196E-002  0.3103180E+03  0.7546771E-02  0.1080194E+00
         21   -1    0    0  502  501  0.00000000000E+00  0.00000000000E+00  0.51818495588E+02  0.51818495588E+02  0.00000000000E+00 0. -1.
         21   -1    0    0  501  502 -0.00000000000E+00 -0.00000000000E+00 -0.18583568993E+04  0.18583568993E+04  0.00000000000E+00 0. -1.
         25    1    1    2    0    0 -0.24427144963E+03  0.11432376833E+03 -0.62912646783E+03  0.69581863846E+03  0.12500000000E+03 0.  0.
         25    1    1    2    0    0  0.24427144963E+03 -0.11432376833E+03 -0.11774119359E+04  0.12143567564E+04  0.12500000000E+03 0.  0.
</event>
<event>
 4    0  0.2259196E-002  0.2048954E+03  0.7546771E-02  0.1145673E+00
         21   -1    0    0  502  501  0.00000000000E+00  0.00000000000E+00  0.74864934838E+02  0.74864934838E+02  0.00000000000E+00 0.  1.
         21   -1    0    0  501  502 -0.00000000000E+00 -0.00000000000E+00 -0.56077133556E+03  0.56077133556E+03  0.00000000000E+00 0.  1.
         25    1    1    2    0    0 -0.17942981208E+02  0.15955605407E+03 -0.28021327190E+03  0.34630126006E+03  0.12500000000E+03 0.  0.
         25    1    1    2    0    0  0.17942981208E+02 -0.15955605407E+03 -0.20569312882E+03  0.28933501034E+03  0.12500000000E+03 0.  0.
</event>
<event>
 4    0  0.2259196E-002  0.2698492E+03  0.7546771E-02  0.1101366E+00
         21   -1    0    0  502  501  0.00000000000E+00  0.00000000000E+00  0.23945859379E+03  0.23945859379E+03  0.00000000000E+00 0.  1.
         21   -1    0    0  501  502 -0.00000000000E+00 -0.00000000000E+00 -0.30409671499E+03  0.30409671499E+03  0.00000000000E+00 0.  1.
         25    1    1    2    0    0 -0.72233806436E+01 -0.14948870514E+03 -0.22018502332E+03  0.29411816449E+03  0.12500000000E+03 0.  0.
         25    1    1    2    0    0  0.72233806436E+01  0.14948870514E+03  0.15554690212E+03  0.24943714429E+03  0.12500000000E+03 0.  0.
</event>
<event>
 4    0  0.2259196E-002  0.2037431E+03  0.7546771E-02  0.1146619E+00
         21   -1    0    0  502  501  0.00000000000E+00  0.00000000000E+00  0.11065953750E+03  0.11065953750E+03  0.00000000000E+00 0. -1.
         21   -1    0    0  501  502 -0.00000000000E+00 -0.00000000000E+00 -0.37512568784E+03  0.37512568784E+03  0.00000000000E+00 0.  1.
         25    1    1    2    0    0 -0.11296004164E+03 -0.98976520264E+02 -0.20102665233E+03  0.28034449793E+03  0.12500000000E+03 0.  0.
         25    1    1    2    0    0  0.11296004164E+03  0.98976520264E+02 -0.63439498012E+02  0.20544072741E+03  0.12500000000E+03 0.  0.
</event>
<event>
 4    0  0.2259196E-002  0.1695601E+03  0.7546771E-02  0.1178307E+00
         21   -1    0    0  502  501  0.00000000000E+00  0.00000000000E+00  0.35889476216E+02  0.35889476216E+02  0.00000000000E+00 0.  1.
         21   -1    0    0  501  502 -0.00000000000E+00 -0.00000000000E+00 -0.80108753016E+03  0.80108753016E+03  0.00000000000E+00 0.  1.
         25    1    1    2    0    0 -0.57428858156E+02 -0.94544207206E+02 -0.30901322789E+03  0.35121340504E+03  0.12500000000E+03 0.  0.
         25    1    1    2    0    0  0.57428858156E+02  0.94544207206E+02 -0.45618482605E+03  0.48576360134E+03  0.12500000000E+03 0.  0.
</event>
<event>
 4    0  0.2259196E-002  0.1576669E+03  0.7546771E-02  0.1191356E+00
         21   -1    0    0  502  501  0.00000000000E+00  0.00000000000E+00  0.16885243176E+03  0.16885243176E+03  0.00000000000E+00 0. -1.
         21   -1    0    0  501  502 -0.00000000000E+00 -0.00000000000E+00 -0.14722241972E+03  0.14722241972E+03  0.00000000000E+00 0. -1.
         25    1    1    2    0    0 -0.92682378410E+02  0.60494893843E+01 -0.13885219827E+02  0.15634711036E+03  0.12500000000E+03 0.  0.
         25    1    1    2    0    0  0.92682378410E+02 -0.60494893843E+01  0.35515231868E+02  0.15972774112E+03  0.12500000000E+03 0.  0.
</event>
<event>
 4    0  0.2259196E-002  0.1748609E+03  0.7546771E-02  0.1172871E+00
         21   -1    0    0  502  501  0.00000000000E+00  0.00000000000E+00  0.70929098674E+02  0.70929098674E+02  0.00000000000E+00 0. -1.
         21   -1    0    0  501  502 -0.00000000000E+00 -0.00000000000E+00 -0.43108319981E+03  0.43108319981E+03  0.00000000000E+00 0. -1.
         25    1    1    2    0    0 -0.31855613317E+02  0.76039522736E+02 -0.30970292232E+03  0.34400245524E+03  0.12500000000E+03 0.  0.
         25    1    1    2    0    0  0.31855613317E+02 -0.76039522736E+02 -0.50451178815E+02  0.15800984324E+03  0.12500000000E+03 0.  0.
</event>
<event>
 4    0  0.2259196E-002  0.2021079E+03  0.7546771E-02  0.1147973E+00
         21   -1    0    0  502  501  0.00000000000E+00  0.00000000000E+00  0.47392251775E+03  0.47392251775E+03  0.00000000000E+00 0.  1.
         21   -1    0    0  501  502 -0.00000000000E+00 -0.00000000000E+00 -0.86190504099E+02  0.86190504099E+02  0.00000000000E+00 0.  1.
         25    1    1    2    0    0 -0.10899439280E+03 -0.97206981584E+02  0.28033103972E+03  0.33991096888E+03  0.12500000000E+03 0.  0.
         25    1    1    2    0    0  0.10899439280E+03  0.97206981584E+02  0.10740097393E+03  0.22020205297E+03  0.12500000000E+03 0.  0.
</event>
<event>
 4    0  0.2259196E-002  0.3421119E+03  0.7546771E-02  0.1065900E+00
         21   -1    0    0  502  501  0.00000000000E+00  0.00000000000E+00  0.79030272275E+02  0.79030272275E+02  0.00000000000E+00 0. -1.
         21   -1    0    0  501  502 -0.00000000000E+00 -0.00000000000E+00 -0.14809586480E+04  0.14809586480E+04  0.00000000000E+00 0. -1.
         25    1    1    2    0    0 -0.51665351360E+02 -0.21004032914E+03 -0.12338525032E+04  0.12588896886E+04  0.12500000000E+03 0.  0.
         25    1    1    2    0    0  0.51665351360E+02  0.21004032914E+03 -0.16807587253E+03  0.30109923168E+03  0.12500000000E+03 0.  0.
</event>
<event>
 4    0  0.2259196E-002  0.1811022E+03  0.7546771E-02  0.1166741E+00
         21   -1    0    0  502  501  0.00000000000E+00  0.00000000000E+00  0.14446712637E+03  0.14446712637E+03  0.00000000000E+00 0. -1.
         21   -1    0    0  501  502 -0.00000000000E+00 -0.00000000000E+00 -0.22702750410E+03  0.22702750410E+03  0.00000000000E+00 0. -1.
         25    1    1    2    0    0 -0.84018723081E+02 -0.15053181267E+02  0.60704957283E+02  0.16308229804E+03  0.12500000000E+03 0.  0.
         25    1    1    2    0    0  0.84018723081E+02  0.15053181267E+02 -0.14326533502E+03  0.20841233244E+03  0.12500000000E+03 0.  0.
</event>
<event>
 4    0  0.2259196E-002  0.1476472E+03  0.7546771E-02  0.1203394E+00
         21   -1    0    0  502  501  0.00000000000E+00  0.00000000000E+00  0.36567783041E+03  0.36567783041E+03  0.00000000000E+00 0. -1.
         21   -1    0    0  501  502 -0.00000000000E+00 -0.00000000000E+00 -0.59614491555E+02  0.59614491555E+02  0.00000000000E+00 0. -1.
         25    1    1    2    0    0 -0.16212935170E+02  0.76668205460E+02  0.16140794214E+03  0.21867417951E+03  0.12500000000E+03 0.  0.
         25    1    1    2    0    0  0.16212935170E+02 -0.76668205460E+02  0.14465539671E+03  0.20661814245E+03  0.12500000000E+03 0.  0.
</event>
<event>
 4    0  0.2259196E-002  0.2169184E+03  0.7546771E-02  0.1136202E+00
         21   -1    0    0  502  501  0.00000000000E+00  0.00000000000E+00  0.12241077232E+04  0.12241077232E+04  0.00000000000E+00 0. -1.
         21   -1    0    0  501  502 -0.00000000000E+00 -0.00000000000E+00 -0.38439089994E+02  0.38439089994E+02  0.00000000000E+00 0. -1.
         25    1    1    2    0    0 -0.13260638969E+02  0.13992276875E+03  0.27839438793E+03  0.33598014970E+03  0.12500000000E+03 0.  0.
         25    1    1    2    0    0  0.13260638969E+02 -0.13992276875E+03  0.90727424525E+03  0.92656666347E+03  0.12500000000E+03 0.  0.
</event>
<event>
 4    0  0.2259196E-002  0.5682292E+03  0.7546771E-02  0.9973605E-01
         21   -1    0    0  502  501  0.00000000000E+00  0.00000000000E+00  0.77712196653E+03  0.77712196653E+03  0.00000000000E+00 0. -1.
         21   -1    0    0  501  502 -0.00000000000E+00 -0.00000000000E+00 -0.41548746975E+03  0.41548746975E+03  0.00000000000E+00 0. -1.
         25    1    1    2    0    0  0.54090716900E+03  0.59728676314E+02  0.70198616335E+02  0.56276187325E+03  0.12500000000E+03 0.  0.
         25    1    1    2    0    0 -0.54090716900E+03 -0.59728676314E+02  0.29143588044E+03  0.62984756303E+03  0.12500000000E+03 0.  0.
</event>
<event>
 4    0  0.2259196E-002  0.1910507E+03  0.7546771E-02  0.1157517E+00
         21   -1    0    0  502  501  0.00000000000E+00  0.00000000000E+00  0.73900896479E+02  0.73900896479E+02  0.00000000000E+00 0.  1.
         21   -1    0    0  501  502 -0.00000000000E+00 -0.00000000000E+00 -0.49390964941E+03  0.49390964941E+03  0.00000000000E+00 0.  1.
         25    1    1    2    0    0 -0.53387647713E+01  0.14292632007E+03 -0.17958881512E+03  0.26140692013E+03  0.12500000000E+03 0.  0.
         25    1    1    2    0    0  0.53387647713E+01 -0.14292632007E+03 -0.24041993781E+03  0.30640362575E+03  0.12500000000E+03 0.  0.
</event>
<event>
 4    0  0.2259196E-002  0.2088896E+03  0.7546771E-02  0.1142448E+00
         21   -1    0    0  502  501  0.00000000000E+00  0.00000000000E+00  0.11966917508E+03  0.11966917508E+03  0.00000000000E+00 0. -1.
         21   -1    0    0  501  502 -0.00000000000E+00 -0.00000000000E+00 -0.36462916989E+03  0.36462916989E+03  0.00000000000E+00 0. -1.
         25    1    1    2    0    0  0.59402633278E+01 -0.10931171676E+03  0.24268069401E+02  0.16792342702E+03  0.12500000000E+03 0.  0.
         25    1    1    2    0    0 -0.59402633278E+01  0.10931171676E+03 -0.26922806421E+03  0.31637491795E+03  0.12500000000E+03 0.  0.
</event>
<event>
 4    0  0.2259196E-002  0.1809987E+03  0.7546771E-02  0.1166840E+00
         21   -1    0    0  502  501  0.00000000000E+00  0.00000000000E+00  0.24802523221E+03  0.24802523221E+03  0.00000000000E+00 0.  1.
         21   -1    0    0  501  502 -0.00000000000E+00 -0.00000000000E+00 -0.13208552291E+03  0.13208552291E+03  0.00000000000E+00 0.  1.
         25    1    1    2    0    0 -0.10969076276E+03 -0.48345385231E+02  0.11319624102E+03  0.20690028683E+03  0.12500000000E+03 0.  0.
         25    1    1    2    0    0  0.10969076276E+03  0.48345385231E+02  0.27434682715E+01  0.17321046829E+03  0.12500000000E+03 0.  0.
</event>
<event>
 4    0  0.2259196E-002  0.1930310E+03  0.7546771E-02  0.1155756E+00
         21   -1    0    0  502  501  0.00000000000E+00  0.00000000000E+00  0.12125403740E+03  0.12125403740E+03  0.00000000000E+00 0. -1.
         21   -1    0    0  501  502 -0.00000000000E+00 -0.00000000000E+00 -0.30729659147E+03  0.30729659147E+03  0.00000000000E+00 0. -1.
         25    1    1    2    0    0  0.11041701777E+03 -0.60280520303E+02 -0.17763566142E+03  0.25100814160E+03  0.12500000000E+03 0.  0.
         25    1    1    2    0    0 -0.11041701777E+03  0.60280520303E+02 -0.84068926524E+01  0.17754248727E+03  0.12500000000E+03 0.  0.
</event>
<event>
 4    0  0.2259196E-002  0.1619096E+03  0.7546771E-02  0.1186558E+00
         21   -1    0    0  502  501  0.00000000000E+00  0.00000000000E+00  0.84039515716E+01  0.84039515716E+01  0.00000000000E+00 0. -1.
         21   -1    0    0  501  502 -0.00000000000E+00 -0.00000000000E+00 -0.31193325171E+04  0.31193325171E+04  0.00000000000E+00 0. -1.
         25    1    1    2    0    0 -0.16107234361E+02 -0.69501027445E+01 -0.25348770704E+04  0.25380178307E+04  0.12500000000E+03 0.  0.
         25    1    1    2    0    0  0.16107234361E+02  0.69501027445E+01 -0.57605149509E+03  0.58971863793E+03  0.12500000000E+03 0.  0.
</event>
<event>
 4    0  0.2259196E-002  0.2785488E+03  0.7546771E-02  0.1096484E+00
         21   -1    0    0  502  501  0.00000000000E+00  0.00000000000E+00  0.29391567482E+02  0.29391567482E+02  0.00000000000E+00 0.  1.
         21   -1    0    0  501  502 -0.00000000000E+00 -0.00000000000E+00 -0.26398527729E+04  0.26398527729E+04  0.00000000000E+00 0.  1.
         25    1    1    2    0    0 -0.84373808902E+02  0.23201017104E+03 -0.11524512775E+04  0.11852074106E+04  0.12500000000E+03 0.  0.
         25    1    1    2    0    0  0.84373808902E+02 -0.23201017104E+03 -0.14580099279E+04  0.14840369297E+04  0.12500000000E+03 0.  0.
</event>
<event>
 4    0  0.2259196E-002  0.2346381E+03  0.7546771E-02  0.1123417E+00
         21   -1    0    0  502  501  0.00000000000E+00  0.00000000000E+00  0.38488988841E+02  0.38488988841E+02  0.00000000000E+00 0.  1.
         21   -1    0    0  501  502 -0.00000000000E+00 -0.00000000000E+00 -0.14304103636E+04  0.14304103636E+04  0.00000000000E+00 0.  1.
         25    1    1    2    0    0  0.45133744666E+02  0.19305474046E+03 -0.66126542803E+03  0.70157262919E+03  0.12500000000E+03 0.  0.
         25    1    1    2    0    0 -0.45133744666E+02 -0.19305474046E+03 -0.73065594672E+03  0.76732672324E+03  0.12500000000E+03 0.  0.
</event>
<event>
 4    0  0.2259196E-002  0.1857288E+03  0.7546771E-02  0.1162371E+00
         21   -1    0    0  502  501  0.00000000000E+00  0.00000000000E+00  0.46651398547E+03  0.46651398547E+03  0.00000000000E+00 0.  1.
         21   -1    0    0  501  502 -0.00000000000E+00 -0.00000000000E+00 -0.73942421754E+02  0.73942421754E+02  0.00000000000E+00 0.  1.
         25    1    1    2    0    0 -0.52075974405E+02  0.59081019480E+02  0.36004297589E+03  0.38917659033E+03  0.12500000000E+03 0.  0.
         25    1    1    2    0    0  0.52075974405E+02 -0.59081019480E+02  0.32528587823E+02  0.15127981689E+03  0.12500000000E+03 0.  0.
</event>
<event>
 4    0  0.2259196E-002  0.1723734E+03  0.7546771E-02  0.1175395E+00
         21   -1    0    0  502  501  0.00000000000E+00  0.00000000000E+00  0.61181060198E+02  0.61181060198E+02  0.00000000000E+00 0. -1.
         21   -1    0    0  501  502 -0.00000000000E+00 -0.00000000000E+00 -0.48565009350E+03  0.48565009350E+03  0.00000000000E+00 0. -1.
         25    1    1    2    0    0 -0.97699016581E+02 -0.65217851323E+02 -0.18526374885E+03  0.25247994497E+03  0.12500000000E+03 0.  0.
         25    1    1    2    0    0  0.97699016581E+02  0.65217851323E+02 -0.23920528445E+03  0.29435120873E+03  0.12500000000E+03 0.  0.
</event>
<event>
 4    0  0.2259196E-002  0.2476499E+03  0.7546771E-02  0.1114799E+00
         21   -1    0    0  502  501  0.00000000000E+00  0.00000000000E+00  0.19981144014E+03  0.19981144014E+03  0.00000000000E+00 0.  1.
         21   -1    0    0  501  502 -0.00000000000E+00 -0.00000000000E+00 -0.30694186598E+03  0.30694186598E+03  0.00000000000E+00 0.  1.
         25    1    1    2    0    0 -0.14348220507E+03 -0.94972890033E+02  0.76248659590E+02  0.22593328905E+03  0.12500000000E+03 0.  0.
         25    1    1    2    0    0  0.14348220507E+03  0.94972890033E+02 -0.18337908542E+03  0.28082001707E+03  0.12500000000E+03 0.  0.
</event>
<event>
 4    0  0.2259196E-002  0.2382645E+03  0.7546771E-02  0.1120954E+00
         21   -1    0    0  502  501  0.00000000000E+00  0.00000000000E+00  0.38036671920E+03  0.38036671920E+03  0.00000000000E+00 0. -1.
         21   -1    0    0  501  502 -0.00000000000E+00 -0.00000000000E+00 -0.14925062051E+03  0.14925062051E+03  0.00000000000E+00 0. -1.
         25    1    1    2    0    0 -0.96314163246E+02  0.38377273893E+02  0.30932477541E+03  0.34936520988E+03  0.12500000000E+03 0.  0.
         25    1    1    2    0    0  0.96314163246E+02 -0.38377273893E+02 -0.78208676717E+02  0.18025212983E+03  0.12500000000E+03 0.  0.
</event>
<event>
 4    0  0.2259196E-002  0.2966168E+03  0.7546771E-02  0.1086944E+00
         21   -1    0    0  502  501  0.00000000000E+00  0.00000000000E+00  0.21648978487E+03  0.21648978487E+03  0.00000000000E+00 0. -1.
         21   -1    0    0  501  502 -0.00000000000E+00 -0.00000000000E+00 -0.40640035187E+03  0.40640035187E+03  0.00000000000E+00 0. -1.
         25    1    1    2    0    0  0.96935907263E+02  0.10088724755E+03  0.14627258362E+03  0.23789803604E+03  0.12500000000E+03 0.  0.
         25    1    1    2    0    0 -0.96935907263E+02 -0.10088724755E+03 -0.33618315062E+03  0.38499210070E+03  0.12500000000E+03 0.  0.
</event>
<event>
 4    0  0.2331895E-002  0.2417570E+03  0.7546771E-02  0.1118628E+00
         21   -1    0    0  502  501  0.00000000000E+00  0.00000000000E+00  0.38476132799E+03  0.38476132799E+03  0.00000000000E+00 0.  1.
         21   -1    0    0  501  502 -0.00000000000E+00 -0.00000000000E+00 -0.15190311246E+03  0.15190311246E+03  0.00000000000E+00 0.  1.
         25    1    1    2    0    0  0.23256053339E+02 -0.12790057642E+01  0.34465028731E+03  0.36735718370E+03  0.12500000000E+03 0.  0.
         25    1    1    2    0    0 -0.23256053339E+02  0.12790057642E+01 -0.11179207179E+03  0.16930725675E+03  0.12500000000E+03 0.  0.
</event>
<event>
 4    0  0.2259196E-002  0.2122657E+03  0.7546771E-02  0.1139784E+00
         21   -1    0    0  502  501  0.00000000000E+00  0.00000000000E+00  0.12716602526E+03  0.12716602526E+03  0.00000000000E+00 0. -1.
         21   -1    0    0  501  502 -0.00000000000E+00 -0.00000000000E+00 -0.35431435771E+03  0.35431435771E+03  0.00000000000E+00 0. -1.
         25    1    1    2    0    0  0.11066488637E+03 -0.12320519809E+03 -0.16436451134E+03  0.26470158764E+03  0.12500000000E+03 0.  0.
         25    1    1    2    0    0 -0.11066488637E+03  0.12320519809E+03 -0.62783821108E+02  0.21677879533E+03  0.12500000000E+03 0.  0.
</event>
<event>
 4    0  0.2259196E-002  0.1810929E+03  0.7546771E-02  0.1166749E+00
         21   -1    0    0  502  501  0.00000000000E+00  0.00000000000E+00  0.21991333220E+03  0.21991333220E+03  0.00000000000E+00 0. -1.
         21   -1    0    0  501  502 -0.00000000000E+00 -0.00000000000E+00 -0.14912531569E+03  0.14912531569E+03  0.00000000000E+00 0. -1.
         25    1    1    2    0    0 -0.98277156407E+02  0.57834548334E+01  0.12350441995E+03  0.20142042987E+03  0.12500000000E+03 0.  0.
         25    1    1    2    0    0  0.98277156407E+02 -0.57834548334E+01 -0.52716403446E+02  0.16761821802E+03  0.12500000000E+03 0.  0.
</event>
<event>
 4    0  0.2259196E-002  0.2279119E+03  0.7546771E-02  0.1128118E+00
         21   -1    0    0  502  501  0.00000000000E+00  0.00000000000E+00  0.75876650368E+02  0.75876650368E+02  0.00000000000E+00 0.  1.
         21   -1    0    0  501  502 -0.00000000000E+00 -0.00000000000E+00 -0.68458236297E+03  0.68458236297E+03  0.00000000000E+00 0.  1.
         25    1    1    2    0    0 -0.52710188854E+02 -0.10618670736E+03 -0.55416323795E+02  0.18096947193E+03  0.12500000000E+03 0.  0.
         25    1    1    2    0    0  0.52710188854E+02  0.10618670736E+03 -0.55328938881E+03  0.57948954141E+03  0.12500000000E+03 0.  0.
</event>
<event>
 4    0  0.2259196E-002  0.2688316E+03  0.7546771E-02  0.1101950E+00
         21   -1    0    0  502  501  0.00000000000E+00  0.00000000000E+00  0.38387135680E+03  0.38387135680E+03  0.00000000000E+00 0. -1.
         21   -1    0    0  501  502 -0.00000000000E+00 -0.00000000000E+00 -0.18826729178E+03  0.18826729178E+03  0.00000000000E+00 0. -1.
         25    1    1    2    0    0 -0.16172521196E+03  0.16983170967E+03  0.54609115601E+02  0.27130243143E+03  0.12500000000E+03 0.  0.
         25    1    1    2    0    0  0.16172521196E+03 -0.16983170967E+03  0.14099494942E+03  0.30083621716E+03  0.12500000000E+03 0.  0.
</event>
<event>
 4    0  0.2259196E-002  0.1806402E+03  0.7546771E-02  0.1167185E+00
         21   -1    0    0  502  501  0.00000000000E+00  0.00000000000E+00  0.11089961767E+03  0.11089961767E+03  0.00000000000E+00 0. -1.
         21   -1    0    0  501  502 -0.00000000000E+00 -0.00000000000E+00 -0.29423795915E+03  0.29423795915E+03  0.00000000000E+00 0. -1.
         25    1    1    2    0    0  0.35745452626E+02  0.68168008693E+02  0.26377236927E+02  0.14914882977E+03  0.12500000000E+03 0.  0.
         25    1    1    2    0    0 -0.35745452626E+02 -0.68168008693E+02 -0.20971557841E+03  0.25598874706E+03  0.12500000000E+03 0.  0.
</event>
<event>
 4    0  0.2259196E-002  0.2072124E+03  0.7546771E-02  0.1143793E+00
         21   -1    0    0  502  501  0.00000000000E+00  0.00000000000E+00  0.13968176699E+04  0.13968176699E+04  0.00000000000E+00 0.  1.
         21   -1    0    0  501  502 -0.00000000000E+00 -0.00000000000E+00 -0.30739135403E+02  0.30739135403E+02  0.00000000000E+00 0.  1.
         25    1    1    2    0    0  0.68016035661E+02 -0.14607708853E+03  0.55660199050E+03  0.59278619479E+03  0.12500000000E+03 0.  0.
         25    1    1    2    0    0 -0.68016035661E+02  0.14607708853E+03  0.80947654399E+03  0.83477061051E+03  0.12500000000E+03 0.  0.
</event>
<event>
 4    0  0.2259196E-002  0.2349353E+03  0.7546771E-02  0.1123213E+00
         21   -1    0    0  502  501  0.00000000000E+00  0.00000000000E+00  0.18282956014E+03  0.18282956014E+03  0.00000000000E+00 0. -1.
         21   -1    0    0  501  502 -0.00000000000E+00 -0.00000000000E+00 -0.30189106738E+03  0.30189106738E+03  0.00000000000E+00 0. -1.
         25    1    1    2    0    0 -0.34916664181E+02 -0.46284563535E+02  0.13676752717E+03  0.19414373734E+03  0.12500000000E+03 0.  0.
         25    1    1    2    0    0  0.34916664181E+02  0.46284563535E+02 -0.25582903441E+03  0.29057689018E+03  0.12500000000E+03 0.  0.
</event>
<event>
 4    0  0.2259196E-002  0.2055811E+03  0.7546771E-02  0.1145114E+00
         21   -1    0    0  502  501  0.00000000000E+00  0.00000000000E+00  0.53406753647E+03  0.53406753647E+03  0.00000000000E+00 0.  1.
         21   -1    0    0  501  502 -0.00000000000E+00 -0.00000000000E+00 -0.79135317157E+02  0.79135317157E+02  0.00000000000E+00 0.  1.
         25    1    1    2    0    0  0.52921743513E+02  0.11942967565E+03  0.81535054015E+02  0.19833588529E+03  0.12500000000E+03 0.  0.
         25    1    1    2    0    0 -0.52921743513E+02 -0.11942967565E+03  0.37339716529E+03  0.41486696833E+03  0.12500000000E+03 0.  0.
</event>
<event>
 4    0  0.2259196E-002  0.1770926E+03  0.7546771E-02  0.1170647E+00
         21   -1    0    0  502  501  0.00000000000E+00  0.00000000000E+00  0.34251507968E+02  0.34251507968E+02  0.00000000000E+00 0.  1.
         21   -1    0    0  501  502 -0.00000000000E+00 -0.00000000000E+00 -0.91563212416E+03  0.91563212416E+03  0.00000000000E+00 0.  1.
         25    1    1    2    0    0  0.10433505575E+03 -0.67526884778E+02 -0.39493316598E+03  0.43248455420E+03  0.12500000000E+03 0.  0.
         25    1    1    2    0    0 -0.10433505575E+03  0.67526884778E+02 -0.48644745021E+03  0.51739907793E+03  0.12500000000E+03 0.  0.
</event>
<event>
 4    0  0.2259196E-002  0.2383640E+03  0.7546771E-02  0.1120888E+00
         21   -1    0    0  502  501  0.00000000000E+00  0.00000000000E+00  0.51878820939E+03  0.51878820939E+03  0.00000000000E+00 0.  1.
         21   -1    0    0  501  502 -0.00000000000E+00 -0.00000000000E+00 -0.10951942335E+03  0.10951942335E+03  0.00000000000E+00 0.  1.
         25    1    1    2    0    0  0.12278038020E+03 -0.58333204549E+02  0.40326870643E+03  0.44354079192E+03  0.12500000000E+03 0.  0.
         25    1    1    2    0    0 -0.12278038020E+03  0.58333204549E+02  0.60000796119E+01  0.18476684083E+03  0.12500000000E+03 0.  0.
</event>
<event>
 4    0  0.2259196E-002  0.2296890E+03  0.7546771E-02  0.1126859E+00
         21   -1    0    0  502  501  0.00000000000E+00  0.00000000000E+00  0.10282574907E+03  0.10282574907E+03  0.00000000000E+00 0. -1.
         21   -1    0    0  501  502 -0.00000000000E+00 -0.00000000000E+00 -0.51307201484E+03  0.51307201484E+03  0.00000000000E+00 0. -1.
         25    1    1    2    0    0  0.11308152725E+03 -0.96554732876E+02 -0.36944638580E+03  0.41740373768E+03  0.12500000000E+03 0.  0.
         25    1    1    2    0    0 -0.11308152725E+03  0.96554732876E+02 -0.40799879972E+02  0.19849402624E+03  0.12500000000E+03 0.  0.
</event>
<event>
 4    0  0.2259196E-002  0.2191184E+03  0.7546771E-02  0.1134542E+00
         21   -1    0    0  502  501  0.00000000000E+00  0.00000000000E+00  0.54237914618E+02  0.54237914618E+02  0.00000000000E+00 0.  1.
         21   -1    0    0  501  502 -0.00000000000E+00 -0.00000000000E+00 -0.88522687161E+03  0.88522687161E+03  0.00000000000E+00 0.  1.
         25    1    1    2    0    0 -0.89677667870E+02 -0.15602926939E+03 -0.41377619559E+03  0.46821251271E+03  0.12500000000E+03 0.  0.
         25    1    1    2    0    0  0.89677667870E+02  0.15602926939E+03 -0.41721276140E+03  0.47125227352E+03  0.12500000000E+03 0.  0.
</event>
<event>
 4    0  0.2259196E-002  0.2649945E+03  0.7546771E-02  0.1104179E+00
         21   -1    0    0  502  501  0.00000000000E+00  0.00000000000E+00  0.31338367603E+03  0.31338367603E+03  0.00000000000E+00 0.  1.
         21   -1    0    0  501  502 -0.00000000000E+00 -0.00000000000E+00 -0.22407708852E+03  0.22407708852E+03  0.00000000000E+00 0.  1.
         25    1    1    2    0    0 -0.66622206649E+02 -0.21133800886E+03 -0.30518854401E+02  0.25623948346E+03  0.12500000000E+03 0.  0.
         25    1    1    2    0    0  0.66622206649E+02  0.21133800886E+03  0.11982544191E+03  0.28122128109E+03  0.12500000000E+03 0.  0.
</event>
<event>
 4    0  0.2259196E-002  0.1989299E+03  0.7546771E-02  0.1150645E+00
         21   -1    0    0  502  501  0.00000000000E+00  0.00000000000E+00  0.16381015285E+03  0.16381015285E+03  0.00000000000E+00 0. -1.
         21   -1    0    0  501  502 -0.00000000000E+00 -0.00000000000E+00 -0.24157912565E+03  0.24157912565E+03  0.00000000000E+00 0. -1.
         25    1    1    2    0    0  0.89888573713E+02 -0.88297893382E+02  0.52658070812E+02  0.18513331975E+03  0.12500000000E+03 0.  0.
         25    1    1    2    0    0 -0.89888573713E+02  0.88297893382E+02 -0.13042704361E+03  0.22025595875E+03  0.12500000000E+03 0.  0.
</event>
<event>
 4    0  0.2259196E-002  0.2989242E+03  0.7546771E-02  0.1085780E+00
         21   -1    0    0  502  501  0.00000000000E+00  0.00000000000E+00  0.64959221271E+02  0.64959221271E+02  0.00000000000E+00 0.  1.
         21   -1    0    0  501  502 -0.00000000000E+00 -0.00000000000E+00 -0.13755659969E+04  0.13755659969E+04  0.00000000000E+00 0.  1.
         25    1    1    2    0    0 -0.83321363775E+02 -0.98916961159E+02 -0.80020839012E+02  0.19686378423E+03  0.12500000000E+03 0.  0.
         25    1    1    2    0    0  0.83321363775E+02  0.98916961159E+02 -0.12305859366E+04  0.12436614339E+04  0.12500000000E+03 0.  0.
</event>
<event>
 4    0  0.2259196E-002  0.2130947E+03  0.7546771E-02  0.1139138E+00
         21   -1    0    0  502  501  0.00000000000E+00  0.00000000000E+00  0.18844090382E+02  0.18844090382E+02  0.00000000000E+00 0. -1.
         21   -1    0    0  501  502 -0.00000000000E+00 -0.00000000000E+00 -0.24097404460E+04  0.24097404460E+04  0.00000000000E+00 0. -1.
         25    1    1    2    0    0  0.16499306861E+03  0.28380602489E+02 -0.14342496137E+04  0.14493878452E+04  0.12500000000E+03 0.  0.
         25    1    1    2    0    0 -0.16499306861E+03 -0.28380602489E+02 -0.95664674189E+03  0.97919669120E+03  0.12500000000E+03 0.  0.
</event>
<event>
 4    0  0.2259196E-002  0.2170356E+03  0.7546771E-02  0.1136113E+00
         21   -1    0    0  502  501  0.00000000000E+00  0.00000000000E+00  0.71537554353E+02  0.71537554353E+02  0.00000000000E+00 0. -1.
         21   -1    0    0  501  502 -0.00000000000E+00 -0.00000000000E+00 -0.65845738110E+03  0.65845738110E+03  0.00000000000E+00 0. -1.
         25    1    1    2    0    0  0.15240707896E+03  0.50870569450E+02 -0.42002357210E+03  0.46675532527E+03  0.12500000000E+03 0.  0.
         25    1    1    2    0    0 -0.15240707896E+03 -0.50870569450E+02 -0.16689625465E+03  0.26323961018E+03  0.12500000000E+03 0.  0.
</event>
<event>
 4    0  0.2259196E-002  0.2937105E+03  0.7546771E-02  0.1088428E+00
         21   -1    0    0  502  501  0.00000000000E+00  0.00000000000E+00  0.14034966170E+04  0.14034966170E+04  0.00000000000E+00 0. -1.
         21   -1    0    0  501  502 -0.00000000000E+00 -0.00000000000E+00 -0.61464944089E+02  0.61464944089E+02  0.00000000000E+00 0. -1.
         25    1    1    2    0    0  0.87474172822E+02  0.19672526988E+03  0.10596806000E+04  0.10885313669E+04  0.12500000000E+03 0.  0.
         25    1    1    2    0    0 -0.87474172822E+02 -0.19672526988E+03  0.28235107293E+03  0.37643019420E+03  0.12500000000E+03 0.  0.
</event>
<event>
 4    0  0.2259196E-002  0.2211822E+03  0.7546771E-02  0.1133005E+00
         21   -1    0    0  502  501  0.00000000000E+00  0.00000000000E+00  0.19710710700E+03  0.19710710700E+03  0.00000000000E+00 0.  1.
         21   -1    0    0  501  502 -0.00000000000E+00 -0.00000000000E+00 -0.24819797392E+03  0.24819797392E+03  0.00000000000E+00 0.  1.
         25    1    1    2    0    0  0.79851569030E+02 -0.14631780992E+03  0.49186936997E+02  0.21407832526E+03  0.12500000000E+03 0.  0.
         25    1    1    2    0    0 -0.79851569030E+02  0.14631780992E+03 -0.10027780392E+03  0.23122675566E+03  0.12500000000E+03 0.  0.
</event>
<event>
 4    0  0.2259196E-002  0.2253033E+03  0.7546771E-02  0.1129990E+00
         21   -1    0    0  502  501  0.00000000000E+00  0.00000000000E+00  0.13430084062E+03  0.13430084062E+03  0.00000000000E+00 0. -1.
         21   -1    0    0  501  502 -0.00000000000E+00 -0.00000000000E+00 -0.37796921527E+03  0.37796921527E+03  0.00000000000E+00 0. -1.
         25    1    1    2    0    0  0.18530475705E+03  0.16638435306E+02 -0.14780538979E+03  0.26848859150E+03  0.12500000000E+03 0.  0.
         25    1    1    2    0    0 -0.18530475705E+03 -0.16638435306E+02 -0.95862984863E+02  0.24378146440E+03  0.12500000000E+03 0.  0.
</event>
<event>
 4    0  0.2259196E-002  0.1817957E+03  0.7546771E-02  0.1166076E+00
         21   -1    0    0  502  501  0.00000000000E+00  0.00000000000E+00  0.97241872984E+02  0.97241872984E+02  0.00000000000E+00 0. -1.
         21   -1    0    0  501  502 -0.00000000000E+00 -0.00000000000E+00 -0.33987071501E+03  0.33987071501E+03  0.00000000000E+00 0. -1.
         25    1    1    2    0    0  0.12680896589E+02  0.10131496277E+02  0.36175865369E+02  0.13113788770E+03  0.12500000000E+03 0.  0.
         25    1    1    2    0    0 -0.12680896589E+02 -0.10131496277E+02 -0.27880470740E+03  0.30597470030E+03  0.12500000000E+03 0.  0.
</event>
<event>
 4    0  0.2259196E-002  0.1830427E+03  0.7546771E-02  0.1164890E+00
         21   -1    0    0  502  501  0.00000000000E+00  0.00000000000E+00  0.14061457613E+03  0.14061457613E+03  0.00000000000E+00 0.  1.
         21   -1    0    0  501  502 -0.00000000000E+00 -0.00000000000E+00 -0.23827293515E+03  0.23827293515E+03  0.00000000000E+00 0.  1.
         25    1    1    2    0    0 -0.28815758046E+02 -0.50416327289E+02 -0.17348827272E+03  0.22157467080E+03  0.12500000000E+03 0.  0.
         25    1    1    2    0    0  0.28815758046E+02  0.50416327289E+02  0.75829913697E+02  0.15731284048E+03  0.12500000000E+03 0.  0.
</event>
<event>
 4    0  0.2259196E-002  0.1638030E+03  0.7546771E-02  0.1184469E+00
         21   -1    0    0  502  501  0.00000000000E+00  0.00000000000E+00  0.22895507305E+03  0.22895507305E+03  0.00000000000E+00 0.  1.
         21   -1    0    0  501  502 -0.00000000000E+00 -0.00000000000E+00 -0.11719084759E+03  0.11719084759E+03  0.00000000000E+00 0.  1.
         25    1    1    2    0    0 -0.32429439258E+02  0.20864722398E+02 -0.48284303848E+02  0.13943951796E+03  0.12500000000E+03 0.  0.
         25    1    1    2    0    0  0.32429439258E+02 -0.20864722398E+02  0.16004852932E+03  0.20670640268E+03  0.12500000000E+03 0.  0.
</event>
<event>
 4    0  0.2259196E-002  0.1526372E+03  0.7546771E-02  0.1197269E+00
         21   -1    0    0  502  501  0.00000000000E+00  0.00000000000E+00  0.43073830033E+03  0.43073830033E+03  0.00000000000E+00 0. -1.
         21   -1    0    0  501  502 -0.00000000000E+00 -0.00000000000E+00 -0.54088820617E+02  0.54088820617E+02  0.00000000000E+00 0. -1.
         25    1    1    2    0    0  0.41682546321E+02  0.68329752692E+02  0.24484961586E+03  0.28632625475E+03  0.12500000000E+03 0.  0.
         25    1    1    2    0    0 -0.41682546321E+02 -0.68329752692E+02  0.13179986386E+03  0.19850086620E+03  0.12500000000E+03 0.  0.
</event>
<event>
 4    0  0.2259196E-002  0.1563382E+03  0.7546771E-02  0.1192894E+00
         21   -1    0    0  502  501  0.00000000000E+00  0.00000000000E+00  0.12087722280E+03  0.12087722280E+03  0.00000000000E+00 0. -1.
         21   -1    0    0  501  502 -0.00000000000E+00 -0.00000000000E+00 -0.20220204420E+03  0.20220204420E+03  0.00000000000E+00 0. -1.
         25    1    1    2    0    0  0.38016702289E+02 -0.72779318049E+02  0.63998935982E+01  0.14969321102E+03  0.12500000000E+03 0.  0.
         25    1    1    2    0    0 -0.38016702289E+02  0.72779318049E+02 -0.87724714998E+02  0.17338605599E+03  0.12500000000E+03 0.  0.
</event>
<event>
 4    0  0.2259196E-002  0.3232727E+03  0.7546771E-02  0.1074153E+00
         21   -1    0    0  502  501  0.00000000000E+00  0.00000000000E+00  0.97048968654E+03  0.97048968654E+03  0.00000000000E+00 0. -1.
         21   -1    0    0  501  502 -0.00000000000E+00 -0.00000000000E+00 -0.10768299296E+03  0.10768299296E+03  0.00000000000E+00 0. -1.
         25    1    1    2    0    0 -0.11980456587E+03  0.11700826242E+03  0.84271425385E+03  0.86823751423E+03  0.12500000000E+03 0.  0.
         25    1    1    2    0    0  0.11980456587E+03 -0.11700826242E+03  0.20092439725E+02  0.20993516526E+03  0.12500000000E+03 0.  0.
</event>
<event>
 4    0  0.2259196E-002  0.1822317E+03  0.7546771E-02  0.1165661E+00
         21   -1    0    0  502  501  0.00000000000E+00  0.00000000000E+00  0.33004254065E+03  0.33004254065E+03  0.00000000000E+00 0. -1.
         21   -1    0    0  501  502 -0.00000000000E+00 -0.00000000000E+00 -0.10061848997E+03  0.10061848997E+03  0.00000000000E+00 0. -1.
         25    1    1    2    0    0  0.30206677038E+02  0.63817226742E+02 -0.17916731628E+02  0.14467581359E+03  0.12500000000E+03 0.  0.
         25    1    1    2    0    0 -0.30206677038E+02 -0.63817226742E+02  0.24734078230E+03  0.28598521703E+03  0.12500000000E+03 0.  0.
</event>
<event>
 4    0  0.2259196E-002  0.4271196E+03  0.7546771E-02  0.1034774E+00
         21   -1    0    0  502  501  0.00000000000E+00  0.00000000000E+00  0.43996409206E+03  0.43996409206E+03  0.00000000000E+00 0.  1.
         21   -1    0    0  501  502 -0.00000000000E+00 -0.00000000000E+00 -0.41465003047E+03  0.41465003047E+03  0.00000000000E+00 0.  1.
         25    1    1    2    0    0  0.29511546710E+03  0.77126469245E+02  0.28437244938E+03  0.43535539637E+03  0.12500000000E+03 0.  0.
         25    1    1    2    0    0 -0.29511546710E+03 -0.77126469245E+02 -0.25905838779E+03  0.41925872617E+03  0.12500000000E+03 0.  0.
</event>
<event>
 4    0  0.2259196E-002  0.2462810E+03  0.7546771E-02  0.1115678E+00
         21   -1    0    0  502  501  0.00000000000E+00  0.00000000000E+00  0.38993641069E+02  0.38993641069E+02  0.00000000000E+00 0.  1.
         21   -1    0    0  501  502 -0.00000000000E+00 -0.00000000000E+00 -0.15554929073E+04  0.15554929073E+04  0.00000000000E+00 0.  1.
         25    1    1    2    0    0  0.34356247760E+02 -0.12229157764E+02 -0.81547059703E+02  0.15363862472E+03  0.12500000000E+03 0.  0.
         25    1    1    2    0    0 -0.34356247760E+02  0.12229157764E+02 -0.14349522065E+04  0.14408479237E+04  0.12500000000E+03 0.  0.
</event>
<event>
 4    0  0.2259196E-002  0.2533311E+03  0.7546771E-02  0.1111218E+00
         21   -1    0    0  502  501  0.00000000000E+00  0.00000000000E+00  0.65513663233E+03  0.65513663233E+03  0.00000000000E+00 0. -1.
         21   -1    0    0  501  502 -0.00000000000E+00 -0.00000000000E+00 -0.97959181972E+02  0.97959181972E+02  0.00000000000E+00 0. -1.
         25    1    1    2    0    0  0.55917924358E+02  0.75030330156E+02  0.57510431002E+03  0.59592477051E+03  0.12500000000E+03 0.  0.
         25    1    1    2    0    0 -0.55917924358E+02 -0.75030330156E+02 -0.17926859663E+02  0.15717104379E+03  0.12500000000E+03 0.  0.
</event>
<event>
 4    0  0.2259196E-002  0.1837552E+03  0.7546771E-02  0.1164217E+00
         21   -1    0    0  502  501  0.00000000000E+00  0.00000000000E+00  0.10553893254E+04  0.10553893254E+04  0.00000000000E+00 0.  1.
         21   -1    0    0  501  502 -0.00000000000E+00 -0.00000000000E+00 -0.31993857660E+02  0.31993857660E+02  0.00000000000E+00 0.  1.
         25    1    1    2    0    0  0.21827919958E+02 -0.13251719068E+03  0.54182969058E+03  0.57205041518E+03  0.12500000000E+03 0.  0.
         25    1    1    2    0    0 -0.21827919958E+02  0.13251719068E+03  0.48156577716E+03  0.51533276788E+03  0.12500000000E+03 0.  0.
</event>
<event>
 4    0  0.2259196E-002  0.2314154E+03  0.7546771E-02  0.1125647E+00
         21   -1    0    0  502  501  0.00000000000E+00  0.00000000000E+00  0.34720608983E+02  0.34720608983E+02  0.00000000000E+00 0.  1.
         21   -1    0    0  501  502 -0.00000000000E+00 -0.00000000000E+00 -0.15424006775E+04  0.15424006775E+04  0.00000000000E+00 0.  1.
         25    1    1    2    0    0  0.15872067066E+03 -0.10480636284E+01 -0.11383768158E+04  0.11561661318E+04  0.12500000000E+03 0.  0.
         25    1    1    2    0    0 -0.15872067066E+03  0.10480636284E+01 -0.36930325274E+03  0.42095515464E+03  0.12500000000E+03 0.  0.
</event>
<event>
 4    0  0.2259196E-002  0.2201475E+03  0.7546771E-02  0.1133773E+00
         21   -1    0    0  502  501  0.00000000000E+00  0.00000000000E+00  0.42099973321E+03  0.42099973321E+03  0.00000000000E+00 0. -1.
         21   -1    0    0  501  502 -0.00000000000E+00 -0.00000000000E+00 -0.11511866748E+03  0.11511866748E+03  0.00000000000E+00 0. -1.
         25    1    1    2    0    0  0.32222249874E+01 -0.17783302397E+03  0.11067333545E+03  0.24394375238E+03  0.12500000000E+03 0.  0.
         25    1    1    2    0    0 -0.32222249874E+01  0.17783302397E+03  0.19520773028E+03  0.29217464830E+03  0.12500000000E+03 0.  0.
</event>
<event>
 4    0  0.2259196E-002  0.2397821E+03  0.7546771E-02  0.1119938E+00
         21   -1    0    0  502  501  0.00000000000E+00  0.00000000000E+00  0.48627313500E+03  0.48627313500E+03  0.00000000000E+00 0.  1.
         21   -1    0    0  501  502 -0.00000000000E+00 -0.00000000000E+00 -0.11823696017E+03  0.11823696017E+03  0.00000000000E+00 0.  1.
         25    1    1    2    0    0 -0.82938222867E+02  0.14862691086E+03  0.32719767413E+03  0.38942525008E+03  0.12500000000E+03 0.  0.
         25    1    1    2    0    0  0.82938222867E+02 -0.14862691086E+03  0.40838500704E+02  0.21508484508E+03  0.12500000000E+03 0.  0.
</event>
<event>
 4    0  0.2259196E-002  0.2445324E+03  0.7546771E-02  0.1116810E+00
         21   -1    0    0  502  501  0.00000000000E+00  0.00000000000E+00  0.32227805331E+03  0.32227805331E+03  0.00000000000E+00 0.  1.
         21   -1    0    0  501  502 -0.00000000000E+00 -0.00000000000E+00 -0.18554191411E+03  0.18554191411E+03  0.00000000000E+00 0.  1.
         25    1    1    2    0    0 -0.12732644353E+03 -0.73339951392E+02  0.22439817269E+03  0.29592281358E+03  0.12500000000E+03 0.  0.
         25    1    1    2    0    0  0.12732644353E+03  0.73339951392E+02 -0.87662033488E+02  0.21189715384E+03  0.12500000000E+03 0.  0.
</event>
<event>
 4    0  0.2259196E-002  0.1918866E+03  0.7546771E-02  0.1156771E+00
         21   -1    0    0  502  501  0.00000000000E+00  0.00000000000E+00  0.39188254516E+02  0.39188254516E+02  0.00000000000E+00 0. -1.
         21   -1    0    0  501  502 -0.00000000000E+00 -0.00000000000E+00 -0.93957879401E+03  0.93957879401E+03  0.00000000000E+00 0. -1.
         25    1    1    2    0    0  0.11680075372E+03 -0.42602553112E+02 -0.25700408861E+03  0.31166246993E+03  0.12500000000E+03 0.  0.
         25    1    1    2    0    0 -0.11680075372E+03  0.42602553112E+02 -0.64338645089E+03  0.66710457860E+03  0.12500000000E+03 0.  0.
</event>
<event>
 4    0  0.2259196E-002  0.2320179E+03  0.7546771E-02  0.1125227E+00
         21   -1    0    0  502  501  0.00000000000E+00  0.00000000000E+00  0.63514937491E+03  0.63514937491E+03  0.00000000000E+00 0.  1.
         21   -1    0    0  501  502 -0.00000000000E+00 -0.00000000000E+00 -0.84755343524E+02  0.84755343524E+02  0.00000000000E+00 0.  1.
         25    1    1    2    0    0 -0.28671138245E+02  0.86556103157E+02  0.69650404394E+01  0.15487900100E+03  0.12500000000E+03 0.  0.
         25    1    1    2    0    0  0.28671138245E+02 -0.86556103157E+02  0.54342899094E+03  0.56502571743E+03  0.12500000000E+03 0.  0.
</event>
<event>
 4    0  0.2259196E-002  0.2344692E+03  0.7546771E-02  0.1123533E+00
         21   -1    0    0  502  501  0.00000000000E+00  0.00000000000E+00  0.67593671584E+03  0.67593671584E+03  0.00000000000E+00 0. -1.
         21   -1    0    0  501  502 -0.00000000000E+00 -0.00000000000E+00 -0.81332750408E+02  0.81332750408E+02  0.00000000000E+00 0. -1.
         25    1    1    2    0    0 -0.43733481713E+02 -0.14681369212E+03  0.50082497243E+03  0.53843990438E+03  0.12500000000E+03 0.  0.
         25    1    1    2    0    0  0.43733481713E+02  0.14681369212E+03  0.93778992995E+02  0.21882956186E+03  0.12500000000E+03 0.  0.
</event>
<event>
 4    0  0.2259196E-002  0.1961836E+03  0.7546771E-02  0.1152999E+00
         21   -1    0    0  502  501  0.00000000000E+00  0.00000000000E+00  0.54262162566E+02  0.54262162566E+02  0.00000000000E+00 0. -1.
         21   -1    0    0  501  502 -0.00000000000E+00 -0.00000000000E+00 -0.70929706173E+03  0.70929706173E+03  0.00000000000E+00 0. -1.
         25    1    1    2    0    0 -0.80773231143E+02 -0.87361849217E+02 -0.50909996279E+03  0.53755388537E+03  0.12500000000E+03 0.  0.
         25    1    1    2    0    0  0.80773231143E+02  0.87361849217E+02 -0.14593493638E+03  0.22600533893E+03  0.12500000000E+03 0.  0.
</event>
<event>
 4    0  0.2259196E-002  0.2433070E+03  0.7546771E-02  0.1117609E+00
         21   -1    0    0  502  501  0.00000000000E+00  0.00000000000E+00  0.12093835386E+03  0.12093835386E+03  0.00000000000E+00 0. -1.
         21   -1    0    0  501  502 -0.00000000000E+00 -0.00000000000E+00 -0.48949163802E+03  0.48949163802E+03  0.00000000000E+00 0. -1.
         25    1    1    2    0    0 -0.11064549904E+03  0.11799507715E+03 -0.18765878055E+02  0.20528619746E+03  0.12500000000E+03 0.  0.
         25    1    1    2    0    0  0.11064549904E+03 -0.11799507715E+03 -0.34978740610E+03  0.40514379442E+03  0.12500000000E+03 0.  0.
</event>
<event>
 4    0  0.2259196E-002  0.2181543E+03  0.7546771E-02  0.1135267E+00
         21   -1    0    0  502  501  0.00000000000E+00  0.00000000000E+00  0.15570391091E+03  0.15570391091E+03  0.00000000000E+00 0.  1.
         21   -1    0    0  501  502 -0.00000000000E+00 -0.00000000000E+00 -0.30565253775E+03  0.30565253775E+03  0.00000000000E+00 0.  1.
         25    1    1    2    0    0 -0.20865163564E+02  0.63879375929E+02  0.10021874896E+03  0.17373752434E+03  0.12500000000E+03 0.  0.
         25    1    1    2    0    0  0.20865163564E+02 -0.63879375929E+02 -0.25016737579E+03  0.28761892433E+03  0.12500000000E+03 0.  0.
</event>
<event>
 4    0  0.2259196E-002  0.1551023E+03  0.7546771E-02  0.1194340E+00
         21   -1    0    0  502  501  0.00000000000E+00  0.00000000000E+00  0.45706561615E+03  0.45706561615E+03  0.00000000000E+00 0. -1.
         21   -1    0    0  501  502 -0.00000000000E+00 -0.00000000000E+00 -0.52633001139E+02  0.52633001139E+02  0.00000000000E+00 0. -1.
         25    1    1    2    0    0 -0.70254969772E+02  0.57429878889E+01  0.29890838391E+03  0.33157196000E+03  0.12500000000E+03 0.  0.
         25    1    1    2    0    0  0.70254969772E+02 -0.57429878889E+01  0.10552423111E+03  0.17812665729E+03  0.12500000000E+03 0.  0.
</event>
<event>
 4    0  0.2259196E-002  0.2241402E+03  0.7546771E-02  0.1130833E+00
         21   -1    0    0  502  501  0.00000000000E+00  0.00000000000E+00  0.74963447477E+02  0.74963447477E+02  0.00000000000E+00 0.  1.
         21   -1    0    0  501  502 -0.00000000000E+00 -0.00000000000E+00 -0.67017787686E+03  0.67017787686E+03  0.00000000000E+00 0.  1.
         25    1    1    2    0    0 -0.16460349310E+03 -0.19106901588E+01 -0.44171214885E+03  0.48768082094E+03  0.12500000000E+03 0.  0.
         25    1    1    2    0    0  0.16460349310E+03  0.19106901588E+01 -0.15350228053E+03  0.25746050339E+03  0.12500000000E+03 0.  0.
</event>
<event>
 4    0  0.2259196E-002  0.1844739E+03  0.7546771E-02  0.1163542E+00
         21   -1    0    0  502  501  0.00000000000E+00  0.00000000000E+00  0.27954216202E+03  0.27954216202E+03  0.00000000000E+00 0. -1.
         21   -1    0    0  501  502 -0.00000000000E+00 -0.00000000000E+00 -0.12173702612E+03  0.12173702612E+03  0.00000000000E+00 0. -1.
         25    1    1    2    0    0  0.77478243653E+02 -0.52199892372E+02  0.18589985122E+03  0.24271683437E+03  0.12500000000E+03 0.  0.
         25    1    1    2    0    0 -0.77478243653E+02  0.52199892372E+02 -0.28094715315E+02  0.15856235377E+03  0.12500000000E+03 0.  0.
</event>
<event>
 4    0  0.2259196E-002  0.2092469E+03  0.7546771E-02  0.1142164E+00
         21   -1    0    0  502  501  0.00000000000E+00  0.00000000000E+00  0.86289349617E+03  0.86289349617E+03  0.00000000000E+00 0.  1.
         21   -1    0    0  501  502 -0.00000000000E+00 -0.00000000000E+00 -0.50741208535E+02  0.50741208535E+02  0.00000000000E+00 0.  1.
         25    1    1    2    0    0  0.25838338111E+02  0.11337178045E+03  0.67021455483E+03  0.69161646151E+03  0.12500000000E+03 0.  0.
         25    1    1    2    0    0 -0.25838338111E+02 -0.11337178045E+03  0.14193773280E+03  0.22201824320E+03  0.12500000000E+03 0.  0.
</event>
<event>
 4    0  0.2259196E-002  0.2144058E+03  0.7546771E-02  0.1138124E+00
         21   -1    0    0  502  501  0.00000000000E+00  0.00000000000E+00  0.13284242723E+03  0.13284242723E+03  0.00000000000E+00 0. -1.
         21   -1    0    0  501  502 -0.00000000000E+00 -0.00000000000E+00 -0.34604790778E+03  0.34604790778E+03  0.00000000000E+00 0. -1.
         25    1    1    2    0    0 -0.92691624204E+02 -0.71408699597E+02  0.37518368798E+02  0.17528139540E+03  0.12500000000E+03 0.  0.
         25    1    1    2    0    0  0.92691624204E+02  0.71408699597E+02 -0.25072384935E+03  0.30360893960E+03  0.12500000000E+03 0.  0.
</event>
<event>
 4    0  0.2259196E-002  0.2160575E+03  0.7546771E-02  0.1136857E+00
         21   -1    0    0  502  501  0.00000000000E+00  0.00000000000E+00  0.11274470822E+04  0.11274470822E+04  0.00000000000E+00 0.  1.
         21   -1    0    0  501  502 -0.00000000000E+00 -0.00000000000E+00 -0.41404004864E+02  0.41404004864E+02  0.00000000000E+00 0.  1.
         25    1    1    2    0    0 -0.81717938574E+02  0.14814852012E+03  0.40968021471E+03  0.46053087173E+03  0.12500000000E+03 0.  0.
         25    1    1    2    0    0  0.81717938574E+02 -0.14814852012E+03  0.67636286263E+03  0.70832021533E+03  0.12500000000E+03 0.  0.
</event>
<event>
 4    0  0.2259196E-002  0.2390808E+03  0.7546771E-02  0.1120407E+00
         21   -1    0    0  502  501  0.00000000000E+00  0.00000000000E+00  0.16856343031E+03  0.16856343031E+03  0.00000000000E+00 0. -1.
         21   -1    0    0  501  502 -0.00000000000E+00 -0.00000000000E+00 -0.33909851168E+03  0.33909851168E+03  0.00000000000E+00 0. -1.
         25    1    1    2    0    0  0.42681713939E+02 -0.19918959716E+03 -0.91671599577E+02  0.25598223863E+03  0.12500000000E+03 0.  0.
         25    1    1    2    0    0 -0.42681713939E+02  0.19918959716E+03 -0.78863481801E+02  0.25167970336E+03  0.12500000000E+03 0.  0.
</event>
<event>
 4    0  0.2259196E-002  0.1771381E+03  0.7546771E-02  0.1170602E+00
         21   -1    0    0  502  501  0.00000000000E+00  0.00000000000E+00  0.39699567168E+02  0.39699567168E+02  0.00000000000E+00 0. -1.
         21   -1    0    0  501  502 -0.00000000000E+00 -0.00000000000E+00 -0.79038367508E+03  0.79038367508E+03  0.00000000000E+00 0. -1.
         25    1    1    2    0    0  0.83277685310E+02 -0.58808970797E+02 -0.20381578024E+03  0.25992218103E+03  0.12500000000E+03 0.  0.
         25    1    1    2    0    0 -0.83277685310E+02  0.58808970797E+02 -0.54686832768E+03  0.57016106122E+03  0.12500000000E+03 0.  0.
</event>
<event>
 4    0  0.2259196E-002  0.4151731E+03  0.7546771E-02  0.1038649E+00
         21   -1    0    0  502  501  0.00000000000E+00  0.00000000000E+00  0.14426992751E+04  0.14426992751E+04  0.00000000000E+00 0. -1.
         21   -1    0    0  501  502 -0.00000000000E+00 -0.00000000000E+00 -0.11947651958E+03  0.11947651958E+03  0.00000000000E+00 0. -1.
         25    1    1    2    0    0  0.37111054890E+03  0.95248252394E+02  0.47396172856E+03  0.62214145435E+03  0.12500000000E+03 0.  0.
         25    1    1    2    0    0 -0.37111054890E+03 -0.95248252394E+02  0.84926102695E+03  0.94003434032E+03  0.12500000000E+03 0.  0.
</event>
<event>
 4    0  0.2259196E-002  0.2025647E+03  0.7546771E-02  0.1147593E+00
         21   -1    0    0  502  501  0.00000000000E+00  0.00000000000E+00  0.21766773038E+04  0.21766773038E+04  0.00000000000E+00 0.  1.
         21   -1    0    0  501  502 -0.00000000000E+00 -0.00000000000E+00 -0.18850955167E+02  0.18850955167E+02  0.00000000000E+00 0.  1.
         25    1    1    2    0    0  0.85262001420E+01 -0.80904859725E+02  0.33606691246E+03  0.36767412483E+03  0.12500000000E+03 0.  0.
         25    1    1    2    0    0 -0.85262001420E+01  0.80904859725E+02  0.18217594362E+04  0.18278541342E+04  0.12500000000E+03 0.  0.
</event>
<event>
 4    0  0.2259196E-002  0.1617638E+03  0.7546771E-02  0.1186720E+00
         21   -1    0    0  502  501  0.00000000000E+00  0.00000000000E+00  0.15943241679E+02  0.15943241679E+02  0.00000000000E+00 0. -1.
         21   -1    0    0  501  502 -0.00000000000E+00 -0.00000000000E+00 -0.16412933122E+04  0.16412933122E+04  0.00000000000E+00 0. -1.
         25    1    1    2    0    0  0.46680848901E+02 -0.64070519797E+02 -0.11469443123E+04  0.11564559605E+04  0.12500000000E+03 0.  0.
         25    1    1    2    0    0 -0.46680848901E+02  0.64070519797E+02 -0.47840575822E+03  0.50078059334E+03  0.12500000000E+03 0.  0.
</event>
<event>
 4    0  0.2259196E-002  0.1804907E+03  0.7546771E-02  0.1167329E+00
         21   -1    0    0  502  501  0.00000000000E+00  0.00000000000E+00  0.12619346349E+04  0.12619346349E+04  0.00000000000E+00 0.  1.
         21   -1    0    0  501  502 -0.00000000000E+00 -0.00000000000E+00 -0.25815049640E+02  0.25815049640E+02  0.00000000000E+00 0.  1.
         25    1    1    2    0    0 -0.53504789980E+02 -0.93474607503E+02  0.87902944550E+03  0.89438136768E+03  0.12500000000E+03 0.  0.
         25    1    1    2    0    0  0.53504789980E+02  0.93474607503E+02  0.35709013981E+03  0.39336831691E+03  0.12500000000E+03 0.  0.
</event>
<event>
 4    0  0.2259196E-002  0.2369424E+03  0.7546771E-02  0.1121847E+00
         21   -1    0    0  502  501  0.00000000000E+00  0.00000000000E+00  0.36100913273E+02  0.36100913273E+02  0.00000000000E+00 0. -1.
         21   -1    0    0  501  502 -0.00000000000E+00 -0.00000000000E+00 -0.15551321773E+04  0.15551321773E+04  0.00000000000E+00 0. -1.
         25    1    1    2    0    0 -0.70775872630E+02 -0.90670466390E+02 -0.13141843268E+04  0.13251172787E+04  0.12500000000E+03 0.  0.
         25    1    1    2    0    0  0.70775872630E+02  0.90670466390E+02 -0.20484693729E+03  0.26611581189E+03  0.12500000000E+03 0.  0.
</event>
<event>
 4    0  0.2259196E-002  0.3797776E+03  0.7546771E-02  0.1051016E+00
         21   -1    0    0  502  501  0.00000000000E+00  0.00000000000E+00  0.31528066968E+03  0.31528066968E+03  0.00000000000E+00 0.  1.
         21   -1    0    0  501  502 -0.00000000000E+00 -0.00000000000E+00 -0.45746858854E+03  0.45746858854E+03  0.00000000000E+00 0.  1.
         25    1    1    2    0    0  0.44026411282E+02 -0.24257610293E+03  0.19386135161E+03  0.33762214715E+03  0.12500000000E+03 0.  0.
         25    1    1    2    0    0 -0.44026411282E+02  0.24257610293E+03 -0.33604927047E+03  0.43512711107E+03  0.12500000000E+03 0.  0.
</event>
<event>
 4    0  0.2259196E-002  0.3491334E+03  0.7546771E-02  0.1062971E+00
         21   -1    0    0  502  501  0.00000000000E+00  0.00000000000E+00  0.77898842054E+03  0.77898842054E+03  0.00000000000E+00 0. -1.
         21   -1    0    0  501  502 -0.00000000000E+00 -0.00000000000E+00 -0.15647747075E+03  0.15647747075E+03  0.00000000000E+00 0. -1.
         25    1    1    2    0    0  0.13674385972E+02  0.25893724851E+03  0.57593852760E+03  0.64386774657E+03  0.12500000000E+03 0.  0.
         25    1    1    2    0    0 -0.13674385972E+02 -0.25893724851E+03  0.46572422189E+02  0.29159814472E+03  0.12500000000E+03 0.  0.
</event>
<event>
 4    0  0.2259196E-002  0.2002289E+03  0.7546771E-02  0.1149546E+00
         21   -1    0    0  502  501  0.00000000000E+00  0.00000000000E+00  0.24965163867E+03  0.24965163867E+03  0.00000000000E+00 0.  1.
         21   -1    0    0  501  502 -0.00000000000E+00 -0.00000000000E+00 -0.16059017144E+03  0.16059017144E+03  0.00000000000E+00 0.  1.
         25    1    1    2    0    0 -0.94422648865E+02 -0.10667440804E+03  0.11069615774E+03  0.21948509127E+03  0.12500000000E+03 0.  0.
         25    1    1    2    0    0  0.94422648865E+02  0.10667440804E+03 -0.21634690508E+02  0.19075671884E+03  0.12500000000E+03 0.  0.
</event>
<event>
 4    0  0.2259196E-002  0.1924057E+03  0.7546771E-02  0.1156309E+00
         21   -1    0    0  502  501  0.00000000000E+00  0.00000000000E+00  0.32018665415E+03  0.32018665415E+03  0.00000000000E+00 0.  1.
         21   -1    0    0  501  502 -0.00000000000E+00 -0.00000000000E+00 -0.11561992400E+03  0.11561992400E+03  0.00000000000E+00 0.  1.
         25    1    1    2    0    0 -0.14610526161E+03 -0.38815006590E+01  0.10880328705E+03  0.22096372732E+03  0.12500000000E+03 0.  0.
         25    1    1    2    0    0  0.14610526161E+03  0.38815006590E+01  0.95763443109E+02  0.21484285083E+03  0.12500000000E+03 0.  0.
</event>
<event>
 4    0  0.2259196E-002  0.1964715E+03  0.7546771E-02  0.1152751E+00
         21   -1    0    0  502  501  0.00000000000E+00  0.00000000000E+00  0.22416990979E+02  0.22416990979E+02  0.00000000000E+00 0. -1.
         21   -1    0    0  501  502 -0.00000000000E+00 -0.00000000000E+00 -0.17219541614E+04  0.17219541614E+04  0.00000000000E+00 0. -1.
         25    1    1    2    0    0  0.13519991201E+03 -0.64653033374E+02 -0.95070658822E+03  0.97052926170E+03  0.12500000000E+03 0.  0.
         25    1    1    2    0    0 -0.13519991201E+03  0.64653033374E+02 -0.74883058223E+03  0.77384189071E+03  0.12500000000E+03 0.  0.
</event>
<event>
 4    0  0.2259196E-002  0.3003872E+03  0.7546771E-02  0.1085047E+00
         21   -1    0    0  502  501  0.00000000000E+00  0.00000000000E+00  0.51203963692E+03  0.51203963692E+03  0.00000000000E+00 0. -1.
         21   -1    0    0  501  502 -0.00000000000E+00 -0.00000000000E+00 -0.17622161858E+03  0.17622161858E+03  0.00000000000E+00 0. -1.
         25    1    1    2    0    0 -0.23923283811E+03  0.12754602126E+03  0.20602773328E+03  0.36272960349E+03  0.12500000000E+03 0.  0.
         25    1    1    2    0    0  0.23923283811E+03 -0.12754602126E+03  0.12979028506E+03  0.32553165201E+03  0.12500000000E+03 0.  0.
</event>
<event>
 4    0  0.2259196E-002  0.3349063E+03  0.7546771E-02  0.1068986E+00
         21   -1    0    0  502  501  0.00000000000E+00  0.00000000000E+00  0.12072445768E+04  0.12072445768E+04  0.00000000000E+00 0. -1.
         21   -1    0    0  501  502 -0.00000000000E+00 -0.00000000000E+00 -0.92907633470E+02  0.92907633470E+02  0.00000000000E+00 0. -1.
         25    1    1    2    0    0  0.26887766687E+03  0.15561833108E+03  0.54746857767E+03  0.64176250143E+03  0.12500000000E+03 0.  0.
         25    1    1    2    0    0 -0.26887766687E+03 -0.15561833108E+03  0.56686836563E+03  0.65838970881E+03  0.12500000000E+03 0.  0.
</event>
<event>
 4    0  0.2259196E-002  0.2445052E+03  0.7546771E-02  0.1116827E+00
         21   -1    0    0  502  501  0.00000000000E+00  0.00000000000E+00  0.20655928281E+03  0.20655928281E+03  0.00000000000E+00 0.  1.
         21   -1    0    0  501  502 -0.00000000000E+00 -0.00000000000E+00 -0.28942206106E+03  0.28942206106E+03  0.00000000000E+00 0.  1.
         25    1    1    2    0    0  0.20412650463E+03 -0.41167854606E+02 -0.70036100227E+02  0.25276961345E+03  0.12500000000E+03 0.  0.
         25    1    1    2    0    0 -0.20412650463E+03  0.41167854606E+02 -0.12826678014E+02  0.24321173042E+03  0.12500000000E+03 0.  0.
</event>
<event>
 4    0  0.2259196E-002  0.2304027E+03  0.7546771E-02  0.1126357E+00
         21   -1    0    0  502  501  0.00000000000E+00  0.00000000000E+00  0.22242615689E+02  0.22242615689E+02  0.00000000000E+00 0.  1.
         21   -1    0    0  501  502 -0.00000000000E+00 -0.00000000000E+00 -0.23866532511E+04  0.23866532511E+04  0.00000000000E+00 0.  1.
         25    1    1    2    0    0  0.16749932874E+03 -0.94860553566E+01 -0.16867247478E+04  0.16996503714E+04  0.12500000000E+03 0.  0.
         25    1    1    2    0    0 -0.16749932874E+03  0.94860553566E+01 -0.67768588766E+03  0.70924549537E+03  0.12500000000E+03 0.  0.
</event>
<event>
 4    0  0.2259196E-002  0.2495367E+03  0.7546771E-02  0.1113598E+00
         21   -1    0    0  502  501  0.00000000000E+00  0.00000000000E+00  0.25946326064E+03  0.25946326064E+03  0.00000000000E+00 0.  1.
         21   -1    0    0  501  502 -0.00000000000E+00 -0.00000000000E+00 -0.23998998267E+03  0.23998998267E+03  0.00000000000E+00 0.  1.
         25    1    1    2    0    0 -0.17585471414E+02 -0.20670024414E+03  0.69860168611E+02  0.25207078945E+03  0.12500000000E+03 0.  0.
         25    1    1    2    0    0  0.17585471414E+02  0.20670024414E+03 -0.50386890643E+02  0.24738245387E+03  0.12500000000E+03 0.  0.
</event>
<event>
 4    0  0.2259196E-002  0.3637579E+03  0.7546771E-02  0.1057106E+00
         21   -1    0    0  502  501  0.00000000000E+00  0.00000000000E+00  0.14368791923E+03  0.14368791923E+03  0.00000000000E+00 0. -1.
         21   -1    0    0  501  502 -0.00000000000E+00 -0.00000000000E+00 -0.92088314056E+03  0.92088314056E+03  0.00000000000E+00 0. -1.
         25    1    1    2    0    0 -0.19415069556E+03 -0.21991151349E+03 -0.64473388914E+03  0.71927905166E+03  0.12500000000E+03 0.  0.
         25    1    1    2    0    0  0.19415069556E+03  0.21991151349E+03 -0.13246133218E+03  0.34529200813E+03  0.12500000000E+03 0.  0.
</event>
<event>
 4    0  0.2259196E-002  0.1919831E+03  0.7546771E-02  0.1156685E+00
         21   -1    0    0  502  501  0.00000000000E+00  0.00000000000E+00  0.26298746208E+03  0.26298746208E+03  0.00000000000E+00 0.  1.
         21   -1    0    0  501  502 -0.00000000000E+00 -0.00000000000E+00 -0.14014936642E+03  0.14014936642E+03  0.00000000000E+00 0.  1.
         25    1    1    2    0    0  0.19844419193E+02  0.95974372316E+02  0.17463438680E+03  0.23606577509E+03  0.12500000000E+03 0.  0.
         25    1    1    2    0    0 -0.19844419193E+02 -0.95974372316E+02 -0.51796291134E+02  0.16707105342E+03  0.12500000000E+03 0.  0.
</event>
<event>
 4    0  0.2259196E-002  0.1668827E+03  0.7546771E-02  0.1181138E+00
         21   -1    0    0  502  501  0.00000000000E+00  0.00000000000E+00  0.25557067694E+02  0.25557067694E+02  0.00000000000E+00 0.  1.
         21   -1    0    0  501  502 -0.00000000000E+00 -0.00000000000E+00 -0.10897113471E+04  0.10897113471E+04  0.00000000000E+00 0.  1.
         25    1    1    2    0    0 -0.24479550094E+01 -0.15788079595E+02 -0.89765294596E+03  0.90645522080E+03  0.12500000000E+03 0.  0.
         25    1    1    2    0    0  0.24479550094E+01  0.15788079595E+02 -0.16650133342E+03  0.20881319396E+03  0.12500000000E+03 0.  0.
</event>
<event>
 4    0  0.2259196E-002  0.1599498E+03  0.7546771E-02  0.1188753E+00
         21   -1    0    0  502  501  0.00000000000E+00  0.00000000000E+00  0.13084834026E+02  0.13084834026E+02  0.00000000000E+00 0.  1.
         21   -1    0    0  501  502 -0.00000000000E+00 -0.00000000000E+00 -0.19552354493E+04  0.19552354493E+04  0.00000000000E+00 0.  1.
         25    1    1    2    0    0 -0.24484576863E+01 -0.65683547918E+02 -0.50904753658E+03  0.52827522931E+03  0.12500000000E+03 0.  0.
         25    1    1    2    0    0  0.24484576863E+01  0.65683547918E+02 -0.14331030787E+04  0.14400450540E+04  0.12500000000E+03 0.  0.
</event>
<event>
 4    0  0.2259196E-002  0.2283164E+03  0.7546771E-02  0.1127830E+00
         21   -1    0    0  502  501  0.00000000000E+00  0.00000000000E+00  0.38202393495E+03  0.38202393495E+03  0.00000000000E+00 0. -1.
         21   -1    0    0  501  502 -0.00000000000E+00 -0.00000000000E+00 -0.13645317430E+03  0.13645317430E+03  0.00000000000E+00 0. -1.
         25    1    1    2    0    0 -0.12388301764E+03 -0.13260464938E+03  0.19064970306E+03  0.29138171593E+03  0.12500000000E+03 0.  0.
         25    1    1    2    0    0  0.12388301764E+03  0.13260464938E+03  0.54921057587E+02  0.22709539331E+03  0.12500000000E+03 0.  0.
</event>
<event>
 4    0  0.2259196E-002  0.2116190E+03  0.7546771E-02  0.1140290E+00
         21   -1    0    0  502  501  0.00000000000E+00  0.00000000000E+00  0.19615868500E+03  0.19615868500E+03  0.00000000000E+00 0. -1.
         21   -1    0    0  501  502 -0.00000000000E+00 -0.00000000000E+00 -0.22829791227E+03  0.22829791227E+03  0.00000000000E+00 0. -1.
         25    1    1    2    0    0  0.62952080301E+02 -0.15124182160E+03  0.32241321442E+02  0.20857026592E+03  0.12500000000E+03 0.  0.
         25    1    1    2    0    0 -0.62952080301E+02  0.15124182160E+03 -0.64380548709E+02  0.21588633136E+03  0.12500000000E+03 0.  0.
</event>
<event>
 4    0  0.2259196E-002  0.2190186E+03  0.7546771E-02  0.1134617E+00
         21   -1    0    0  502  501  0.00000000000E+00  0.00000000000E+00  0.25496472838E+04  0.25496472838E+04  0.00000000000E+00 0. -1.
         21   -1    0    0  501  502 -0.00000000000E+00 -0.00000000000E+00 -0.18814026260E+02  0.18814026260E+02  0.00000000000E+00 0. -1.
         25    1    1    2    0    0  0.15146524990E+03  0.32322607750E+02  0.18014655253E+04  0.18124264155E+04  0.12500000000E+03 0.  0.
         25    1    1    2    0    0 -0.15146524990E+03 -0.32322607750E+02  0.72936773225E+03  0.75603489453E+03  0.12500000000E+03 0.  0.
</event>
<event>
 4    0  0.2259196E-002  0.3368718E+03  0.7546771E-02  0.1068136E+00
         21   -1    0    0  502  501  0.00000000000E+00  0.00000000000E+00  0.51194252473E+03  0.51194252473E+03  0.00000000000E+00 0. -1.
         21   -1    0    0  501  502 -0.00000000000E+00 -0.00000000000E+00 -0.22167063128E+03  0.22167063128E+03  0.00000000000E+00 0. -1.
         25    1    1    2    0    0 -0.52304260731E+01 -0.68897721190E+02  0.47734271836E+03  0.49825226955E+03  0.12500000000E+03 0.  0.
         25    1    1    2    0    0  0.52304260731E+01  0.68897721190E+02 -0.18707082491E+03  0.23536088646E+03  0.12500000000E+03 0.  0.
</event>
<event>
 4    0  0.2259196E-002  0.1855631E+03  0.7546771E-02  0.1162525E+00
         21   -1    0    0  502  501  0.00000000000E+00  0.00000000000E+00  0.34317284989E+03  0.34317284989E+03  0.00000000000E+00 0.  1.
         21   -1    0    0  501  502 -0.00000000000E+00 -0.00000000000E+00 -0.10033916543E+03  0.10033916543E+03  0.00000000000E+00 0.  1.
         25    1    1    2    0    0  0.10737303172E+03 -0.78682859974E+02  0.81985534012E+02  0.20016640123E+03  0.12500000000E+03 0.  0.
         25    1    1    2    0    0 -0.10737303172E+03  0.78682859974E+02  0.16084815045E+03  0.24334561409E+03  0.12500000000E+03 0.  0.
</event>
<event>
 4    0  0.2259196E-002  0.3580878E+03  0.7546771E-02  0.1059344E+00
         21   -1    0    0  502  501  0.00000000000E+00  0.00000000000E+00  0.17366862012E+03  0.17366862012E+03  0.00000000000E+00 0. -1.
         21   -1    0    0  501  502 -0.00000000000E+00 -0.00000000000E+00 -0.73834240021E+03  0.73834240021E+03  0.00000000000E+00 0. -1.
         25    1    1    2    0    0  0.11292755257E+03 -0.29655401469E+03 -0.14339121670E+03  0.36997696791E+03  0.12500000000E+03 0.  0.
         25    1    1    2    0    0 -0.11292755257E+03  0.29655401469E+03 -0.42128256339E+03  0.54203405241E+03  0.12500000000E+03 0.  0.
</event>
<event>
 4    0  0.2259196E-002  0.3931798E+03  0.7546771E-02  0.1046167E+00
         21   -1    0    0  502  501  0.00000000000E+00  0.00000000000E+00  0.29906021363E+03  0.29906021363E+03  0.00000000000E+00 0.  1.
         21   -1    0    0  501  502 -0.00000000000E+00 -0.00000000000E+00 -0.51692052821E+03  0.51692052821E+03  0.00000000000E+00 0.  1.
         25    1    1    2    0    0  0.41703225412E+02 -0.36426620013E+03 -0.39040726383E+02  0.38933045332E+03  0.12500000000E+03 0.  0.
         25    1    1    2    0    0 -0.41703225412E+02  0.36426620013E+03 -0.17881958821E+03  0.42665028852E+03  0.12500000000E+03 0.  0.
</event>
<event>
 4    0  0.2259196E-002  0.2512887E+03  0.7546771E-02  0.1112493E+00
         21   -1    0    0  502  501  0.00000000000E+00  0.00000000000E+00  0.25558138600E+04  0.25558138600E+04  0.00000000000E+00 0.  1.
         21   -1    0    0  501  502 -0.00000000000E+00 -0.00000000000E+00 -0.24706811170E+02  0.24706811170E+02  0.00000000000E+00 0.  1.
         25    1    1    2    0    0  0.16881242668E+03  0.59052479667E+02  0.19055484134E+04  0.19180001529E+04  0.12500000000E+03 0.  0.
         25    1    1    2    0    0 -0.16881242668E+03 -0.59052479667E+02  0.62555863550E+03  0.66252051833E+03  0.12500000000E+03 0.  0.
</event>
<event>
 4    0  0.2259196E-002  0.2594871E+03  0.7546771E-02  0.1107452E+00
         21   -1    0    0  502  501  0.00000000000E+00  0.00000000000E+00  0.92249864132E+03  0.92249864132E+03  0.00000000000E+00 0.  1.
         21   -1    0    0  501  502 -0.00000000000E+00 -0.00000000000E+00 -0.72990406605E+02  0.72990406605E+02  0.00000000000E+00 0.  1.
         25    1    1    2    0    0 -0.18404843041E+03 -0.10432410392E+03  0.26482746043E+03  0.36126988138E+03  0.12500000000E+03 0.  0.
         25    1    1    2    0    0  0.18404843041E+03  0.10432410392E+03  0.58468077429E+03  0.63421916655E+03  0.12500000000E+03 0.  0.
</event>
<event>
 4    0  0.2259196E-002  0.2153617E+03  0.7546771E-02  0.1137389E+00
         21   -1    0    0  502  501  0.00000000000E+00  0.00000000000E+00  0.53470016905E+02  0.53470016905E+02  0.00000000000E+00 0.  1.
         21   -1    0    0  501  502 -0.00000000000E+00 -0.00000000000E+00 -0.86741466417E+03  0.86741466417E+03  0.00000000000E+00 0.  1.
         25    1    1    2    0    0  0.89585945932E+02  0.10459094638E+03 -0.17481746490E+03  0.25524704466E+03  0.12500000000E+03 0.  0.
         25    1    1    2    0    0 -0.89585945932E+02 -0.10459094638E+03 -0.63912718237E+03  0.66563763641E+03  0.12500000000E+03 0.  0.
</event>
<event>
 4    0  0.2259196E-002  0.1787424E+03  0.7546771E-02  0.1169026E+00
         21   -1    0    0  502  501  0.00000000000E+00  0.00000000000E+00  0.63138610711E+03  0.63138610711E+03  0.00000000000E+00 0.  1.
         21   -1    0    0  501  502 -0.00000000000E+00 -0.00000000000E+00 -0.50601109598E+02  0.50601109598E+02  0.00000000000E+00 0.  1.
         25    1    1    2    0    0  0.11703142090E+02 -0.88648020566E+02  0.11629218207E+03  0.19272858298E+03  0.12500000000E+03 0.  0.
         25    1    1    2    0    0 -0.11703142090E+02  0.88648020566E+02  0.46449281544E+03  0.48925863373E+03  0.12500000000E+03 0.  0.
</event>
<event>
 4    0  0.2259196E-002  0.1316577E+03  0.7546771E-02  0.1225017E+00
         21   -1    0    0  502  501  0.00000000000E+00  0.00000000000E+00  0.11658541268E+03  0.11658541268E+03  0.00000000000E+00 0.  1.
         21   -1    0    0  501  502 -0.00000000000E+00 -0.00000000000E+00 -0.14867846780E+03  0.14867846780E+03  0.00000000000E+00 0.  1.
         25    1    1    2    0    0 -0.14712002031E+02 -0.30144063476E+02  0.82907436482E+01  0.12968748589E+03  0.12500000000E+03 0.  0.
         25    1    1    2    0    0  0.14712002031E+02  0.30144063476E+02 -0.40383798774E+02  0.13557639459E+03  0.12500000000E+03 0.  0.
</event>
<event>
 4    0  0.2259196E-002  0.2452962E+03  0.7546771E-02  0.1116314E+00
         21   -1    0    0  502  501  0.00000000000E+00  0.00000000000E+00  0.49942077574E+03  0.49942077574E+03  0.00000000000E+00 0.  1.
         21   -1    0    0  501  502 -0.00000000000E+00 -0.00000000000E+00 -0.12048000387E+03  0.12048000387E+03  0.00000000000E+00 0.  1.
         25    1    1    2    0    0  0.12128553849E+03 -0.16190967887E+03  0.26549831141E+03  0.35642569958E+03  0.12500000000E+03 0.  0.
         25    1    1    2    0    0 -0.12128553849E+03  0.16190967887E+03  0.11344246045E+03  0.26347508002E+03  0.12500000000E+03 0.  0.
</event>
<event>
 4    0  0.2259196E-002  0.2485703E+03  0.7546771E-02  0.1114212E+00
         21   -1    0    0  502  501  0.00000000000E+00  0.00000000000E+00  0.12037331090E+04  0.12037331090E+04  0.00000000000E+00 0. -1.
         21   -1    0    0  501  502 -0.00000000000E+00 -0.00000000000E+00 -0.51329636800E+02  0.51329636800E+02  0.00000000000E+00 0. -1.
         25    1    1    2    0    0 -0.12406569106E+03 -0.13152013893E+03  0.86922882589E+03  0.89658998121E+03  0.12500000000E+03 0.  0.
         25    1    1    2    0    0  0.12406569106E+03  0.13152013893E+03  0.28317464632E+03  0.35847276461E+03  0.12500000000E+03 0.  0.
</event>
<event>
 4    0  0.2259196E-002  0.1708003E+03  0.7546771E-02  0.1177016E+00
         21   -1    0    0  502  501  0.00000000000E+00  0.00000000000E+00  0.32503451678E+02  0.32503451678E+02  0.00000000000E+00 0.  1.
         21   -1    0    0  501  502 -0.00000000000E+00 -0.00000000000E+00 -0.89752718082E+03  0.89752718082E+03  0.00000000000E+00 0.  1.
         25    1    1    2    0    0 -0.10009056733E+03  0.57818425360E+02 -0.46970650324E+03  0.49961013917E+03  0.12500000000E+03 0.  0.
         25    1    1    2    0    0  0.10009056733E+03 -0.57818425360E+02 -0.39531722590E+03  0.43042049332E+03  0.12500000000E+03 0.  0.
</event>
<event>
 4    0  0.2259196E-002  0.2595172E+03  0.7546771E-02  0.1107434E+00
         21   -1    0    0  502  501  0.00000000000E+00  0.00000000000E+00  0.29740971201E+03  0.29740971201E+03  0.00000000000E+00 0. -1.
         21   -1    0    0  501  502 -0.00000000000E+00 -0.00000000000E+00 -0.22645246721E+03  0.22645246721E+03  0.00000000000E+00 0. -1.
         25    1    1    2    0    0  0.28485742613E+02  0.89550653992E+02  0.24451227727E+03  0.29024474310E+03  0.12500000000E+03 0.  0.
         25    1    1    2    0    0 -0.28485742613E+02 -0.89550653992E+02 -0.17355503247E+03  0.23361743612E+03  0.12500000000E+03 0.  0.
</event>
<event>
 4    0  0.2259196E-002  0.2506179E+03  0.7546771E-02  0.1112915E+00
         21   -1    0    0  502  501  0.00000000000E+00  0.00000000000E+00  0.28072336549E+03  0.28072336549E+03  0.00000000000E+00 0.  1.
         21   -1    0    0  501  502 -0.00000000000E+00 -0.00000000000E+00 -0.22374110174E+03  0.22374110174E+03  0.00000000000E+00 0.  1.
         25    1    1    2    0    0 -0.11938519305E+03 -0.16196062987E+03  0.11087364970E+03  0.26153782928E+03  0.12500000000E+03 0.  0.
         25    1    1    2    0    0  0.11938519305E+03  0.16196062987E+03 -0.53891385953E+02  0.24292663795E+03  0.12500000000E+03 0.  0.
</event>
<event>
 4    0  0.2259196E-002  0.2308950E+03  0.7546771E-02  0.1126011E+00
         21   -1    0    0  502  501  0.00000000000E+00  0.00000000000E+00  0.18487699590E+02  0.18487699590E+02  0.00000000000E+00 0. -1.
         21   -1    0    0  501  502 -0.00000000000E+00 -0.00000000000E+00 -0.28836750729E+04  0.28836750729E+04  0.00000000000E+00 0. -1.
         25    1    1    2    0    0  0.18849375920E+03 -0.41813543402E+02 -0.13054570035E+04  0.13255645053E+04  0.12500000000E+03 0.  0.
         25    1    1    2    0    0 -0.18849375920E+03  0.41813543402E+02 -0.15597303699E+04  0.15765982673E+04  0.12500000000E+03 0.  0.
</event>
<event>
 4    0  0.2259196E-002  0.2354836E+03  0.7546771E-02  0.1122839E+00
         21   -1    0    0  502  501  0.00000000000E+00  0.00000000000E+00  0.73825824180E+03  0.73825824180E+03  0.00000000000E+00 0.  1.
         21   -1    0    0  501  502 -0.00000000000E+00 -0.00000000000E+00 -0.75112609288E+02  0.75112609288E+02  0.00000000000E+00 0.  1.
         25    1    1    2    0    0 -0.15985136802E+03 -0.11509219197E+03  0.38696773348E+03  0.45184919970E+03  0.12500000000E+03 0.  0.
         25    1    1    2    0    0  0.15985136802E+03  0.11509219197E+03  0.27617789903E+03  0.36152165139E+03  0.12500000000E+03 0.  0.
</event>
<event>
 4    0  0.2259196E-002  0.1824243E+03  0.7546771E-02  0.1165477E+00
         21   -1    0    0  502  501  0.00000000000E+00  0.00000000000E+00  0.12561804719E+03  0.12561804719E+03  0.00000000000E+00 0. -1.
         21   -1    0    0  501  502 -0.00000000000E+00 -0.00000000000E+00 -0.26491900129E+03  0.26491900129E+03  0.00000000000E+00 0. -1.
         25    1    1    2    0    0 -0.98746411964E+02  0.83249198101E+02 -0.10302809503E+03  0.20717401194E+03  0.12500000000E+03 0.  0.
         25    1    1    2    0    0  0.98746411964E+02 -0.83249198101E+02 -0.36272859075E+02  0.18336303653E+03  0.12500000000E+03 0.  0.
</event>
<event>
 4    0  0.2259196E-002  0.1687229E+03  0.7546771E-02  0.1179186E+00
         21   -1    0    0  502  501  0.00000000000E+00  0.00000000000E+00  0.35703366355E+02  0.35703366355E+02  0.00000000000E+00 0. -1.
         21   -1    0    0  501  502 -0.00000000000E+00 -0.00000000000E+00 -0.79733125623E+03  0.79733125623E+03  0.00000000000E+00 0. -1.
         25    1    1    2    0    0 -0.53039388069E+02 -0.47533012804E+02 -0.16321074237E+03  0.21756679530E+03  0.12500000000E+03 0.  0.
         25    1    1    2    0    0  0.53039388069E+02  0.47533012804E+02 -0.59841714750E+03  0.61546782728E+03  0.12500000000E+03 0.  0.
</event>
<event>
 4    0  0.2259196E-002  0.1400045E+03  0.7546771E-02  0.1213323E+00
         21   -1    0    0  502  501  0.00000000000E+00  0.00000000000E+00  0.24440814767E+02  0.24440814767E+02  0.00000000000E+00 0. -1.
         21   -1    0    0  501  502 -0.00000000000E+00 -0.00000000000E+00 -0.80198837090E+03  0.80198837090E+03  0.00000000000E+00 0. -1.
         25    1    1    2    0    0 -0.40322971890E+02  0.43297382689E+02 -0.32440508387E+03  0.35265317785E+03  0.12500000000E+03 0.  0.
         25    1    1    2    0    0  0.40322971890E+02 -0.43297382689E+02 -0.45314247227E+03  0.47377600782E+03  0.12500000000E+03 0.  0.
</event>
<event>
 4    0  0.2259196E-002  0.1703357E+03  0.7546771E-02  0.1177498E+00
         21   -1    0    0  502  501  0.00000000000E+00  0.00000000000E+00  0.14989875526E+02  0.14989875526E+02  0.00000000000E+00 0. -1.
         21   -1    0    0  501  502 -0.00000000000E+00 -0.00000000000E+00 -0.19355895760E+04  0.19355895760E+04  0.00000000000E+00 0. -1.
         25    1    1    2    0    0  0.17514309830E+02 -0.12567233564E+02 -0.30936745035E+03  0.33436193824E+03  0.12500000000E+03 0.  0.
         25    1    1    2    0    0 -0.17514309830E+02  0.12567233564E+02 -0.16112322501E+04  0.16162175133E+04  0.12500000000E+03 0.  0.
</event>
<event>
 4    0  0.2259196E-002  0.2574601E+03  0.7546771E-02  0.1108679E+00
         21   -1    0    0  502  501  0.00000000000E+00  0.00000000000E+00  0.19814911715E+03  0.19814911715E+03  0.00000000000E+00 0. -1.
         21   -1    0    0  501  502 -0.00000000000E+00 -0.00000000000E+00 -0.33452430859E+03  0.33452430859E+03  0.00000000000E+00 0. -1.
         25    1    1    2    0    0  0.58553467673E+02  0.14634016956E+03 -0.23440322040E+03  0.30889128109E+03  0.12500000000E+03 0.  0.
         25    1    1    2    0    0 -0.58553467673E+02 -0.14634016956E+03  0.98028028955E+02  0.22378214465E+03  0.12500000000E+03 0.  0.
</event>
<event>
 4    0  0.2259196E-002  0.1936616E+03  0.7546771E-02  0.1155200E+00
         21   -1    0    0  502  501  0.00000000000E+00  0.00000000000E+00  0.14500092606E+03  0.14500092606E+03  0.00000000000E+00 0.  1.
         21   -1    0    0  501  502 -0.00000000000E+00 -0.00000000000E+00 -0.25865218093E+03  0.25865218093E+03  0.00000000000E+00 0.  1.
         25    1    1    2    0    0  0.49875212536E+02 -0.79325503904E+02  0.62453944466E+02  0.16824258550E+03  0.12500000000E+03 0.  0.
         25    1    1    2    0    0 -0.49875212536E+02  0.79325503904E+02 -0.17610519933E+03  0.23541052149E+03  0.12500000000E+03 0.  0.
</event>
<event>
 4    0  0.2259196E-002  0.2670684E+03  0.7546771E-02  0.1102969E+00
         21   -1    0    0  502  501  0.00000000000E+00  0.00000000000E+00  0.33620566936E+03  0.33620566936E+03  0.00000000000E+00 0.  1.
         21   -1    0    0  501  502 -0.00000000000E+00 -0.00000000000E+00 -0.21214855393E+03  0.21214855393E+03  0.00000000000E+00 0.  1.
         25    1    1    2    0    0  0.22093377573E+03 -0.65617956849E+02  0.11420554571E+03  0.28598139134E+03  0.12500000000E+03 0.  0.
         25    1    1    2    0    0 -0.22093377573E+03  0.65617956849E+02  0.98515697286E+01  0.26237283195E+03  0.12500000000E+03 0.  0.
</event>
<event>
 4    0  0.2259196E-002  0.1980803E+03  0.7546771E-02  0.1151369E+00
         21   -1    0    0  502  501  0.00000000000E+00  0.00000000000E+00  0.19962951197E+04  0.19962951197E+04  0.00000000000E+00 0.  1.
         21   -1    0    0  501  502 -0.00000000000E+00 -0.00000000000E+00 -0.19654312168E+02  0.19654312168E+02  0.00000000000E+00 0.  1.
         25    1    1    2    0    0  0.22490287824E+02  0.13198872072E+03  0.60467119522E+03  0.63180621219E+03  0.12500000000E+03 0.  0.
         25    1    1    2    0    0 -0.22490287824E+02 -0.13198872072E+03  0.13719696123E+04  0.13841432197E+04  0.12500000000E+03 0.  0.
</event>
<event>
 4    0  0.2259196E-002  0.2131741E+03  0.7546771E-02  0.1139077E+00
         21   -1    0    0  502  501  0.00000000000E+00  0.00000000000E+00  0.54045054439E+02  0.54045054439E+02  0.00000000000E+00 0.  1.
         21   -1    0    0  501  502 -0.00000000000E+00 -0.00000000000E+00 -0.84083904526E+03  0.84083904526E+03  0.00000000000E+00 0.  1.
         25    1    1    2    0    0  0.97578323077E+02 -0.14023325160E+03 -0.34065948995E+03  0.40107453432E+03  0.12500000000E+03 0.  0.
         25    1    1    2    0    0 -0.97578323077E+02  0.14023325160E+03 -0.44613450087E+03  0.49380956538E+03  0.12500000000E+03 0.  0.
</event>
<event>
 4    0  0.2259196E-002  0.2312378E+03  0.7546771E-02  0.1125772E+00
         21   -1    0    0  502  501  0.00000000000E+00  0.00000000000E+00  0.24988054732E+03  0.24988054732E+03  0.00000000000E+00 0.  1.
         21   -1    0    0  501  502 -0.00000000000E+00 -0.00000000000E+00 -0.21398592612E+03  0.21398592612E+03  0.00000000000E+00 0.  1.
         25    1    1    2    0    0 -0.99230568480E+02  0.16694966099E+03  0.29251756958E+02  0.23280799022E+03  0.12500000000E+03 0.  0.
         25    1    1    2    0    0  0.99230568480E+02 -0.16694966099E+03  0.66428642458E+01  0.23105848322E+03  0.12500000000E+03 0.  0.
</event>
<event>
 4    0  0.2259196E-002  0.2658311E+03  0.7546771E-02  0.1103690E+00
         21   -1    0    0  502  501  0.00000000000E+00  0.00000000000E+00  0.13154150706E+03  0.13154150706E+03  0.00000000000E+00 0. -1.
         21   -1    0    0  501  502 -0.00000000000E+00 -0.00000000000E+00 -0.53721567850E+03  0.53721567850E+03  0.00000000000E+00 0. -1.
         25    1    1    2    0    0  0.21654877352E+03  0.65413735661E+02 -0.28107596959E+03  0.38183900902E+03  0.12500000000E+03 0.  0.
         25    1    1    2    0    0 -0.21654877352E+03 -0.65413735661E+02 -0.12459820185E+03  0.28691817655E+03  0.12500000000E+03 0.  0.
</event>
<event>
 4    0  0.2259196E-002  0.4144767E+03  0.7546771E-02  0.1038879E+00
         21   -1    0    0  502  501  0.00000000000E+00  0.00000000000E+00  0.56274425140E+03  0.56274425140E+03  0.00000000000E+00 0.  1.
         21   -1    0    0  501  502 -0.00000000000E+00 -0.00000000000E+00 -0.30527358925E+03  0.30527358925E+03  0.00000000000E+00 0.  1.
         25    1    1    2    0    0  0.17417348074E+03  0.35227588887E+03  0.17230446463E+03  0.44693235708E+03  0.12500000000E+03 0.  0.
         25    1    1    2    0    0 -0.17417348074E+03 -0.35227588887E+03  0.85166197516E+02  0.42108548357E+03  0.12500000000E+03 0.  0.
</event>
<event>
 4    0  0.2259196E-002  0.4213919E+03  0.7546771E-02  0.1036614E+00
         21   -1    0    0  502  501  0.00000000000E+00  0.00000000000E+00  0.53220890973E+03  0.53220890973E+03  0.00000000000E+00 0. -1.
         21   -1    0    0  501  502 -0.00000000000E+00 -0.00000000000E+00 -0.33364929847E+03  0.33364929847E+03  0.00000000000E+00 0. -1.
         25    1    1    2    0    0 -0.67392766878E+02 -0.24751252477E+03  0.41783665102E+03  0.50598093035E+03  0.12500000000E+03 0.  0.
         25    1    1    2    0    0  0.67392766878E+02  0.24751252477E+03 -0.21927703976E+03  0.35987727785E+03  0.12500000000E+03 0.  0.
</event>
<event>
 4    0  0.2259196E-002  0.2327561E+03  0.7546771E-02  0.1124715E+00
         21   -1    0    0  502  501  0.00000000000E+00  0.00000000000E+00  0.77763984008E+03  0.77763984008E+03  0.00000000000E+00 0. -1.
         21   -1    0    0  501  502 -0.00000000000E+00 -0.00000000000E+00 -0.69666433235E+02  0.69666433235E+02  0.00000000000E+00 0. -1.
         25    1    1    2    0    0  0.29859347079E+01 -0.64661643623E+02  0.69138134169E+03  0.70556587474E+03  0.12500000000E+03 0.  0.
         25    1    1    2    0    0 -0.29859347079E+01  0.64661643623E+02  0.16592065156E+02  0.14174039858E+03  0.12500000000E+03 0.  0.
</event>
<event>
 4    0  0.2259196E-002  0.1919436E+03  0.7546771E-02  0.1156720E+00
         21   -1    0    0  502  501  0.00000000000E+00  0.00000000000E+00  0.58213017560E+03  0.58213017560E+03  0.00000000000E+00 0. -1.
         21   -1    0    0  501  502 -0.00000000000E+00 -0.00000000000E+00 -0.63288874080E+02  0.63288874080E+02  0.00000000000E+00 0. -1.
         25    1    1    2    0    0 -0.14404234073E+03 -0.21480237242E+02  0.26410620482E+03  0.32647616137E+03  0.12500000000E+03 0.  0.
         25    1    1    2    0    0  0.14404234073E+03  0.21480237242E+02  0.25473509670E+03  0.31894288831E+03  0.12500000000E+03 0.  0.
</event>
<event>
 4    0  0.2259196E-002  0.1968312E+03  0.7546771E-02  0.1152440E+00
         21   -1    0    0  502  501  0.00000000000E+00  0.00000000000E+00  0.20449055167E+03  0.20449055167E+03  0.00000000000E+00 0.  1.
         21   -1    0    0  501  502 -0.00000000000E+00 -0.00000000000E+00 -0.18945866558E+03  0.18945866558E+03  0.00000000000E+00 0. -1.
         25    1    1    2    0    0 -0.98133129855E+02 -0.66955885397E+01 -0.10851062806E+03  0.19254739283E+03  0.12500000000E+03 0.  0.
         25    1    1    2    0    0  0.98133129855E+02  0.66955885397E+01  0.12354251415E+03  0.20140182443E+03  0.12500000000E+03 0.  0.
</event>
<event>
 4    0  0.2259196E-002  0.2023367E+03  0.7546771E-02  0.1147782E+00
         21   -1    0    0  502  501  0.00000000000E+00  0.00000000000E+00  0.17256366422E+03  0.17256366422E+03  0.00000000000E+00 0. -1.
         21   -1    0    0  501  502 -0.00000000000E+00 -0.00000000000E+00 -0.23724669007E+03  0.23724669007E+03  0.00000000000E+00 0. -1.
         25    1    1    2    0    0  0.62076085664E+02 -0.13667387966E+03 -0.85755410239E+02  0.21333583895E+03  0.12500000000E+03 0.  0.
         25    1    1    2    0    0 -0.62076085664E+02  0.13667387966E+03  0.21072384389E+02  0.19647451534E+03  0.12500000000E+03 0.  0.
</event>
<event>
 4    0  0.2259196E-002  0.2084872E+03  0.7546771E-02  0.1142770E+00
         21   -1    0    0  502  501  0.00000000000E+00  0.00000000000E+00  0.13204569728E+03  0.13204569728E+03  0.00000000000E+00 0.  1.
         21   -1    0    0  501  502 -0.00000000000E+00 -0.00000000000E+00 -0.32918098155E+03  0.32918098155E+03  0.00000000000E+00 0.  1.
         25    1    1    2    0    0 -0.86478350042E+02  0.75345442458E+02 -0.23261675957E+03  0.28790796717E+03  0.12500000000E+03 0.  0.
         25    1    1    2    0    0  0.86478350042E+02 -0.75345442458E+02  0.35481475299E+02  0.17331871167E+03  0.12500000000E+03 0.  0.
</event>
<event>
 4    0  0.2259196E-002  0.2193399E+03  0.7546771E-02  0.1134376E+00
         21   -1    0    0  502  501  0.00000000000E+00  0.00000000000E+00  0.61904978374E+02  0.61904978374E+02  0.00000000000E+00 0.  1.
         21   -1    0    0  501  502 -0.00000000000E+00 -0.00000000000E+00 -0.77715862162E+03  0.77715862162E+03  0.00000000000E+00 0.  1.
         25    1    1    2    0    0  0.12217122189E+03 -0.90807280889E+02 -0.17304150716E+03  0.26218339558E+03  0.12500000000E+03 0.  0.
         25    1    1    2    0    0 -0.12217122189E+03  0.90807280889E+02 -0.54221213609E+03  0.57688020441E+03  0.12500000000E+03 0.  0.
</event>
<event>
 4    0  0.2259196E-002  0.2700122E+03  0.7546771E-02  0.1101273E+00
         21   -1    0    0  502  501  0.00000000000E+00  0.00000000000E+00  0.15260087472E+04  0.15260087472E+04  0.00000000000E+00 0.  1.
         21   -1    0    0  501  502 -0.00000000000E+00 -0.00000000000E+00 -0.47776006280E+02  0.47776006280E+02  0.00000000000E+00 0.  1.
         25    1    1    2    0    0 -0.20073917714E+03  0.12276901799E+03  0.61164668219E+03  0.66716198397E+03  0.12500000000E+03 0.  0.
         25    1    1    2    0    0  0.20073917714E+03 -0.12276901799E+03  0.86658605877E+03  0.90662276955E+03  0.12500000000E+03 0.  0.
</event>
<event>
 4    0  0.2259196E-002  0.1522644E+03  0.7546771E-02  0.1197718E+00
         21   -1    0    0  502  501  0.00000000000E+00  0.00000000000E+00  0.84857322549E+02  0.84857322549E+02  0.00000000000E+00 0. -1.
         21   -1    0    0  501  502 -0.00000000000E+00 -0.00000000000E+00 -0.27321684535E+03  0.27321684535E+03  0.00000000000E+00 0. -1.
         25    1    1    2    0    0 -0.38643755854E+02 -0.59112130581E+02 -0.34549216746E+02  0.14766933407E+03  0.12500000000E+03 0.  0.
         25    1    1    2    0    0  0.38643755854E+02  0.59112130581E+02 -0.15381030606E+03  0.21040483383E+03  0.12500000000E+03 0.  0.
</event>
<event>
 4    0  0.2259196E-002  0.4017085E+03  0.7546771E-02  0.1043190E+00
         21   -1    0    0  502  501  0.00000000000E+00  0.00000000000E+00  0.12320181935E+04  0.12320181935E+04  0.00000000000E+00 0. -1.
         21   -1    0    0  501  502 -0.00000000000E+00 -0.00000000000E+00 -0.13097998011E+03  0.13097998011E+03  0.00000000000E+00 0.  1.
         25    1    1    2    0    0 -0.33452474041E+03 -0.18177567884E+03  0.59836884533E+03  0.72015239667E+03  0.12500000000E+03 0.  0.
         25    1    1    2    0    0  0.33452474041E+03  0.18177567884E+03  0.50266936809E+03  0.64284577698E+03  0.12500000000E+03 0.  0.
</event>
<event>
 4    0  0.2259196E-002  0.4797242E+03  0.7546771E-02  0.1019211E+00
         21   -1    0    0  502  501  0.00000000000E+00  0.00000000000E+00  0.26457808131E+03  0.26457808131E+03  0.00000000000E+00 0. -1.
         21   -1    0    0  501  502 -0.00000000000E+00 -0.00000000000E+00 -0.86981994914E+03  0.86981994914E+03  0.00000000000E+00 0.  1.
         25    1    1    2    0    0  0.29348757039E+03  0.34140201119E+03 -0.17407666946E+03  0.49861605878E+03  0.12500000000E+03 0.  0.
         25    1    1    2    0    0 -0.29348757039E+03 -0.34140201119E+03 -0.43116519837E+03  0.63578197167E+03  0.12500000000E+03 0.  0.
</event>
<event>
 4    0  0.2259196E-002  0.2417485E+03  0.7546771E-02  0.1118633E+00
         21   -1    0    0  502  501  0.00000000000E+00  0.00000000000E+00  0.52324525781E+03  0.52324525781E+03  0.00000000000E+00 0.  1.
         21   -1    0    0  501  502 -0.00000000000E+00 -0.00000000000E+00 -0.11169204830E+03  0.11169204830E+03  0.00000000000E+00 0.  1.
         25    1    1    2    0    0  0.20543511497E+03  0.19123589554E+02  0.22645871463E+03  0.33087436826E+03  0.12500000000E+03 0.  0.
         25    1    1    2    0    0 -0.20543511497E+03 -0.19123589554E+02  0.18509449488E+03  0.30406293785E+03  0.12500000000E+03 0.  0.
</event>
<event>
 4    0  0.2259196E-002  0.2201357E+03  0.7546771E-02  0.1133782E+00
         21   -1    0    0  502  501  0.00000000000E+00  0.00000000000E+00  0.56534436939E+03  0.56534436939E+03  0.00000000000E+00 0. -1.
         21   -1    0    0  501  502 -0.00000000000E+00 -0.00000000000E+00 -0.85717161287E+02  0.85717161287E+02  0.00000000000E+00 0. -1.
         25    1    1    2    0    0 -0.16893721459E+03  0.29690008121E+02  0.15341684326E+03  0.26188357499E+03  0.12500000000E+03 0.  0.
         25    1    1    2    0    0  0.16893721459E+03 -0.29690008121E+02  0.32621036485E+03  0.38917795568E+03  0.12500000000E+03 0.  0.
</event>
<event>
 4    0  0.2259196E-002  0.1597737E+03  0.7546771E-02  0.1188953E+00
         21   -1    0    0  502  501  0.00000000000E+00  0.00000000000E+00  0.24461280454E+02  0.24461280454E+02  0.00000000000E+00 0. -1.
         21   -1    0    0  501  502 -0.00000000000E+00 -0.00000000000E+00 -0.10435932370E+04  0.10435932370E+04  0.00000000000E+00 0. -1.
         25    1    1    2    0    0  0.86254061271E+01 -0.36425475598E+02 -0.81774550624E+03  0.82809053000E+03  0.12500000000E+03 0.  0.
         25    1    1    2    0    0 -0.86254061271E+01  0.36425475598E+02 -0.20138645026E+03  0.23996398741E+03  0.12500000000E+03 0.  0.
</event>
<event>
 4    0  0.2259196E-002  0.3111481E+03  0.7546771E-02  0.1079797E+00
         21   -1    0    0  502  501  0.00000000000E+00  0.00000000000E+00  0.30821845869E+03  0.30821845869E+03  0.00000000000E+00 0.  1.
         21   -1    0    0  501  502 -0.00000000000E+00 -0.00000000000E+00 -0.31410558268E+03  0.31410558268E+03  0.00000000000E+00 0.  1.
         25    1    1    2    0    0  0.14711609079E+03 -0.71381149694E+02  0.23041153006E+03  0.30895450455E+03  0.12500000000E+03 0.  0.
         25    1    1    2    0    0 -0.14711609079E+03  0.71381149694E+02 -0.23629865405E+03  0.31336953682E+03  0.12500000000E+03 0.  0.
</event>
<event>
 4    0  0.2259196E-002  0.1394339E+03  0.7546771E-02  0.1214093E+00
         21   -1    0    0  502  501  0.00000000000E+00  0.00000000000E+00  0.19588842013E+03  0.19588842013E+03  0.00000000000E+00 0. -1.
         21   -1    0    0  501  502 -0.00000000000E+00 -0.00000000000E+00 -0.99249356871E+02  0.99249356871E+02  0.00000000000E+00 0. -1.
         25    1    1    2    0    0  0.48678545202E+02  0.24477410736E+01  0.88497672122E+02  0.16072470305E+03  0.12500000000E+03 0.  0.
         25    1    1    2    0    0 -0.48678545202E+02 -0.24477410736E+01  0.81413911375E+01  0.13441307395E+03  0.12500000000E+03 0.  0.
</event>
<event>
 4    0  0.2259196E-002  0.4695434E+03  0.7546771E-02  0.1022049E+00
         21   -1    0    0  502  501  0.00000000000E+00  0.00000000000E+00  0.17073510888E+03  0.17073510888E+03  0.00000000000E+00 0.  1.
         21   -1    0    0  501  502 -0.00000000000E+00 -0.00000000000E+00 -0.12913046362E+04  0.12913046362E+04  0.00000000000E+00 0.  1.
         25    1    1    2    0    0  0.18910715847E+03  0.32262253944E+03 -0.16336065901E+03  0.42680033417E+03  0.12500000000E+03 0.  0.
         25    1    1    2    0    0 -0.18910715847E+03 -0.32262253944E+03 -0.95720886828E+03  0.10352394109E+04  0.12500000000E+03 0.  0.
</event>
<event>
 4    0  0.2259196E-002  0.2043009E+03  0.7546771E-02  0.1146160E+00
         21   -1    0    0  502  501  0.00000000000E+00  0.00000000000E+00  0.10775246120E+04  0.10775246120E+04  0.00000000000E+00 0. -1.
         21   -1    0    0  501  502 -0.00000000000E+00 -0.00000000000E+00 -0.38735861529E+02  0.38735861529E+02  0.00000000000E+00 0. -1.
         25    1    1    2    0    0  0.11274970395E+03 -0.98749781709E+02  0.68443908292E+03  0.71172036177E+03  0.12500000000E+03 0.  0.
         25    1    1    2    0    0 -0.11274970395E+03  0.98749781709E+02  0.35434966754E+03  0.40454011175E+03  0.12500000000E+03 0.  0.
</event>
<event>
 4    0  0.2259196E-002  0.1779800E+03  0.7546771E-02  0.1169772E+00
         21   -1    0    0  502  501  0.00000000000E+00  0.00000000000E+00  0.51151071868E+02  0.51151071868E+02  0.00000000000E+00 0. -1.
         21   -1    0    0  501  502 -0.00000000000E+00 -0.00000000000E+00 -0.61928100981E+03  0.61928100981E+03  0.00000000000E+00 0. -1.
         25    1    1    2    0    0 -0.95950970596E+02 -0.71210342943E+02 -0.20472764260E+03  0.26798490507E+03  0.12500000000E+03 0.  0.
         25    1    1    2    0    0  0.95950970596E+02  0.71210342943E+02 -0.36340229535E+03  0.40244717662E+03  0.12500000000E+03 0.  0.
</event>
<event>
 4    0  0.2259196E-002  0.1991809E+03  0.7546771E-02  0.1150432E+00
         21   -1    0    0  502  501  0.00000000000E+00  0.00000000000E+00  0.14457990990E+04  0.14457990990E+04  0.00000000000E+00 0.  1.
         21   -1    0    0  501  502 -0.00000000000E+00 -0.00000000000E+00 -0.27440205459E+02  0.27440205459E+02  0.00000000000E+00 0.  1.
         25    1    1    2    0    0  0.14311727319E+03 -0.51553669501E+02  0.59775914567E+03  0.62934992727E+03  0.12500000000E+03 0.  0.
         25    1    1    2    0    0 -0.14311727319E+03  0.51553669501E+02  0.82059974783E+03  0.84388937714E+03  0.12500000000E+03 0.  0.
</event>
<event>
 4    0  0.2259196E-002  0.2167518E+03  0.7546771E-02  0.1136328E+00
         21   -1    0    0  502  501  0.00000000000E+00  0.00000000000E+00  0.32949397916E+03  0.32949397916E+03  0.00000000000E+00 0.  1.
         21   -1    0    0  501  502 -0.00000000000E+00 -0.00000000000E+00 -0.14258628548E+03  0.14258628548E+03  0.00000000000E+00 0.  1.
         25    1    1    2    0    0  0.42799750276E+02  0.71400913414E+02 -0.76743616390E+02  0.16865494869E+03  0.12500000000E+03 0.  0.
         25    1    1    2    0    0 -0.42799750276E+02 -0.71400913414E+02  0.26365131007E+03  0.30342531595E+03  0.12500000000E+03 0.  0.
</event>
<event>
 4    0  0.2259196E-002  0.2841431E+03  0.7546771E-02  0.1093447E+00
         21   -1    0    0  502  501  0.00000000000E+00  0.00000000000E+00  0.10499536051E+03  0.10499536051E+03  0.00000000000E+00 0.  1.
         21   -1    0    0  501  502 -0.00000000000E+00 -0.00000000000E+00 -0.76896086176E+03  0.76896086176E+03  0.00000000000E+00 0.  1.
         25    1    1    2    0    0  0.69297087855E+02 -0.23933026704E+03 -0.41665363389E+03  0.50130461172E+03  0.12500000000E+03 0.  0.
         25    1    1    2    0    0 -0.69297087855E+02  0.23933026704E+03 -0.24731186736E+03  0.37265161055E+03  0.12500000000E+03 0.  0.
</event>
<event>
 4    0  0.2259196E-002  0.2689912E+03  0.7546771E-02  0.1101858E+00
         21   -1    0    0  502  501  0.00000000000E+00  0.00000000000E+00  0.37839355172E+03  0.37839355172E+03  0.00000000000E+00 0. -1.
         21   -1    0    0  501  502 -0.00000000000E+00 -0.00000000000E+00 -0.19121954660E+03  0.19121954660E+03  0.00000000000E+00 0.  1.
         25    1    1    2    0    0  0.13611440571E+03  0.18795441026E+03  0.15038079730E+03  0.30346890446E+03  0.12500000000E+03 0.  0.
         25    1    1    2    0    0 -0.13611440571E+03 -0.18795441026E+03  0.36793207825E+02  0.26614419385E+03  0.12500000000E+03 0.  0.
</event>
<event>
 4    0  0.2259196E-002  0.2246289E+03  0.7546771E-02  0.1130478E+00
         21   -1    0    0  502  501  0.00000000000E+00  0.00000000000E+00  0.55534780287E+02  0.55534780287E+02  0.00000000000E+00 0.  1.
         21   -1    0    0  501  502 -0.00000000000E+00 -0.00000000000E+00 -0.90858644879E+03  0.90858644879E+03  0.00000000000E+00 0.  1.
         25    1    1    2    0    0 -0.89162914161E+02 -0.37728990883E+02 -0.76894824508E+03  0.78503497096E+03  0.12500000000E+03 0.  0.
         25    1    1    2    0    0  0.89162914161E+02  0.37728990883E+02 -0.84103423419E+02  0.17908625811E+03  0.12500000000E+03 0.  0.
</event>
<event>
 4    0  0.2259196E-002  0.1867214E+03  0.7546771E-02  0.1161452E+00
         21   -1    0    0  502  501  0.00000000000E+00  0.00000000000E+00  0.47681170915E+02  0.47681170915E+02  0.00000000000E+00 0.  1.
         21   -1    0    0  501  502 -0.00000000000E+00 -0.00000000000E+00 -0.73120837540E+03  0.73120837540E+03  0.00000000000E+00 0.  1.
         25    1    1    2    0    0 -0.51019470962E+02  0.12010280491E+03 -0.24366469447E+03  0.30335647924E+03  0.12500000000E+03 0.  0.
         25    1    1    2    0    0  0.51019470962E+02 -0.12010280491E+03 -0.43986251001E+03  0.47553306707E+03  0.12500000000E+03 0.  0.
</event>
<event>
 4    0  0.2259196E-002  0.2637443E+03  0.7546771E-02  0.1104914E+00
         21   -1    0    0  502  501  0.00000000000E+00  0.00000000000E+00  0.63875995877E+02  0.63875995877E+02  0.00000000000E+00 0. -1.
         21   -1    0    0  501  502 -0.00000000000E+00 -0.00000000000E+00 -0.10890015089E+04  0.10890015089E+04  0.00000000000E+00 0. -1.
         25    1    1    2    0    0 -0.28251221496E+01 -0.40035289121E+02 -0.10125118020E+04  0.10209877349E+04  0.12500000000E+03 0.  0.
         25    1    1    2    0    0  0.28251221496E+01  0.40035289121E+02 -0.12613711049E+02  0.13188976987E+03  0.12500000000E+03 0.  0.
</event>
<event>
 4    0  0.2259196E-002  0.3649945E+03  0.7546771E-02  0.1056624E+00
         21   -1    0    0  502  501  0.00000000000E+00  0.00000000000E+00  0.42423188553E+03  0.42423188553E+03  0.00000000000E+00 0.  1.
         21   -1    0    0  501  502 -0.00000000000E+00 -0.00000000000E+00 -0.31402862542E+03  0.31402862542E+03  0.00000000000E+00 0.  1.
         25    1    1    2    0    0  0.30268711832E+03  0.13732773097E+03  0.14042321135E+03  0.38186656776E+03  0.12500000000E+03 0.  0.
         25    1    1    2    0    0 -0.30268711832E+03 -0.13732773097E+03 -0.30219951230E+02  0.35639394319E+03  0.12500000000E+03 0.  0.
</event>
<event>
 4    0  0.2259196E-002  0.1922936E+03  0.7546771E-02  0.1156409E+00
         21   -1    0    0  502  501  0.00000000000E+00  0.00000000000E+00  0.24510547384E+02  0.24510547384E+02  0.00000000000E+00 0. -1.
         21   -1    0    0  501  502 -0.00000000000E+00 -0.00000000000E+00 -0.15086084017E+04  0.15086084017E+04  0.00000000000E+00 0. -1.
         25    1    1    2    0    0 -0.36851644543E+02 -0.89400029516E+02 -0.30533483823E+03  0.34380920933E+03  0.12500000000E+03 0.  0.
         25    1    1    2    0    0  0.36851644543E+02  0.89400029516E+02 -0.11787630160E+04  0.11893097397E+04  0.12500000000E+03 0.  0.
</event>
<event>
 4    0  0.2259196E-002  0.2518686E+03  0.7546771E-02  0.1112130E+00
         21   -1    0    0  502  501  0.00000000000E+00  0.00000000000E+00  0.61860921500E+03  0.61860921500E+03  0.00000000000E+00 0. -1.
         21   -1    0    0  501  502 -0.00000000000E+00 -0.00000000000E+00 -0.10254904670E+03  0.10254904670E+03  0.00000000000E+00 0. -1.
         25    1    1    2    0    0  0.42164862212E+01 -0.12760708437E+03  0.51216286931E+03  0.54243631095E+03  0.12500000000E+03 0.  0.
         25    1    1    2    0    0 -0.42164862212E+01  0.12760708437E+03  0.38972989840E+01  0.17872195074E+03  0.12500000000E+03 0.  0.
</event>
<event>
 4    0  0.2259196E-002  0.4273122E+03  0.7546771E-02  0.1034712E+00
         21   -1    0    0  502  501  0.00000000000E+00  0.00000000000E+00  0.22929748564E+03  0.22929748564E+03  0.00000000000E+00 0. -1.
         21   -1    0    0  501  502 -0.00000000000E+00 -0.00000000000E+00 -0.79632678923E+03  0.79632678923E+03  0.00000000000E+00 0. -1.
         25    1    1    2    0    0  0.28411684970E+02 -0.19122205827E+03  0.14851297355E+03  0.27396022106E+03  0.12500000000E+03 0.  0.
         25    1    1    2    0    0 -0.28411684970E+02  0.19122205827E+03 -0.71554227714E+03  0.75166405381E+03  0.12500000000E+03 0.  0.
</event>
<event>
 4    0  0.2259196E-002  0.2061923E+03  0.7546771E-02  0.1144617E+00
         21   -1    0    0  502  501  0.00000000000E+00  0.00000000000E+00  0.21420432698E+03  0.21420432698E+03  0.00000000000E+00 0. -1.
         21   -1    0    0  501  502 -0.00000000000E+00 -0.00000000000E+00 -0.19847986135E+03  0.19847986135E+03  0.00000000000E+00 0. -1.
         25    1    1    2    0    0  0.14494623783E+02 -0.74218719771E+02 -0.13774860164E+03  0.20079389866E+03  0.12500000000E+03 0.  0.
         25    1    1    2    0    0 -0.14494623783E+02  0.74218719771E+02  0.15347306727E+03  0.21189028968E+03  0.12500000000E+03 0.  0.
</event>
<event>
 4    0  0.2259196E-002  0.1985276E+03  0.7546771E-02  0.1150987E+00
         21   -1    0    0  502  501  0.00000000000E+00  0.00000000000E+00  0.21575823919E+04  0.21575823919E+04  0.00000000000E+00 0. -1.
         21   -1    0    0  501  502 -0.00000000000E+00 -0.00000000000E+00 -0.18267295898E+02  0.18267295898E+02  0.00000000000E+00 0. -1.
         25    1    1    2    0    0  0.53078331557E+02 -0.11160060486E+03  0.15753666638E+04  0.15851426212E+04  0.12500000000E+03 0.  0.
         25    1    1    2    0    0 -0.53078331557E+02  0.11160060486E+03  0.56394843218E+03  0.59070706653E+03  0.12500000000E+03 0.  0.
</event>
<event>
 4    0  0.2259196E-002  0.1983646E+03  0.7546771E-02  0.1151126E+00
         21   -1    0    0  502  501  0.00000000000E+00  0.00000000000E+00  0.13963993672E+03  0.13963993672E+03  0.00000000000E+00 0. -1.
         21   -1    0    0  501  502 -0.00000000000E+00 -0.00000000000E+00 -0.28178563355E+03  0.28178563355E+03  0.00000000000E+00 0. -1.
         25    1    1    2    0    0  0.10045665497E+02 -0.12124228201E+03 -0.17141425462E+03  0.24455766810E+03  0.12500000000E+03 0.  0.
         25    1    1    2    0    0 -0.10045665497E+02  0.12124228201E+03  0.29268557783E+02  0.17686790216E+03  0.12500000000E+03 0.  0.
</event>
<event>
 4    0  0.2259196E-002  0.2421585E+03  0.7546771E-02  0.1118363E+00
         21   -1    0    0  502  501  0.00000000000E+00  0.00000000000E+00  0.13318216869E+03  0.13318216869E+03  0.00000000000E+00 0. -1.
         21   -1    0    0  501  502 -0.00000000000E+00 -0.00000000000E+00 -0.44030466063E+03  0.44030466063E+03  0.00000000000E+00 0. -1.
         25    1    1    2    0    0 -0.10268822143E+03  0.38833723133E+02 -0.36192102537E+03  0.39832745007E+03  0.12500000000E+03 0.  0.
         25    1    1    2    0    0  0.10268822143E+03 -0.38833723133E+02  0.54798533434E+02  0.17515937925E+03  0.12500000000E+03 0.  0.
</event>
<event>
 4    0  0.2259196E-002  0.1845202E+03  0.7546771E-02  0.1163499E+00
         21   -1    0    0  502  501  0.00000000000E+00  0.00000000000E+00  0.78966663930E+02  0.78966663930E+02  0.00000000000E+00 0.  1.
         21   -1    0    0  501  502 -0.00000000000E+00 -0.00000000000E+00 -0.43116537776E+03  0.43116537776E+03  0.00000000000E+00 0.  1.
         25    1    1    2    0    0  0.10784800468E+03  0.80079054296E+02 -0.20300474290E+03  0.27364168668E+03  0.12500000000E+03 0.  0.
         25    1    1    2    0    0 -0.10784800468E+03 -0.80079054296E+02 -0.14919397093E+03  0.23649035501E+03  0.12500000000E+03 0.  0.
</event>
<event>
 4    0  0.2259196E-002  0.3043596E+03  0.7546771E-02  0.1083081E+00
         21   -1    0    0  502  501  0.00000000000E+00  0.00000000000E+00  0.30838941634E+03  0.30838941634E+03  0.00000000000E+00 0. -1.
         21   -1    0    0  501  502 -0.00000000000E+00 -0.00000000000E+00 -0.30038245562E+03  0.30038245562E+03  0.00000000000E+00 0. -1.
         25    1    1    2    0    0  0.23197953270E+03  0.12511284674E+03  0.90855924753E+02  0.30552827541E+03  0.12500000000E+03 0.  0.
         25    1    1    2    0    0 -0.23197953270E+03 -0.12511284674E+03 -0.82848964036E+02  0.30324359655E+03  0.12500000000E+03 0.  0.
</event>
<event>
 4    0  0.2259196E-002  0.2443157E+03  0.7546771E-02  0.1116951E+00
         21   -1    0    0  502  501  0.00000000000E+00  0.00000000000E+00  0.86748386329E+03  0.86748386329E+03  0.00000000000E+00 0. -1.
         21   -1    0    0  501  502 -0.00000000000E+00 -0.00000000000E+00 -0.68808362950E+02  0.68808362950E+02  0.00000000000E+00 0. -1.
         25    1    1    2    0    0  0.15507804623E+03  0.11838148537E+02  0.66947995569E+03  0.69858267460E+03  0.12500000000E+03 0.  0.
         25    1    1    2    0    0 -0.15507804623E+03 -0.11838148537E+02  0.12919554465E+03  0.23770955163E+03  0.12500000000E+03 0.  0.
</event>
<event>
 4    0  0.2259196E-002  0.1565080E+03  0.7546771E-02  0.1192697E+00
         21   -1    0    0  502  501  0.00000000000E+00  0.00000000000E+00  0.30981188888E+02  0.30981188888E+02  0.00000000000E+00 0. -1.
         21   -1    0    0  501  502 -0.00000000000E+00 -0.00000000000E+00 -0.79063291686E+03  0.79063291686E+03  0.00000000000E+00 0. -1.
         25    1    1    2    0    0  0.81701909974E+02  0.36825901152E+01 -0.25724359306E+03  0.29746937613E+03  0.12500000000E+03 0.  0.
         25    1    1    2    0    0 -0.81701909974E+02 -0.36825901152E+01 -0.50240813491E+03  0.52414472962E+03  0.12500000000E+03 0.  0.
</event>
<event>
 4    0  0.2259196E-002  0.2796412E+03  0.7546771E-02  0.1095885E+00
         21   -1    0    0  502  501  0.00000000000E+00  0.00000000000E+00  0.24025995872E+03  0.24025995872E+03  0.00000000000E+00 0.  1.
         21   -1    0    0  501  502 -0.00000000000E+00 -0.00000000000E+00 -0.32547744498E+03  0.32547744498E+03  0.00000000000E+00 0.  1.
         25    1    1    2    0    0  0.11848744096E+03  0.15249719700E+03 -0.20343917793E+03  0.30709472134E+03  0.12500000000E+03 0.  0.
         25    1    1    2    0    0 -0.11848744096E+03 -0.15249719700E+03  0.11822169166E+03  0.25864268236E+03  0.12500000000E+03 0.  0.
</event>
<event>
 4    0  0.2259196E-002  0.2535156E+03  0.7546771E-02  0.1111103E+00
         21   -1    0    0  502  501  0.00000000000E+00  0.00000000000E+00  0.31156527715E+03  0.31156527715E+03  0.00000000000E+00 0. -1.
         21   -1    0    0  501  502 -0.00000000000E+00 -0.00000000000E+00 -0.20628146901E+03  0.20628146901E+03  0.00000000000E+00 0. -1.
         25    1    1    2    0    0 -0.87904302022E+02  0.70039482196E+02 -0.14117557608E+03  0.21951819665E+03  0.12500000000E+03 0.  0.
         25    1    1    2    0    0  0.87904302022E+02 -0.70039482196E+02  0.24645938421E+03  0.29832854950E+03  0.12500000000E+03 0.  0.
</event>
<event>
 4    0  0.2259196E-002  0.1701287E+03  0.7546771E-02  0.1177714E+00
         21   -1    0    0  502  501  0.00000000000E+00  0.00000000000E+00  0.82902426450E+02  0.82902426450E+02  0.00000000000E+00 0.  1.
         21   -1    0    0  501  502 -0.00000000000E+00 -0.00000000000E+00 -0.34913062513E+03  0.34913062513E+03  0.00000000000E+00 0.  1.
         25    1    1    2    0    0 -0.14830218243E+02  0.19910533751E+01 -0.27841224883E+03  0.30555241771E+03  0.12500000000E+03 0.  0.
         25    1    1    2    0    0  0.14830218243E+02 -0.19910533751E+01  0.12184050153E+02  0.12648063387E+03  0.12500000000E+03 0.  0.
</event>
<event>
 4    0  0.2259196E-002  0.2561776E+03  0.7546771E-02  0.1109462E+00
         21   -1    0    0  502  501  0.00000000000E+00  0.00000000000E+00  0.86476830329E+02  0.86476830329E+02  0.00000000000E+00 0. -1.
         21   -1    0    0  501  502 -0.00000000000E+00 -0.00000000000E+00 -0.75889624458E+03  0.75889624458E+03  0.00000000000E+00 0. -1.
         25    1    1    2    0    0 -0.17041673271E+03 -0.10536357883E+03 -0.17238294390E+03  0.29237685592E+03  0.12500000000E+03 0.  0.
         25    1    1    2    0    0  0.17041673271E+03  0.10536357883E+03 -0.50003647035E+03  0.55299621899E+03  0.12500000000E+03 0.  0.
</event>
<event>
 4    0  0.2259196E-002  0.1775102E+03  0.7546771E-02  0.1170235E+00
         21   -1    0    0  502  501  0.00000000000E+00  0.00000000000E+00  0.20679584703E+03  0.20679584703E+03  0.00000000000E+00 0.  1.
         21   -1    0    0  501  502 -0.00000000000E+00 -0.00000000000E+00 -0.15237196116E+03  0.15237196116E+03  0.00000000000E+00 0.  1.
         25    1    1    2    0    0  0.97486692437E+02  0.76384389840E+02  0.50865804433E+02  0.18316812025E+03  0.12500000000E+03 0.  0.
         25    1    1    2    0    0 -0.97486692437E+02 -0.76384389840E+02  0.35580814311E+01  0.17599968795E+03  0.12500000000E+03 0.  0.
</event>
<event>
 4    0  0.2259196E-002  0.1814359E+03  0.7546771E-02  0.1166421E+00
         21   -1    0    0  502  501  0.00000000000E+00  0.00000000000E+00  0.22173760336E+03  0.22173760336E+03  0.00000000000E+00 0.  1.
         21   -1    0    0  501  502 -0.00000000000E+00 -0.00000000000E+00 -0.14845927482E+03  0.14845927482E+03  0.00000000000E+00 0.  1.
         25    1    1    2    0    0  0.95229172588E+02  0.61809280554E+02 -0.31070930534E+02  0.17169561788E+03  0.12500000000E+03 0.  0.
         25    1    1    2    0    0 -0.95229172588E+02 -0.61809280554E+02  0.10434925908E+03  0.19850126031E+03  0.12500000000E+03 0.  0.
</event>
<event>
 4    0  0.2259196E-002  0.1926795E+03  0.7546771E-02  0.1156067E+00
         21   -1    0    0  502  501  0.00000000000E+00  0.00000000000E+00  0.42452973980E+03  0.42452973980E+03  0.00000000000E+00 0. -1.
         21   -1    0    0  501  502 -0.00000000000E+00 -0.00000000000E+00 -0.87450643953E+02  0.87450643953E+02  0.00000000000E+00 0. -1.
         25    1    1    2    0    0  0.15993757222E+02  0.73455069013E+02  0.12811120963E+01  0.14587010894E+03  0.12500000000E+03 0.  0.
         25    1    1    2    0    0 -0.15993757222E+02 -0.73455069013E+02  0.33579798375E+03  0.36611027481E+03  0.12500000000E+03 0.  0.
</event>
<event>
 4    0  0.2259196E-002  0.2556972E+03  0.7546771E-02  0.1109756E+00
         21   -1    0    0  502  501  0.00000000000E+00  0.00000000000E+00  0.20633737346E+04  0.20633737346E+04  0.00000000000E+00 0.  1.
         21   -1    0    0  501  502 -0.00000000000E+00 -0.00000000000E+00 -0.31686494989E+02  0.31686494989E+02  0.00000000000E+00 0.  1.
         25    1    1    2    0    0  0.26630617078E+02  0.21986217921E+03  0.11248138709E+04  0.11532041501E+04  0.12500000000E+03 0.  0.
         25    1    1    2    0    0 -0.26630617078E+02 -0.21986217921E+03  0.90687336871E+03  0.94185607950E+03  0.12500000000E+03 0.  0.
</event>
<event>
 4    0  0.2259196E-002  0.1674877E+03  0.7546771E-02  0.1180493E+00
         21   -1    0    0  502  501  0.00000000000E+00  0.00000000000E+00  0.16319522338E+03  0.16319522338E+03  0.00000000000E+00 0.  1.
         21   -1    0    0  501  502 -0.00000000000E+00 -0.00000000000E+00 -0.17189311862E+03  0.17189311862E+03  0.00000000000E+00 0.  1.
         25    1    1    2    0    0  0.72344719682E+02 -0.83394413170E+02 -0.19805669397E+02  0.16794538146E+03  0.12500000000E+03 0.  0.
         25    1    1    2    0    0 -0.72344719682E+02  0.83394413170E+02  0.11107774155E+02  0.16714296055E+03  0.12500000000E+03 0.  0.
</event>
<event>
 4    0  0.2259196E-002  0.2416234E+03  0.7546771E-02  0.1118716E+00
         21   -1    0    0  502  501  0.00000000000E+00  0.00000000000E+00  0.13961930717E+03  0.13961930717E+03  0.00000000000E+00 0.  1.
         21   -1    0    0  501  502 -0.00000000000E+00 -0.00000000000E+00 -0.41815032031E+03  0.41815032031E+03  0.00000000000E+00 0.  1.
         25    1    1    2    0    0 -0.16772002218E+03 -0.12057923709E+03 -0.12846884869E+03  0.27349333326E+03  0.12500000000E+03 0.  0.
         25    1    1    2    0    0  0.16772002218E+03  0.12057923709E+03 -0.15006216445E+03  0.28427629422E+03  0.12500000000E+03 0.  0.
</event>
<event>
 4    0  0.2259196E-002  0.2371861E+03  0.7546771E-02  0.1121682E+00
         21   -1    0    0  502  501  0.00000000000E+00  0.00000000000E+00  0.22362365559E+03  0.22362365559E+03  0.00000000000E+00 0. -1.
         21   -1    0    0  501  502 -0.00000000000E+00 -0.00000000000E+00 -0.25157116371E+03  0.25157116371E+03  0.00000000000E+00 0. -1.
         25    1    1    2    0    0  0.14391238044E+03 -0.12943288418E+03 -0.70361843364E+02  0.24091374754E+03  0.12500000000E+03 0.  0.
         25    1    1    2    0    0 -0.14391238044E+03  0.12943288418E+03  0.42414335248E+02  0.23428107176E+03  0.12500000000E+03 0.  0.
</event>
<event>
 4    0  0.2259196E-002  0.2372724E+03  0.7546771E-02  0.1121623E+00
         21   -1    0    0  502  501  0.00000000000E+00  0.00000000000E+00  0.27889972584E+03  0.27889972584E+03  0.00000000000E+00 0.  1.
         21   -1    0    0  501  502 -0.00000000000E+00 -0.00000000000E+00 -0.20185824577E+03  0.20185824577E+03  0.00000000000E+00 0.  1.
         25    1    1    2    0    0 -0.86148801101E+02 -0.13363710404E+03  0.16421251595E+03  0.26052109685E+03  0.12500000000E+03 0.  0.
         25    1    1    2    0    0  0.86148801101E+02  0.13363710404E+03 -0.87171035884E+02  0.22023687476E+03  0.12500000000E+03 0.  0.
</event>
<event>
 4    0  0.2259196E-002  0.2164392E+03  0.7546771E-02  0.1136566E+00
         21   -1    0    0  502  501  0.00000000000E+00  0.00000000000E+00  0.93026657346E+02  0.93026657346E+02  0.00000000000E+00 0. -1.
         21   -1    0    0  501  502 -0.00000000000E+00 -0.00000000000E+00 -0.50357517501E+03  0.50357517501E+03  0.00000000000E+00 0. -1.
         25    1    1    2    0    0  0.35137939244E+00  0.17447654106E+03 -0.16681404174E+03  0.27183471333E+03  0.12500000000E+03 0.  0.
         25    1    1    2    0    0 -0.35137939244E+00 -0.17447654106E+03 -0.24373447592E+03  0.32476711903E+03  0.12500000000E+03 0.  0.
</event>
<event>
 4    0  0.2259196E-002  0.2590453E+03  0.7546771E-02  0.1107718E+00
         21   -1    0    0  502  501  0.00000000000E+00  0.00000000000E+00  0.33021867984E+02  0.33021867984E+02  0.00000000000E+00 0.  1.
         21   -1    0    0  501  502 -0.00000000000E+00 -0.00000000000E+00 -0.20321214406E+04  0.20321214406E+04  0.00000000000E+00 0.  1.
         25    1    1    2    0    0  0.38537001331E+01  0.22669214633E+03 -0.96496833793E+03  0.99909612822E+03  0.12500000000E+03 0.  0.
         25    1    1    2    0    0 -0.38537001331E+01 -0.22669214633E+03 -0.10341312346E+04  0.10660471803E+04  0.12500000000E+03 0.  0.
</event>
<event>
 4    0  0.2259196E-002  0.1725504E+03  0.7546771E-02  0.1175214E+00
         21   -1    0    0  502  501  0.00000000000E+00  0.00000000000E+00  0.79554361751E+03  0.79554361751E+03  0.00000000000E+00 0. -1.
         21   -1    0    0  501  502 -0.00000000000E+00 -0.00000000000E+00 -0.37425543743E+02  0.37425543743E+02  0.00000000000E+00 0. -1.
         25    1    1    2    0    0  0.76750188487E+02  0.33524651312E+02  0.58292947462E+03  0.60203510367E+03  0.12500000000E+03 0.  0.
         25    1    1    2    0    0 -0.76750188487E+02 -0.33524651312E+02  0.17518859915E+03  0.23093405758E+03  0.12500000000E+03 0.  0.
</event>
<event>
 4    0  0.2259196E-002  0.2941802E+03  0.7546771E-02  0.1088187E+00
         21   -1    0    0  502  501  0.00000000000E+00  0.00000000000E+00  0.17611942662E+03  0.17611942662E+03  0.00000000000E+00 0.  1.
         21   -1    0    0  501  502 -0.00000000000E+00 -0.00000000000E+00 -0.49138243955E+03  0.49138243955E+03  0.00000000000E+00 0.  1.
         25    1    1    2    0    0  0.22385515981E+03  0.13181097832E+03 -0.91170731366E+02  0.30236132166E+03  0.12500000000E+03 0.  0.
         25    1    1    2    0    0 -0.22385515981E+03 -0.13181097832E+03 -0.22409228156E+03  0.36514054450E+03  0.12500000000E+03 0.  0.
</event>
<event>
 4    0  0.2259196E-002  0.1523443E+03  0.7546771E-02  0.1197622E+00
         21   -1    0    0  502  501  0.00000000000E+00  0.00000000000E+00  0.22029145113E+02  0.22029145113E+02  0.00000000000E+00 0. -1.
         21   -1    0    0  501  502 -0.00000000000E+00 -0.00000000000E+00 -0.10535496672E+04  0.10535496672E+04  0.00000000000E+00 0. -1.
         25    1    1    2    0    0 -0.15464541000E+02  0.85323513579E+02 -0.54412086989E+03  0.56498829638E+03  0.12500000000E+03 0.  0.
         25    1    1    2    0    0  0.15464541000E+02 -0.85323513579E+02 -0.48739965221E+03  0.51059051594E+03  0.12500000000E+03 0.  0.
</event>
<event>
 4    0  0.2259196E-002  0.1757368E+03  0.7546771E-02  0.1171994E+00
         21   -1    0    0  502  501  0.00000000000E+00  0.00000000000E+00  0.46830746444E+03  0.46830746444E+03  0.00000000000E+00 0. -1.
         21   -1    0    0  501  502 -0.00000000000E+00 -0.00000000000E+00 -0.65946869720E+02  0.65946869720E+02  0.00000000000E+00 0. -1.
         25    1    1    2    0    0 -0.95756393238E+02  0.66737695380E+02  0.26264721911E+03  0.31341947696E+03  0.12500000000E+03 0.  0.
         25    1    1    2    0    0  0.95756393238E+02 -0.66737695380E+02  0.13971337561E+03  0.22083485720E+03  0.12500000000E+03 0.  0.
</event>
<event>
 4    0  0.2259196E-002  0.1950645E+03  0.7546771E-02  0.1153971E+00
         21   -1    0    0  502  501  0.00000000000E+00  0.00000000000E+00  0.60812009231E+03  0.60812009231E+03  0.00000000000E+00 0.  1.
         21   -1    0    0  501  502 -0.00000000000E+00 -0.00000000000E+00 -0.62570117671E+02  0.62570117671E+02  0.00000000000E+00 0.  1.
         25    1    1    2    0    0  0.91547334072E+02  0.40939218507E+02  0.46396590822E+03  0.49086280973E+03  0.12500000000E+03 0.  0.
         25    1    1    2    0    0 -0.91547334072E+02 -0.40939218507E+02  0.81584066422E+02  0.17982740025E+03  0.12500000000E+03 0.  0.
</event>
<event>
 4    0  0.2259196E-002  0.2510156E+03  0.7546771E-02  0.1112665E+00
         21   -1    0    0  502  501  0.00000000000E+00  0.00000000000E+00  0.98227560306E+03  0.98227560306E+03  0.00000000000E+00 0.  1.
         21   -1    0    0  501  502 -0.00000000000E+00 -0.00000000000E+00 -0.64145783869E+02  0.64145783869E+02  0.00000000000E+00 0.  1.
         25    1    1    2    0    0  0.90140754717E+02 -0.19756884190E+03  0.49033300804E+03  0.55064531391E+03  0.12500000000E+03 0.  0.
         25    1    1    2    0    0 -0.90140754717E+02  0.19756884190E+03  0.42779681115E+03  0.49577607303E+03  0.12500000000E+03 0.  0.
</event>
<event>
 4    0  0.2259196E-002  0.1957034E+03  0.7546771E-02  0.1153416E+00
         21   -1    0    0  502  501  0.00000000000E+00  0.00000000000E+00  0.73310091385E+03  0.73310091385E+03  0.00000000000E+00 0.  1.
         21   -1    0    0  501  502 -0.00000000000E+00 -0.00000000000E+00 -0.52243594896E+02  0.52243594896E+02  0.00000000000E+00 0.  1.
         25    1    1    2    0    0 -0.29778490952E+01 -0.86442865729E+02  0.93107076334E+02  0.17825589551E+03  0.12500000000E+03 0.  0.
         25    1    1    2    0    0  0.29778490952E+01  0.86442865729E+02  0.58775024262E+03  0.60708861324E+03  0.12500000000E+03 0.  0.
</event>
<event>
 4    0  0.2259196E-002  0.2259250E+03  0.7546771E-02  0.1129541E+00
         21   -1    0    0  502  501  0.00000000000E+00  0.00000000000E+00  0.30795836164E+02  0.30795836164E+02  0.00000000000E+00 0. -1.
         21   -1    0    0  501  502 -0.00000000000E+00 -0.00000000000E+00 -0.16574359438E+04  0.16574359438E+04  0.00000000000E+00 0. -1.
         25    1    1    2    0    0  0.16870836808E+03  0.73922886994E+02 -0.95754275199E+03  0.98307691895E+03  0.12500000000E+03 0.  0.
         25    1    1    2    0    0 -0.16870836808E+03 -0.73922886994E+02 -0.66909735568E+03  0.70515486105E+03  0.12500000000E+03 0.  0.
</event>
<event>
 4    0  0.2259196E-002  0.2990817E+03  0.7546771E-02  0.1085701E+00
         21   -1    0    0  502  501  0.00000000000E+00  0.00000000000E+00  0.16028674617E+03  0.16028674617E+03  0.00000000000E+00 0.  1.
         21   -1    0    0  501  502 -0.00000000000E+00 -0.00000000000E+00 -0.55806165552E+03  0.55806165552E+03  0.00000000000E+00 0.  1.
         25    1    1    2    0    0 -0.25065678807E+03  0.10466008022E+03 -0.20670076186E+03  0.36350070530E+03  0.12500000000E+03 0.  0.
         25    1    1    2    0    0  0.25065678807E+03 -0.10466008022E+03 -0.19107414749E+03  0.35484769639E+03  0.12500000000E+03 0.  0.
</event>
<event>
 4    0  0.2259196E-002  0.2955930E+03  0.7546771E-02  0.1087465E+00
         21   -1    0    0  502  501  0.00000000000E+00  0.00000000000E+00  0.40066198059E+03  0.40066198059E+03  0.00000000000E+00 0.  1.
         21   -1    0    0  501  502 -0.00000000000E+00 -0.00000000000E+00 -0.21807718310E+03  0.21807718310E+03  0.00000000000E+00 0.  1.
         25    1    1    2    0    0  0.69665875103E+02 -0.18420552884E+03 -0.98732912229E+02  0.25329468800E+03  0.12500000000E+03 0.  0.
         25    1    1    2    0    0 -0.69665875103E+02  0.18420552884E+03  0.28131770972E+03  0.36544447569E+03  0.12500000000E+03 0.  0.
</event>
<event>
 4    0  0.2259196E-002  0.1944885E+03  0.7546771E-02  0.1154474E+00
         21   -1    0    0  502  501  0.00000000000E+00  0.00000000000E+00  0.10626662904E+04  0.10626662904E+04  0.00000000000E+00 0.  1.
         21   -1    0    0  501  502 -0.00000000000E+00 -0.00000000000E+00 -0.35595168872E+02  0.35595168872E+02  0.00000000000E+00 0.  1.
         25    1    1    2    0    0  0.12635937588E+03  0.77336584372E+02  0.46861263009E+03  0.50711974546E+03  0.12500000000E+03 0.  0.
         25    1    1    2    0    0 -0.12635937588E+03 -0.77336584372E+02  0.55845849147E+03  0.59114171385E+03  0.12500000000E+03 0.  0.
</event>
<event>
 4    0  0.2259196E-002  0.1980634E+03  0.7546771E-02  0.1151383E+00
         21   -1    0    0  502  501  0.00000000000E+00  0.00000000000E+00  0.95940346340E+03  0.95940346340E+03  0.00000000000E+00 0.  1.
         21   -1    0    0  501  502 -0.00000000000E+00 -0.00000000000E+00 -0.40889085164E+02  0.40889085164E+02  0.00000000000E+00 0.  1.
         25    1    1    2    0    0  0.24716379812E+02 -0.30605138318E+02  0.83428333828E+03  0.84451244067E+03  0.12500000000E+03 0.  0.
         25    1    1    2    0    0 -0.24716379812E+02  0.30605138318E+02  0.84231039959E+02  0.15578010789E+03  0.12500000000E+03 0.  0.
</event>
<event>
 4    0  0.2259196E-002  0.3196242E+03  0.7546771E-02  0.1075822E+00
         21   -1    0    0  502  501  0.00000000000E+00  0.00000000000E+00  0.28580667079E+03  0.28580667079E+03  0.00000000000E+00 0. -1.
         21   -1    0    0  501  502 -0.00000000000E+00 -0.00000000000E+00 -0.35744311605E+03  0.35744311605E+03  0.00000000000E+00 0. -1.
         25    1    1    2    0    0 -0.52507346860E+02  0.20575069464E+03  0.16903471019E+03  0.29881114951E+03  0.12500000000E+03 0.  0.
         25    1    1    2    0    0  0.52507346860E+02 -0.20575069464E+03 -0.24067115545E+03  0.34443863733E+03  0.12500000000E+03 0.  0.
</event>
<event>
 4    0  0.2259196E-002  0.4074711E+03  0.7546771E-02  0.1041223E+00
         21   -1    0    0  502  501  0.00000000000E+00  0.00000000000E+00  0.62470045999E+03  0.62470045999E+03  0.00000000000E+00 0.  1.
         21   -1    0    0  501  502 -0.00000000000E+00 -0.00000000000E+00 -0.26577973824E+03  0.26577973824E+03  0.00000000000E+00 0.  1.
         25    1    1    2    0    0  0.68309531342E+01 -0.32054779820E+03  0.41788289404E+03  0.54133969555E+03  0.12500000000E+03 0.  0.
         25    1    1    2    0    0 -0.68309531342E+01  0.32054779820E+03 -0.58962172283E+02  0.34914050268E+03  0.12500000000E+03 0.  0.
</event>
<event>
 4    0  0.2259196E-002  0.1913692E+03  0.7546771E-02  0.1157232E+00
         21   -1    0    0  502  501  0.00000000000E+00  0.00000000000E+00  0.10129881369E+04  0.10129881369E+04  0.00000000000E+00 0.  1.
         21   -1    0    0  501  502 -0.00000000000E+00 -0.00000000000E+00 -0.36152630694E+02  0.36152630694E+02  0.00000000000E+00 0.  1.
         25    1    1    2    0    0 -0.67306146490E+02  0.30409239331E+02  0.83015312490E+03  0.84275384898E+03  0.12500000000E+03 0.  0.
         25    1    1    2    0    0  0.67306146490E+02 -0.30409239331E+02  0.14668238133E+03  0.20638691864E+03  0.12500000000E+03 0.  0.
</event>
<event>
 4    0  0.2259196E-002  0.1742718E+03  0.7546771E-02  0.1173465E+00
         21   -1    0    0  502  501  0.00000000000E+00  0.00000000000E+00  0.36796257720E+02  0.36796257720E+02  0.00000000000E+00 0.  1.
         21   -1    0    0  501  502 -0.00000000000E+00 -0.00000000000E+00 -0.82537326322E+03  0.82537326322E+03  0.00000000000E+00 0.  1.
         25    1    1    2    0    0  0.11389919005E+03 -0.85749774901E+01 -0.29232516603E+03  0.33782474513E+03  0.12500000000E+03 0.  0.
         25    1    1    2    0    0 -0.11389919005E+03  0.85749774901E+01 -0.49625183947E+03  0.52434477580E+03  0.12500000000E+03 0.  0.
</event>
<event>
 4    0  0.2259196E-002  0.2173306E+03  0.7546771E-02  0.1135889E+00
         21   -1    0    0  502  501  0.00000000000E+00  0.00000000000E+00  0.80504097986E+02  0.80504097986E+02  0.00000000000E+00 0.  1.
         21   -1    0    0  501  502 -0.00000000000E+00 -0.00000000000E+00 -0.58671045393E+03  0.58671045393E+03  0.00000000000E+00 0.  1.
         25    1    1    2    0    0 -0.15771185460E+03  0.54244400864E+01 -0.12740800375E+03  0.23824410392E+03  0.12500000000E+03 0.  0.
         25    1    1    2    0    0  0.15771185460E+03 -0.54244400864E+01 -0.37879835219E+03  0.42897044800E+03  0.12500000000E+03 0.  0.
</event>
<event>
 4    0  0.2259196E-002  0.1828261E+03  0.7546771E-02  0.1165096E+00
         21   -1    0    0  502  501  0.00000000000E+00  0.00000000000E+00  0.28076429101E+02  0.28076429101E+02  0.00000000000E+00 0.  1.
         21   -1    0    0  501  502 -0.00000000000E+00 -0.00000000000E+00 -0.11905134254E+04  0.11905134254E+04  0.00000000000E+00 0.  1.
         25    1    1    2    0    0 -0.81114013909E+02 -0.98261585218E+01 -0.22971763721E+03  0.27399129455E+03  0.12500000000E+03 0.  0.
         25    1    1    2    0    0  0.81114013909E+02  0.98261585218E+01 -0.93271935911E+03  0.94459855997E+03  0.12500000000E+03 0.  0.
</event>
<event>
 4    0  0.2259196E-002  0.1985444E+03  0.7546771E-02  0.1150973E+00
         21   -1    0    0  502  501  0.00000000000E+00  0.00000000000E+00  0.11753996532E+04  0.11753996532E+04  0.00000000000E+00 0. -1.
         21   -1    0    0  501  502 -0.00000000000E+00 -0.00000000000E+00 -0.33537421337E+02  0.33537421337E+02  0.00000000000E+00 0. -1.
         25    1    1    2    0    0 -0.52659568822E+02 -0.14359321561E+03  0.50982595656E+03  0.54675364447E+03  0.12500000000E+03 0.  0.
         25    1    1    2    0    0  0.52659568822E+02  0.14359321561E+03  0.63203627533E+03  0.66218343010E+03  0.12500000000E+03 0.  0.
</event>
<event>
 4    0  0.2259196E-002  0.2073824E+03  0.7546771E-02  0.1143656E+00
         21   -1    0    0  502  501  0.00000000000E+00  0.00000000000E+00  0.22887591480E+03  0.22887591480E+03  0.00000000000E+00 0. -1.
         21   -1    0    0  501  502 -0.00000000000E+00 -0.00000000000E+00 -0.18790724917E+03  0.18790724917E+03  0.00000000000E+00 0. -1.
         25    1    1    2    0    0  0.57600070896E+02 -0.10517585015E+03 -0.94100040774E+02  0.19712824581E+03  0.12500000000E+03 0.  0.
         25    1    1    2    0    0 -0.57600070896E+02  0.10517585015E+03  0.13506870641E+03  0.21965491816E+03  0.12500000000E+03 0.  0.
</event>
<event>
 4    0  0.2259196E-002  0.3057376E+03  0.7546771E-02  0.1082407E+00
         21   -1    0    0  502  501  0.00000000000E+00  0.00000000000E+00  0.10764616475E+04  0.10764616475E+04  0.00000000000E+00 0. -1.
         21   -1    0    0  501  502 -0.00000000000E+00 -0.00000000000E+00 -0.86835891055E+02  0.86835891055E+02  0.00000000000E+00 0. -1.
         25    1    1    2    0    0  0.24473072131E+03 -0.13173047053E+03  0.44803969229E+03  0.54185847662E+03  0.12500000000E+03 0.  0.
         25    1    1    2    0    0 -0.24473072131E+03  0.13173047053E+03  0.54158606419E+03  0.62143906197E+03  0.12500000000E+03 0.  0.
</event>
<event>
 4    0  0.2259196E-002  0.2443947E+03  0.7546771E-02  0.1116899E+00
         21   -1    0    0  502  501  0.00000000000E+00  0.00000000000E+00  0.16399491940E+04  0.16399491940E+04  0.00000000000E+00 0. -1.
         21   -1    0    0  501  502 -0.00000000000E+00 -0.00000000000E+00 -0.36421100170E+02  0.36421100170E+02  0.00000000000E+00 0. -1.
         25    1    1    2    0    0  0.18647476782E+03  0.45979427484E+02  0.51041018320E+03  0.55949128850E+03  0.12500000000E+03 0.  0.
         25    1    1    2    0    0 -0.18647476782E+03 -0.45979427484E+02  0.10931179106E+04  0.11168790057E+04  0.12500000000E+03 0.  0.
</event>
<event>
 4    0  0.2259196E-002  0.3152042E+03  0.7546771E-02  0.1077878E+00
         21   -1    0    0  502  501  0.00000000000E+00  0.00000000000E+00  0.24937483253E+03  0.24937483253E+03  0.00000000000E+00 0. -1.
         21   -1    0    0  501  502 -0.00000000000E+00 -0.00000000000E+00 -0.39841114288E+03  0.39841114288E+03  0.00000000000E+00 0. -1.
         25    1    1    2    0    0 -0.75018190110E+02  0.18718550369E+03  0.13871732640E+03  0.27483383759E+03  0.12500000000E+03 0.  0.
         25    1    1    2    0    0  0.75018190110E+02 -0.18718550369E+03 -0.28775363676E+03  0.37295213782E+03  0.12500000000E+03 0.  0.
</event>
<event>
 4    0  0.2259196E-002  0.2133324E+03  0.7546771E-02  0.1138954E+00
         21   -1    0    0  502  501  0.00000000000E+00  0.00000000000E+00  0.50254574748E+02  0.50254574748E+02  0.00000000000E+00 0.  1.
         21   -1    0    0  501  502 -0.00000000000E+00 -0.00000000000E+00 -0.90560301113E+03  0.90560301113E+03  0.00000000000E+00 0.  1.
         25    1    1    2    0    0 -0.16619101539E+03 -0.96276590626E+01 -0.32322837439E+03  0.38446550876E+03  0.12500000000E+03 0.  0.
         25    1    1    2    0    0  0.16619101539E+03  0.96276590626E+01 -0.53212006199E+03  0.57139207711E+03  0.12500000000E+03 0.  0.
</event>
<event>
 4    0  0.2259196E-002  0.2521218E+03  0.7546771E-02  0.1111971E+00
         21   -1    0    0  502  501  0.00000000000E+00  0.00000000000E+00  0.25693085235E+02  0.25693085235E+02  0.00000000000E+00 0.  1.
         21   -1    0    0  501  502 -0.00000000000E+00 -0.00000000000E+00 -0.24740282918E+04  0.24740282918E+04  0.00000000000E+00 0.  1.
         25    1    1    2    0    0 -0.27230388070E+02 -0.59727382337E+02 -0.22596710456E+04  0.22640775359E+04  0.12500000000E+03 0.  0.
         25    1    1    2    0    0  0.27230388070E+02  0.59727382337E+02 -0.18866416099E+03  0.23564384116E+03  0.12500000000E+03 0.  0.
</event>
<event>
 4    0  0.2259196E-002  0.4641347E+03  0.7546771E-02  0.1023589E+00
         21   -1    0    0  502  501  0.00000000000E+00  0.00000000000E+00  0.31802313499E+03  0.31802313499E+03  0.00000000000E+00 0. -1.
         21   -1    0    0  501  502 -0.00000000000E+00 -0.00000000000E+00 -0.67737524871E+03  0.67737524871E+03  0.00000000000E+00 0. -1.
         25    1    1    2    0    0 -0.31316212633E+03 -0.44104853849E+02 -0.51839945594E+03  0.61998286381E+03  0.12500000000E+03 0.  0.
         25    1    1    2    0    0  0.31316212633E+03  0.44104853849E+02  0.15904734223E+03  0.37541551988E+03  0.12500000000E+03 0.  0.
</event>
<event>
 4    0  0.2259196E-002  0.1716882E+03  0.7546771E-02  0.1176099E+00
         21   -1    0    0  502  501  0.00000000000E+00  0.00000000000E+00  0.29448149827E+04  0.29448149827E+04  0.00000000000E+00 0.  1.
         21   -1    0    0  501  502 -0.00000000000E+00 -0.00000000000E+00 -0.10009745609E+02  0.10009745609E+02  0.00000000000E+00 0.  1.
         25    1    1    2    0    0 -0.54336545931E+02  0.10121357016E+03  0.16876692728E+04  0.16961866705E+04  0.12500000000E+03 0.  0.
         25    1    1    2    0    0  0.54336545931E+02 -0.10121357016E+03  0.12471359643E+04  0.12586380578E+04  0.12500000000E+03 0.  0.
</event>
<event>
 4    0  0.2259196E-002  0.2232816E+03  0.7546771E-02  0.1131460E+00
         21   -1    0    0  502  501  0.00000000000E+00  0.00000000000E+00  0.20030213518E+03  0.20030213518E+03  0.00000000000E+00 0.  1.
         21   -1    0    0  501  502 -0.00000000000E+00 -0.00000000000E+00 -0.24889735423E+03  0.24889735423E+03  0.00000000000E+00 0.  1.
         25    1    1    2    0    0  0.70323675069E+02 -0.80858302574E+01  0.14764679545E+03  0.20599848575E+03  0.12500000000E+03 0.  0.
         25    1    1    2    0    0 -0.70323675069E+02  0.80858302574E+01 -0.19624201449E+03  0.24320100366E+03  0.12500000000E+03 0.  0.
</event>
<event>
 4    0  0.2259196E-002  0.2559477E+03  0.7546771E-02  0.1109603E+00
         21   -1    0    0  502  501  0.00000000000E+00  0.00000000000E+00  0.61362044268E+02  0.61362044268E+02  0.00000000000E+00 0. -1.
         21   -1    0    0  501  502 -0.00000000000E+00 -0.00000000000E+00 -0.10675853717E+04  0.10675853717E+04  0.00000000000E+00 0. -1.
         25    1    1    2    0    0 -0.36177676548E+02 -0.20954658733E+03 -0.65375411823E+03  0.69874032633E+03  0.12500000000E+03 0.  0.
         25    1    1    2    0    0  0.36177676548E+02  0.20954658733E+03 -0.35246920923E+03  0.43020708966E+03  0.12500000000E+03 0.  0.
</event>
<event>
 4    0  0.2259196E-002  0.2144918E+03  0.7546771E-02  0.1138058E+00
         21   -1    0    0  502  501  0.00000000000E+00  0.00000000000E+00  0.91708980871E+02  0.91708980871E+02  0.00000000000E+00 0. -1.
         21   -1    0    0  501  502 -0.00000000000E+00 -0.00000000000E+00 -0.50166013764E+03  0.50166013764E+03  0.00000000000E+00 0. -1.
         25    1    1    2    0    0 -0.58358554346E+02 -0.70330262168E+02 -0.41027524435E+03  0.43852348029E+03  0.12500000000E+03 0.  0.
         25    1    1    2    0    0  0.58358554346E+02  0.70330262168E+02  0.32408758222E+00  0.15484563822E+03  0.12500000000E+03 0.  0.
</event>
<event>
 4    0  0.2259196E-002  0.2247559E+03  0.7546771E-02  0.1130386E+00
         21   -1    0    0  502  501  0.00000000000E+00  0.00000000000E+00  0.57986906909E+02  0.57986906909E+02  0.00000000000E+00 0.  1.
         21   -1    0    0  501  502 -0.00000000000E+00 -0.00000000000E+00 -0.87114857612E+03  0.87114857612E+03  0.00000000000E+00 0.  1.
         25    1    1    2    0    0  0.34326135597E+02  0.85903680584E+02 -0.71164746649E+02  0.17101797300E+03  0.12500000000E+03 0.  0.
         25    1    1    2    0    0 -0.34326135597E+02 -0.85903680584E+02 -0.74199692257E+03  0.75811751003E+03  0.12500000000E+03 0.  0.
</event>
<event>
 4    0  0.2259196E-002  0.2598185E+03  0.7546771E-02  0.1107252E+00
         21   -1    0    0  502  501  0.00000000000E+00  0.00000000000E+00  0.66439043373E+03  0.66439043373E+03  0.00000000000E+00 0. -1.
         21   -1    0    0  501  502 -0.00000000000E+00 -0.00000000000E+00 -0.10160536774E+03  0.10160536774E+03  0.00000000000E+00 0. -1.
         25    1    1    2    0    0 -0.12058554080E+03 -0.19250265143E+03  0.30616838520E+03  0.40120097651E+03  0.12500000000E+03 0.  0.
         25    1    1    2    0    0  0.12058554080E+03  0.19250265143E+03  0.25661668079E+03  0.36479482496E+03  0.12500000000E+03 0.  0.
</event>
<event>
 4    0  0.2259196E-002  0.1702311E+03  0.7546771E-02  0.1177607E+00
         21   -1    0    0  502  501  0.00000000000E+00  0.00000000000E+00  0.41317712306E+02  0.41317712306E+02  0.00000000000E+00 0.  1.
         21   -1    0    0  501  502 -0.00000000000E+00 -0.00000000000E+00 -0.70136095947E+03  0.70136095947E+03  0.00000000000E+00 0.  1.
         25    1    1    2    0    0  0.89160736944E+02  0.43370128457E+02 -0.20054543415E+03  0.25626953821E+03  0.12500000000E+03 0.  0.
         25    1    1    2    0    0 -0.89160736944E+02 -0.43370128457E+02 -0.45949781302E+03  0.48640913357E+03  0.12500000000E+03 0.  0.
</event>
<event>
 4    0  0.2259196E-002  0.2575924E+03  0.7546771E-02  0.1108598E+00
         21   -1    0    0  502  501  0.00000000000E+00  0.00000000000E+00  0.15784424874E+03  0.15784424874E+03  0.00000000000E+00 0.  1.
         21   -1    0    0  501  502 -0.00000000000E+00 -0.00000000000E+00 -0.42037546398E+03  0.42037546398E+03  0.00000000000E+00 0.  1.
         25    1    1    2    0    0 -0.19594111863E+03 -0.73316112416E+01 -0.68807612856E+01  0.23263494873E+03  0.12500000000E+03 0.  0.
         25    1    1    2    0    0  0.19594111863E+03  0.73316112416E+01 -0.25565045395E+03  0.34558476399E+03  0.12500000000E+03 0.  0.
</event>
<event>
 4    0  0.2259196E-002  0.1751869E+03  0.7546771E-02  0.1172544E+00
         21   -1    0    0  502  501  0.00000000000E+00  0.00000000000E+00  0.27700099918E+02  0.27700099918E+02  0.00000000000E+00 0.  1.
         21   -1    0    0  501  502 -0.00000000000E+00 -0.00000000000E+00 -0.11079544124E+04  0.11079544124E+04  0.00000000000E+00 0.  1.
         25    1    1    2    0    0  0.48938108759E+02 -0.32588516871E+02 -0.19090431834E+03  0.23564042242E+03  0.12500000000E+03 0.  0.
         25    1    1    2    0    0 -0.48938108759E+02  0.32588516871E+02 -0.88934999413E+03  0.90001408988E+03  0.12500000000E+03 0.  0.
</event>
<event>
 4    0  0.2259196E-002  0.2433371E+03  0.7546771E-02  0.1117589E+00
         21   -1    0    0  502  501  0.00000000000E+00  0.00000000000E+00  0.91966574647E+03  0.91966574647E+03  0.00000000000E+00 0.  1.
         21   -1    0    0  501  502 -0.00000000000E+00 -0.00000000000E+00 -0.64385295226E+02  0.64385295226E+02  0.00000000000E+00 0.  1.
         25    1    1    2    0    0  0.57550277424E+01 -0.59173266837E+02  0.22972352333E+02  0.14031152777E+03  0.12500000000E+03 0.  0.
         25    1    1    2    0    0 -0.57550277424E+01  0.59173266837E+02  0.83230809891E+03  0.84373951392E+03  0.12500000000E+03 0.  0.
</event>
<event>
 4    0  0.2259196E-002  0.2258027E+03  0.7546771E-02  0.1129629E+00
         21   -1    0    0  502  501  0.00000000000E+00  0.00000000000E+00  0.91382897887E+02  0.91382897887E+02  0.00000000000E+00 0.  1.
         21   -1    0    0  501  502 -0.00000000000E+00 -0.00000000000E+00 -0.55794736155E+03  0.55794736155E+03  0.00000000000E+00 0.  1.
         25    1    1    2    0    0 -0.10271291200E+03 -0.16177964028E+02 -0.45856806960E+03  0.48654017642E+03  0.12500000000E+03 0.  0.
         25    1    1    2    0    0  0.10271291200E+03  0.16177964028E+02 -0.79963940603E+01  0.16279008302E+03  0.12500000000E+03 0.  0.
</event>
<event>
 4    0  0.2259196E-002  0.2492093E+03  0.7546771E-02  0.1113806E+00
         21   -1    0    0  502  501  0.00000000000E+00  0.00000000000E+00  0.27615654907E+03  0.27615654907E+03  0.00000000000E+00 0. -1.
         21   -1    0    0  501  502 -0.00000000000E+00 -0.00000000000E+00 -0.22489163239E+03  0.22489163239E+03  0.00000000000E+00 0. -1.
         25    1    1    2    0    0  0.32225457737E+02  0.19018567069E+03  0.12242765249E+03  0.26042772425E+03  0.12500000000E+03 0.  0.
         25    1    1    2    0    0 -0.32225457737E+02 -0.19018567069E+03 -0.71162735806E+02  0.24062045721E+03  0.12500000000E+03 0.  0.
</event>
<event>
 4    0  0.2259196E-002  0.1973289E+03  0.7546771E-02  0.1152012E+00
         21   -1    0    0  502  501  0.00000000000E+00  0.00000000000E+00  0.25649609602E+03  0.25649609602E+03  0.00000000000E+00 0.  1.
         21   -1    0    0  501  502 -0.00000000000E+00 -0.00000000000E+00 -0.15181011485E+03  0.15181011485E+03  0.00000000000E+00 0.  1.
         25    1    1    2    0    0  0.79926976749E+02 -0.10950107755E+03 -0.20335212223E+02  0.18551907841E+03  0.12500000000E+03 0.  0.
         25    1    1    2    0    0 -0.79926976749E+02  0.10950107755E+03  0.12502119339E+03  0.22278713247E+03  0.12500000000E+03 0.  0.
</event>
<event>
 4    0  0.2259196E-002  0.2381711E+03  0.7546771E-02  0.1121017E+00
         21   -1    0    0  502  501  0.00000000000E+00  0.00000000000E+00  0.28703765298E+03  0.28703765298E+03  0.00000000000E+00 0. -1.
         21   -1    0    0  501  502 -0.00000000000E+00 -0.00000000000E+00 -0.19762386269E+03  0.19762386269E+03  0.00000000000E+00 0. -1.
         25    1    1    2    0    0 -0.13207392091E+03  0.72721368518E+02 -0.93190831768E+02  0.21689040816E+03  0.12500000000E+03 0.  0.
         25    1    1    2    0    0  0.13207392091E+03 -0.72721368518E+02  0.18260462205E+03  0.26777110751E+03  0.12500000000E+03 0.  0.
</event>
<event>
 4    0  0.2259196E-002  0.2462962E+03  0.7546771E-02  0.1115668E+00
         21   -1    0    0  502  501  0.00000000000E+00  0.00000000000E+00  0.43558637094E+03  0.43558637094E+03  0.00000000000E+00 0.  1.
         21   -1    0    0  501  502 -0.00000000000E+00 -0.00000000000E+00 -0.13926471192E+03  0.13926471192E+03  0.00000000000E+00 0.  1.
         25    1    1    2    0    0  0.10815724979E+03 -0.13190433365E+03  0.82351855553E+00  0.21147676492E+03  0.12500000000E+03 0.  0.
         25    1    1    2    0    0 -0.10815724979E+03  0.13190433365E+03  0.29549814046E+03  0.36337431794E+03  0.12500000000E+03 0.  0.
</event>
<event>
 4    0  0.2259196E-002  0.2533985E+03  0.7546771E-02  0.1111176E+00
         21   -1    0    0  502  501  0.00000000000E+00  0.00000000000E+00  0.24595463432E+03  0.24595463432E+03  0.00000000000E+00 0. -1.
         21   -1    0    0  501  502 -0.00000000000E+00 -0.00000000000E+00 -0.26106766201E+03  0.26106766201E+03  0.00000000000E+00 0. -1.
         25    1    1    2    0    0  0.12638184334E+03  0.89883384902E+02 -0.16426077642E+03  0.25818209829E+03  0.12500000000E+03 0.  0.
         25    1    1    2    0    0 -0.12638184334E+03 -0.89883384902E+02  0.14914774873E+03  0.24884019804E+03  0.12500000000E+03 0.  0.
</event>
<event>
 4    0  0.2259196E-002  0.3417328E+03  0.7546771E-02  0.1066060E+00
         21   -1    0    0  502  501  0.00000000000E+00  0.00000000000E+00  0.30658647554E+03  0.30658647554E+03  0.00000000000E+00 0.  1.
         21   -1    0    0  501  502 -0.00000000000E+00 -0.00000000000E+00 -0.38090822400E+03  0.38090822400E+03  0.00000000000E+00 0.  1.
         25    1    1    2    0    0  0.96643703302E+02  0.81235927049E+02 -0.33080132426E+03  0.37549140784E+03  0.12500000000E+03 0.  0.
         25    1    1    2    0    0 -0.96643703302E+02 -0.81235927049E+02  0.25647957579E+03  0.31200329170E+03  0.12500000000E+03 0.  0.
</event>
<event>
 4    0  0.2259196E-002  0.2049538E+03  0.7546771E-02  0.1145625E+00
         21   -1    0    0  502  501  0.00000000000E+00  0.00000000000E+00  0.10038758109E+04  0.10038758109E+04  0.00000000000E+00 0.  1.
         21   -1    0    0  501  502 -0.00000000000E+00 -0.00000000000E+00 -0.41843901236E+02  0.41843901236E+02  0.00000000000E+00 0.  1.
         25    1    1    2    0    0 -0.26443403343E+02 -0.18741850064E+02  0.88703994909E+03  0.89639019506E+03  0.12500000000E+03 0.  0.
         25    1    1    2    0    0  0.26443403343E+02  0.18741850064E+02  0.74991960612E+02  0.14932951711E+03  0.12500000000E+03 0.  0.
</event>
<event>
 4    0  0.2259196E-002  0.5202554E+03  0.7546771E-02  0.1008623E+00
         21   -1    0    0  502  501  0.00000000000E+00  0.00000000000E+00  0.34791243430E+03  0.34791243430E+03  0.00000000000E+00 0. -1.
         21   -1    0    0  501  502 -0.00000000000E+00 -0.00000000000E+00 -0.77797064943E+03  0.77797064943E+03  0.00000000000E+00 0.  1.
         25    1    1    2    0    0 -0.39830546331E+03 -0.17682735100E+03  0.61106415631E+02  0.45746491472E+03  0.12500000000E+03 0.  0.
         25    1    1    2    0    0  0.39830546331E+03  0.17682735100E+03 -0.49116463076E+03  0.66841816902E+03  0.12500000000E+03 0.  0.
</event>
<event>
 4    0  0.2259196E-002  0.3399725E+03  0.7546771E-02  0.1066808E+00
         21   -1    0    0  502  501  0.00000000000E+00  0.00000000000E+00  0.45434352320E+03  0.45434352320E+03  0.00000000000E+00 0. -1.
         21   -1    0    0  501  502 -0.00000000000E+00 -0.00000000000E+00 -0.25439188986E+03  0.25439188986E+03  0.00000000000E+00 0. -1.
         25    1    1    2    0    0 -0.20084673085E+03 -0.71463785567E+02 -0.14338336282E+03  0.28571011651E+03  0.12500000000E+03 0.  0.
         25    1    1    2    0    0  0.20084673085E+03  0.71463785567E+02  0.34333499616E+03  0.42302529656E+03  0.12500000000E+03 0.  0.
</event>
<event>
 4    0  0.2259196E-002  0.2598283E+03  0.7546771E-02  0.1107246E+00
         21   -1    0    0  502  501  0.00000000000E+00  0.00000000000E+00  0.50490014711E+03  0.50490014711E+03  0.00000000000E+00 0.  1.
         21   -1    0    0  501  502 -0.00000000000E+00 -0.00000000000E+00 -0.13371112333E+03  0.13371112333E+03  0.00000000000E+00 0.  1.
         25    1    1    2    0    0  0.17144062756E+03 -0.12825494404E+03  0.28113818279E+03  0.37483982882E+03  0.12500000000E+03 0.  0.
         25    1    1    2    0    0 -0.17144062756E+03  0.12825494404E+03  0.90050840996E+02  0.26377144162E+03  0.12500000000E+03 0.  0.
</event>
<event>
 4    0  0.2259196E-002  0.1907173E+03  0.7546771E-02  0.1157816E+00
         21   -1    0    0  502  501  0.00000000000E+00  0.00000000000E+00  0.92494764541E+02  0.92494764541E+02  0.00000000000E+00 0.  1.
         21   -1    0    0  501  502 -0.00000000000E+00 -0.00000000000E+00 -0.39324486996E+03  0.39324486996E+03  0.00000000000E+00 0.  1.
         25    1    1    2    0    0 -0.76174190528E+02 -0.11498445181E+03 -0.97497390702E+02  0.21013013267E+03  0.12500000000E+03 0.  0.
         25    1    1    2    0    0  0.76174190528E+02  0.11498445181E+03 -0.20325271472E+03  0.27560950184E+03  0.12500000000E+03 0.  0.
</event>
<event>
 4    0  0.2259196E-002  0.2191721E+03  0.7546771E-02  0.1134502E+00
         21   -1    0    0  502  501  0.00000000000E+00  0.00000000000E+00  0.13069492222E+04  0.13069492222E+04  0.00000000000E+00 0. -1.
         21   -1    0    0  501  502 -0.00000000000E+00 -0.00000000000E+00 -0.36754618772E+02  0.36754618772E+02  0.00000000000E+00 0. -1.
         25    1    1    2    0    0  0.14664012819E+03  0.19903630209E+02  0.94938664444E+03  0.96894761588E+03  0.12500000000E+03 0.  0.
         25    1    1    2    0    0 -0.14664012819E+03 -0.19903630209E+02  0.32080795900E+03  0.37475622510E+03  0.12500000000E+03 0.  0.
</event>
<event>
 4    0  0.2259196E-002  0.1586352E+03  0.7546771E-02  0.1190246E+00
         21   -1    0    0  502  501  0.00000000000E+00  0.00000000000E+00  0.98104814224E+02  0.98104814224E+02  0.00000000000E+00 0.  1.
         21   -1    0    0  501  502 -0.00000000000E+00 -0.00000000000E+00 -0.25651250394E+03  0.25651250394E+03  0.00000000000E+00 0. -1.
         25    1    1    2    0    0  0.82760697415E+02  0.30920266997E+02 -0.12575652156E+03  0.19810375732E+03  0.12500000000E+03 0.  0.
         25    1    1    2    0    0 -0.82760697415E+02 -0.30920266997E+02 -0.32651168159E+02  0.15651356085E+03  0.12500000000E+03 0.  0.
</event>
<event>
 4    0  0.2259196E-002  0.1934256E+03  0.7546771E-02  0.1155407E+00
         21   -1    0    0  502  501  0.00000000000E+00  0.00000000000E+00  0.56003056394E+03  0.56003056394E+03  0.00000000000E+00 0. -1.
         21   -1    0    0  501  502 -0.00000000000E+00 -0.00000000000E+00 -0.66806078815E+02  0.66806078815E+02  0.00000000000E+00 0. -1.
         25    1    1    2    0    0 -0.10932086633E+03  0.96694970185E+02  0.28238789428E+03  0.34156828294E+03  0.12500000000E+03 0.  0.
         25    1    1    2    0    0  0.10932086633E+03 -0.96694970185E+02  0.21083659085E+03  0.28526835982E+03  0.12500000000E+03 0.  0.
</event>
<event>
 4    0  0.2259196E-002  0.1903535E+03  0.7546771E-02  0.1158143E+00
         21   -1    0    0  502  501  0.00000000000E+00  0.00000000000E+00  0.27529767176E+04  0.27529767176E+04  0.00000000000E+00 0.  1.
         21   -1    0    0  501  502 -0.00000000000E+00 -0.00000000000E+00 -0.13161917389E+02  0.13161917389E+02  0.00000000000E+00 0.  1.
         25    1    1    2    0    0  0.54838143599E+02 -0.38699452181E+02  0.22919645357E+04  0.22963517375E+04  0.12500000000E+03 0.  0.
         25    1    1    2    0    0 -0.54838143599E+02  0.38699452181E+02  0.44785026449E+03  0.46978689743E+03  0.12500000000E+03 0.  0.
</event>
<event>
 4    0  0.2259196E-002  0.1747519E+03  0.7546771E-02  0.1172981E+00
         21   -1    0    0  502  501  0.00000000000E+00  0.00000000000E+00  0.40959649820E+02  0.40959649820E+02  0.00000000000E+00 0.  1.
         21   -1    0    0  501  502 -0.00000000000E+00 -0.00000000000E+00 -0.74556858370E+03  0.74556858370E+03  0.00000000000E+00 0.  1.
         25    1    1    2    0    0  0.76782067295E+02 -0.71561455599E+02 -0.21182562857E+03  0.26741657522E+03  0.12500000000E+03 0.  0.
         25    1    1    2    0    0 -0.76782067295E+02  0.71561455599E+02 -0.49278330531E+03  0.51911165830E+03  0.12500000000E+03 0.  0.
</event>
<event>
 4    0  0.2259196E-002  0.2378290E+03  0.7546771E-02  0.1121248E+00
         21   -1    0    0  502  501  0.00000000000E+00  0.00000000000E+00  0.53597072910E+02  0.53597072910E+02  0.00000000000E+00 0. -1.
         21   -1    0    0  501  502 -0.00000000000E+00 -0.00000000000E+00 -0.10553306801E+04  0.10553306801E+04  0.00000000000E+00 0. -1.
         25    1    1    2    0    0  0.13736920268E+03 -0.12514392407E+03 -0.68746751265E+03  0.72302688783E+03  0.12500000000E+03 0.  0.
         25    1    1    2    0    0 -0.13736920268E+03  0.12514392407E+03 -0.31426609458E+03  0.38590086522E+03  0.12500000000E+03 0.  0.
</event>
<event>
 4    0  0.2259196E-002  0.1849456E+03  0.7546771E-02  0.1163101E+00
         21   -1    0    0  502  501  0.00000000000E+00  0.00000000000E+00  0.17707548906E+03  0.17707548906E+03  0.00000000000E+00 0. -1.
         21   -1    0    0  501  502 -0.00000000000E+00 -0.00000000000E+00 -0.19316548366E+03  0.19316548366E+03  0.00000000000E+00 0. -1.
         25    1    1    2    0    0 -0.10879012730E+03  0.56368557314E+02  0.51737242366E+02  0.18252245971E+03  0.12500000000E+03 0.  0.
         25    1    1    2    0    0  0.10879012730E+03 -0.56368557314E+02 -0.67827236970E+02  0.18771851301E+03  0.12500000000E+03 0.  0.
</event>
<event>
 4    0  0.2259196E-002  0.2555339E+03  0.7546771E-02  0.1109857E+00
         21   -1    0    0  502  501  0.00000000000E+00  0.00000000000E+00  0.13252338741E+03  0.13252338741E+03  0.00000000000E+00 0.  1.
         21   -1    0    0  501  502 -0.00000000000E+00 -0.00000000000E+00 -0.49272506444E+03  0.49272506444E+03  0.00000000000E+00 0.  1.
         25    1    1    2    0    0 -0.67474973115E+01 -0.19633947626E+03 -0.30886715917E+03  0.38680568852E+03  0.12500000000E+03 0.  0.
         25    1    1    2    0    0  0.67474973115E+01  0.19633947626E+03 -0.51334517857E+02  0.23844276332E+03  0.12500000000E+03 0.  0.
</event>
<event>
 4    0  0.2259196E-002  0.2799884E+03  0.7546771E-02  0.1095695E+00
         21   -1    0    0  502  501  0.00000000000E+00  0.00000000000E+00  0.48064538424E+03  0.48064538424E+03  0.00000000000E+00 0.  1.
         21   -1    0    0  501  502 -0.00000000000E+00 -0.00000000000E+00 -0.16310054019E+03  0.16310054019E+03  0.00000000000E+00 0.  1.
         25    1    1    2    0    0  0.22280682056E+03 -0.65700690786E+02  0.26666938894E+03  0.37509601844E+03  0.12500000000E+03 0.  0.
         25    1    1    2    0    0 -0.22280682056E+03  0.65700690786E+02  0.50875455115E+02  0.26864990599E+03  0.12500000000E+03 0.  0.
</event>
<event>
 4    0  0.2259196E-002  0.2289922E+03  0.7546771E-02  0.1127351E+00
         21   -1    0    0  502  501  0.00000000000E+00  0.00000000000E+00  0.20960960998E+03  0.20960960998E+03  0.00000000000E+00 0. -1.
         21   -1    0    0  501  502 -0.00000000000E+00 -0.00000000000E+00 -0.25016711992E+03  0.25016711992E+03  0.00000000000E+00 0. -1.
         25    1    1    2    0    0 -0.18291589969E+03 -0.54032710496E+02  0.65163168957E+00  0.22804206802E+03  0.12500000000E+03 0.  0.
         25    1    1    2    0    0  0.18291589969E+03  0.54032710496E+02 -0.41209141631E+02  0.23173466188E+03  0.12500000000E+03 0.  0.
</event>
<event>
 4    0  0.2259196E-002  0.2068200E+03  0.7546771E-02  0.1144109E+00
         21   -1    0    0  502  501  0.00000000000E+00  0.00000000000E+00  0.76883345986E+02  0.76883345986E+02  0.00000000000E+00 0.  1.
         21   -1    0    0  501  502 -0.00000000000E+00 -0.00000000000E+00 -0.55635612432E+03  0.55635612432E+03  0.00000000000E+00 0.  1.
         25    1    1    2    0    0 -0.14978246987E+03 -0.52942306246E+00 -0.34485049690E+03  0.39620945696E+03  0.12500000000E+03 0.  0.
         25    1    1    2    0    0  0.14978246987E+03  0.52942306246E+00 -0.13462228143E+03  0.23703001335E+03  0.12500000000E+03 0.  0.
</event>
<event>
 4    0  0.2259196E-002  0.1979601E+03  0.7546771E-02  0.1151472E+00
         21   -1    0    0  502  501  0.00000000000E+00  0.00000000000E+00  0.27428317013E+04  0.27428317013E+04  0.00000000000E+00 0. -1.
         21   -1    0    0  501  502 -0.00000000000E+00 -0.00000000000E+00 -0.14287490750E+02  0.14287490750E+02  0.00000000000E+00 0. -1.
         25    1    1    2    0    0  0.86461427819E+02  0.70199848516E+01  0.22461886174E+04  0.22513358621E+04  0.12500000000E+03 0.  0.
         25    1    1    2    0    0 -0.86461427819E+02 -0.70199848516E+01  0.48235559309E+03  0.50578332997E+03  0.12500000000E+03 0.  0.
</event>
<event>
 4    0  0.2259196E-002  0.1675216E+03  0.7546771E-02  0.1180457E+00
         21   -1    0    0  502  501  0.00000000000E+00  0.00000000000E+00  0.63599466981E+02  0.63599466981E+02  0.00000000000E+00 0.  1.
         21   -1    0    0  501  502 -0.00000000000E+00 -0.00000000000E+00 -0.44125330793E+03  0.44125330793E+03  0.00000000000E+00 0.  1.
         25    1    1    2    0    0  0.68403060766E+02  0.23347568679E+02 -0.31681330173E+03  0.34816627614E+03  0.12500000000E+03 0.  0.
         25    1    1    2    0    0 -0.68403060766E+02 -0.23347568679E+02 -0.60840539215E+02  0.15668649877E+03  0.12500000000E+03 0.  0.
</event>
<event>
 4    0  0.2259196E-002  0.2204681E+03  0.7546771E-02  0.1133535E+00
         21   -1    0    0  502  501  0.00000000000E+00  0.00000000000E+00  0.37935035271E+03  0.37935035271E+03  0.00000000000E+00 0.  1.
         21   -1    0    0  501  502 -0.00000000000E+00 -0.00000000000E+00 -0.12813002292E+03  0.12813002292E+03  0.00000000000E+00 0.  1.
         25    1    1    2    0    0 -0.16373471195E+03 -0.64439825590E+02  0.73887767708E+02  0.22813581314E+03  0.12500000000E+03 0.  0.
         25    1    1    2    0    0  0.16373471195E+03  0.64439825590E+02  0.17733256208E+03  0.27934456249E+03  0.12500000000E+03 0.  0.
</event>
<event>
 4    0  0.2259196E-002  0.2095761E+03  0.7546771E-02  0.1141902E+00
         21   -1    0    0  502  501  0.00000000000E+00  0.00000000000E+00  0.13667857405E+03  0.13667857405E+03  0.00000000000E+00 0. -1.
         21   -1    0    0  501  502 -0.00000000000E+00 -0.00000000000E+00 -0.32135360582E+03  0.32135360582E+03  0.00000000000E+00 0. -1.
         25    1    1    2    0    0 -0.14406460116E+03 -0.31770585688E+02 -0.18066305007E+03  0.26462826207E+03  0.12500000000E+03 0.  0.
         25    1    1    2    0    0  0.14406460116E+03  0.31770585688E+02 -0.40119816942E+01  0.19340391780E+03  0.12500000000E+03 0.  0.
</event>
<event>
 4    0  0.2259196E-002  0.2262142E+03  0.7546771E-02  0.1129333E+00
         21   -1    0    0  502  501  0.00000000000E+00  0.00000000000E+00  0.80890604835E+03  0.80890604835E+03  0.00000000000E+00 0. -1.
         21   -1    0    0  501  502 -0.00000000000E+00 -0.00000000000E+00 -0.63261794935E+02  0.63261794935E+02  0.00000000000E+00 0. -1.
         25    1    1    2    0    0  0.16911582952E+03 -0.78068703278E+02  0.31652124409E+03  0.38795049192E+03  0.12500000000E+03 0.  0.
         25    1    1    2    0    0 -0.16911582952E+03  0.78068703278E+02  0.42912300933E+03  0.48421735136E+03  0.12500000000E+03 0.  0.
</event>
<event>
 4    0  0.2259196E-002  0.1631910E+03  0.7546771E-02  0.1185141E+00
         21   -1    0    0  502  501  0.00000000000E+00  0.00000000000E+00  0.35882004824E+03  0.35882004824E+03  0.00000000000E+00 0.  1.
         21   -1    0    0  501  502 -0.00000000000E+00 -0.00000000000E+00 -0.74219071463E+02  0.74219071463E+02  0.00000000000E+00 0.  1.
         25    1    1    2    0    0  0.83517684622E+02 -0.22580237790E+02  0.22103182207E+03  0.26826318635E+03  0.12500000000E+03 0.  0.
         25    1    1    2    0    0 -0.83517684622E+02  0.22580237790E+02  0.63569154715E+02  0.16477593336E+03  0.12500000000E+03 0.  0.
</event>
<event>
 4    0  0.2259196E-002  0.3878307E+03  0.7546771E-02  0.1048077E+00
         21   -1    0    0  502  501  0.00000000000E+00  0.00000000000E+00  0.25298522605E+03  0.25298522605E+03  0.00000000000E+00 0. -1.
         21   -1    0    0  501  502 -0.00000000000E+00 -0.00000000000E+00 -0.59455103836E+03  0.59455103836E+03  0.00000000000E+00 0. -1.
         25    1    1    2    0    0  0.18821044813E+03 -0.31508806094E+03 -0.16077028020E+03  0.41973294120E+03  0.12500000000E+03 0.  0.
         25    1    1    2    0    0 -0.18821044813E+03  0.31508806094E+03 -0.18079553211E+03  0.42780332322E+03  0.12500000000E+03 0.  0.
</event>
<event>
 4    0  0.2259196E-002  0.2156195E+03  0.7546771E-02  0.1137192E+00
         21   -1    0    0  502  501  0.00000000000E+00  0.00000000000E+00  0.15166958223E+03  0.15166958223E+03  0.00000000000E+00 0. -1.
         21   -1    0    0  501  502 -0.00000000000E+00 -0.00000000000E+00 -0.30653315948E+03  0.30653315948E+03  0.00000000000E+00 0. -1.
         25    1    1    2    0    0 -0.12748042276E+03 -0.11030492806E+03 -0.13000613494E+03  0.24687047305E+03  0.12500000000E+03 0.  0.
         25    1    1    2    0    0  0.12748042276E+03  0.11030492806E+03 -0.24857442314E+02  0.21133226866E+03  0.12500000000E+03 0.  0.
</event>
<event>
 4    0  0.2259196E-002  0.2884304E+03  0.7546771E-02  0.1091172E+00
         21   -1    0    0  502  501  0.00000000000E+00  0.00000000000E+00  0.11116915931E+04  0.11116915931E+04  0.00000000000E+00 0.  1.
         21   -1    0    0  501  502 -0.00000000000E+00 -0.00000000000E+00 -0.74833781358E+02  0.74833781358E+02  0.00000000000E+00 0.  1.
         25    1    1    2    0    0 -0.10593227241E+03 -0.19361074451E+03  0.80090424854E+03  0.84010676825E+03  0.12500000000E+03 0.  0.
         25    1    1    2    0    0  0.10593227241E+03  0.19361074451E+03  0.23595356315E+03  0.34641860616E+03  0.12500000000E+03 0.  0.
</event>
<event>
 4    0  0.2259196E-002  0.2400195E+03  0.7546771E-02  0.1119780E+00
         21   -1    0    0  502  501  0.00000000000E+00  0.00000000000E+00  0.88921458191E+02  0.88921458191E+02  0.00000000000E+00 0.  1.
         21   -1    0    0  501  502 -0.00000000000E+00 -0.00000000000E+00 -0.64786809540E+03  0.64786809540E+03  0.00000000000E+00 0.  1.
         25    1    1    2    0    0  0.17617341898E+01 -0.37320609740E+02  0.29747041328E+02  0.13381262305E+03  0.12500000000E+03 0.  0.
         25    1    1    2    0    0 -0.17617341898E+01  0.37320609740E+02 -0.58869367854E+03  0.60297693055E+03  0.12500000000E+03 0.  0.
</event>
<event>
 4    0  0.2259196E-002  0.2106374E+03  0.7546771E-02  0.1141062E+00
         21   -1    0    0  502  501  0.00000000000E+00  0.00000000000E+00  0.13388449607E+04  0.13388449607E+04  0.00000000000E+00 0. -1.
         21   -1    0    0  501  502 -0.00000000000E+00 -0.00000000000E+00 -0.33139106172E+02  0.33139106172E+02  0.00000000000E+00 0. -1.
         25    1    1    2    0    0 -0.49493287644E+02  0.16152670447E+03  0.69921590528E+03  0.73011529499E+03  0.12500000000E+03 0.  0.
         25    1    1    2    0    0  0.49493287644E+02 -0.16152670447E+03  0.60648994922E+03  0.64186877186E+03  0.12500000000E+03 0.  0.
</event>
<event>
 4    0  0.2259196E-002  0.2797241E+03  0.7546771E-02  0.1095840E+00
         21   -1    0    0  502  501  0.00000000000E+00  0.00000000000E+00  0.21570202012E+03  0.21570202012E+03  0.00000000000E+00 0. -1.
         21   -1    0    0  501  502 -0.00000000000E+00 -0.00000000000E+00 -0.36274850857E+03  0.36274850857E+03  0.00000000000E+00 0. -1.
         25    1    1    2    0    0  0.23958004278E+03 -0.66965187566E+02 -0.45440967481E+02  0.28208653773E+03  0.12500000000E+03 0.  0.
         25    1    1    2    0    0 -0.23958004278E+03  0.66965187566E+02 -0.10160552097E+03  0.29636399095E+03  0.12500000000E+03 0.  0.
</event>
<event>
 4    0  0.2259196E-002  0.2508796E+03  0.7546771E-02  0.1112750E+00
         21   -1    0    0  502  501  0.00000000000E+00  0.00000000000E+00  0.26557522083E+03  0.26557522083E+03  0.00000000000E+00 0. -1.
         21   -1    0    0  501  502 -0.00000000000E+00 -0.00000000000E+00 -0.23699711105E+03  0.23699711105E+03  0.00000000000E+00 0. -1.
         25    1    1    2    0    0 -0.15433344527E+03 -0.14849357619E+03  0.52382331168E+02  0.25345228963E+03  0.12500000000E+03 0.  0.
         25    1    1    2    0    0  0.15433344527E+03  0.14849357619E+03 -0.23804221392E+02  0.24912004226E+03  0.12500000000E+03 0.  0.
</event>
<event>
 4    0  0.2259196E-002  0.2202223E+03  0.7546771E-02  0.1133717E+00
         21   -1    0    0  502  501  0.00000000000E+00  0.00000000000E+00  0.10662960650E+04  0.10662960650E+04  0.00000000000E+00 0. -1.
         21   -1    0    0  501  502 -0.00000000000E+00 -0.00000000000E+00 -0.45482541793E+02  0.45482541793E+02  0.00000000000E+00 0. -1.
         25    1    1    2    0    0  0.66972508771E+02 -0.92078638111E+02  0.86657276155E+03  0.88291400691E+03  0.12500000000E+03 0.  0.
         25    1    1    2    0    0 -0.66972508771E+02  0.92078638111E+02  0.15424076167E+03  0.22886459990E+03  0.12500000000E+03 0.  0.
</event>
<event>
 4    0  0.2259196E-002  0.1967618E+03  0.7546771E-02  0.1152500E+00
         21   -1    0    0  502  501  0.00000000000E+00  0.00000000000E+00  0.67444529934E+02  0.67444529934E+02  0.00000000000E+00 0.  1.
         21   -1    0    0  501  502 -0.00000000000E+00 -0.00000000000E+00 -0.57403029720E+03  0.57403029720E+03  0.00000000000E+00 0.  1.
         25    1    1    2    0    0 -0.10757987196E+03 -0.16712723437E+02 -0.80493208920E+02  0.18427398259E+03  0.12500000000E+03 0.  0.
         25    1    1    2    0    0  0.10757987196E+03  0.16712723437E+02 -0.42609255834E+03  0.45720084454E+03  0.12500000000E+03 0.  0.
</event>
<event>
 4    0  0.2259196E-002  0.2542604E+03  0.7546771E-02  0.1110642E+00
         21   -1    0    0  502  501  0.00000000000E+00  0.00000000000E+00  0.15194610419E+03  0.15194610419E+03  0.00000000000E+00 0. -1.
         21   -1    0    0  501  502 -0.00000000000E+00 -0.00000000000E+00 -0.42546892776E+03  0.42546892776E+03  0.00000000000E+00 0. -1.
         25    1    1    2    0    0 -0.21842393038E+02 -0.21923341319E+03 -0.16171527878E+03  0.30052821994E+03  0.12500000000E+03 0.  0.
         25    1    1    2    0    0  0.21842393038E+02  0.21923341319E+03 -0.11180754479E+03  0.27688681201E+03  0.12500000000E+03 0.  0.
</event>
<event>
 4    0  0.2259196E-002  0.1891971E+03  0.7546771E-02  0.1159188E+00
         21   -1    0    0  502  501  0.00000000000E+00  0.00000000000E+00  0.19005824981E+03  0.19005824981E+03  0.00000000000E+00 0.  1.
         21   -1    0    0  501  502 -0.00000000000E+00 -0.00000000000E+00 -0.18833976892E+03  0.18833976892E+03  0.00000000000E+00 0.  1.
         25    1    1    2    0    0  0.25412858878E+02 -0.26866979485E+02  0.13798424430E+03  0.18982175760E+03  0.12500000000E+03 0.  0.
         25    1    1    2    0    0 -0.25412858878E+02  0.26866979485E+02 -0.13626576341E+03  0.18857626113E+03  0.12500000000E+03 0.  0.
</event>
<event>
 4    0  0.2259196E-002  0.3601365E+03  0.7546771E-02  0.1058530E+00
         21   -1    0    0  502  501  0.00000000000E+00  0.00000000000E+00  0.15902872012E+03  0.15902872012E+03  0.00000000000E+00 0.  1.
         21   -1    0    0  501  502 -0.00000000000E+00 -0.00000000000E+00 -0.81556543899E+03  0.81556543899E+03  0.00000000000E+00 0.  1.
         25    1    1    2    0    0  0.32614930251E+03  0.56928887416E+02 -0.41862256762E+03  0.54816431831E+03  0.12500000000E+03 0.  0.
         25    1    1    2    0    0 -0.32614930251E+03 -0.56928887416E+02 -0.23791415126E+03  0.42642984080E+03  0.12500000000E+03 0.  0.
</event>
<event>
 4    0  0.2259196E-002  0.1737055E+03  0.7546771E-02  0.1174038E+00
         21   -1    0    0  502  501  0.00000000000E+00  0.00000000000E+00  0.77514510476E+02  0.77514510476E+02  0.00000000000E+00 0. -1.
         21   -1    0    0  501  502 -0.00000000000E+00 -0.00000000000E+00 -0.38926388637E+03  0.38926388637E+03  0.00000000000E+00 0. -1.
         25    1    1    2    0    0 -0.10648139801E+03 -0.21900304343E+02 -0.85663997572E+02  0.18649727058E+03  0.12500000000E+03 0.  0.
         25    1    1    2    0    0  0.10648139801E+03  0.21900304343E+02 -0.22608537832E+03  0.28028112627E+03  0.12500000000E+03 0.  0.
</event>
<event>
 4    0  0.2259196E-002  0.2191142E+03  0.7546771E-02  0.1134545E+00
         21   -1    0    0  502  501  0.00000000000E+00  0.00000000000E+00  0.10256577677E+03  0.10256577677E+03  0.00000000000E+00 0. -1.
         21   -1    0    0  501  502 -0.00000000000E+00 -0.00000000000E+00 -0.46810008899E+03  0.46810008899E+03  0.00000000000E+00 0. -1.
         25    1    1    2    0    0  0.17533032784E+03 -0.16403940730E+02 -0.23107612578E+03  0.31627676019E+03  0.12500000000E+03 0.  0.
         25    1    1    2    0    0 -0.17533032784E+03  0.16403940730E+02 -0.13445818645E+03  0.25438910557E+03  0.12500000000E+03 0.  0.
</event>
<event>
 4    0  0.2259196E-002  0.2130783E+03  0.7546771E-02  0.1139151E+00
         21   -1    0    0  502  501  0.00000000000E+00  0.00000000000E+00  0.22619552197E+02  0.22619552197E+02  0.00000000000E+00 0.  1.
         21   -1    0    0  501  502 -0.00000000000E+00 -0.00000000000E+00 -0.20072167903E+04  0.20072167903E+04  0.00000000000E+00 0.  1.
         25    1    1    2    0    0  0.14411986375E+03 -0.90455886855E+02 -0.11290709894E+04  0.11486422862E+04  0.12500000000E+03 0.  0.
         25    1    1    2    0    0 -0.14411986375E+03  0.90455886855E+02 -0.85552624868E+03  0.88119405625E+03  0.12500000000E+03 0.  0.
</event>
<event>
 4    0  0.2259196E-002  0.1336152E+03  0.7546771E-02  0.1222188E+00
         21   -1    0    0  502  501  0.00000000000E+00  0.00000000000E+00  0.60414069340E+03  0.60414069340E+03  0.00000000000E+00 0. -1.
         21   -1    0    0  501  502 -0.00000000000E+00 -0.00000000000E+00 -0.29551077323E+02  0.29551077323E+02  0.00000000000E+00 0. -1.
         25    1    1    2    0    0 -0.21486286483E+02 -0.16058131230E+02  0.19519414451E+03  0.23333511981E+03  0.12500000000E+03 0.  0.
         25    1    1    2    0    0  0.21486286483E+02  0.16058131230E+02  0.37939547156E+03  0.40035665091E+03  0.12500000000E+03 0.  0.
</event>
<event>
 4    0  0.2259196E-002  0.1923840E+03  0.7546771E-02  0.1156329E+00
         21   -1    0    0  502  501  0.00000000000E+00  0.00000000000E+00  0.74373962753E+02  0.74373962753E+02  0.00000000000E+00 0.  1.
         21   -1    0    0  501  502 -0.00000000000E+00 -0.00000000000E+00 -0.49764194357E+03  0.49764194357E+03  0.00000000000E+00 0.  1.
         25    1    1    2    0    0 -0.98930350621E+02  0.10134788018E+03 -0.15745790885E+03  0.24591990597E+03  0.12500000000E+03 0.  0.
         25    1    1    2    0    0  0.98930350621E+02 -0.10134788018E+03 -0.26581007197E+03  0.32609600036E+03  0.12500000000E+03 0.  0.
</event>
<event>
 4    0  0.2259196E-002  0.1817652E+03  0.7546771E-02  0.1166105E+00
         21   -1    0    0  502  501  0.00000000000E+00  0.00000000000E+00  0.30519179982E+02  0.30519179982E+02  0.00000000000E+00 0. -1.
         21   -1    0    0  501  502 -0.00000000000E+00 -0.00000000000E+00 -0.10825520917E+04  0.10825520917E+04  0.00000000000E+00 0. -1.
         25    1    1    2    0    0  0.80127440688E+02  0.34627986652E+02 -0.82903162282E+03  0.84293412307E+03  0.12500000000E+03 0.  0.
         25    1    1    2    0    0 -0.80127440688E+02 -0.34627986652E+02 -0.22300128895E+03  0.27013714865E+03  0.12500000000E+03 0.  0.
</event>
<event>
 4    0  0.2259196E-002  0.2631396E+03  0.7546771E-02  0.1105271E+00
         21   -1    0    0  502  501  0.00000000000E+00  0.00000000000E+00  0.10309721969E+03  0.10309721969E+03  0.00000000000E+00 0.  1.
         21   -1    0    0  501  502 -0.00000000000E+00 -0.00000000000E+00 -0.67162294237E+03  0.67162294237E+03  0.00000000000E+00 0.  1.
         25    1    1    2    0    0 -0.91663804063E+01 -0.93197834924E+02  0.27481224890E+02  0.15858775705E+03  0.12500000000E+03 0.  0.
         25    1    1    2    0    0  0.91663804063E+01  0.93197834924E+02 -0.59600694757E+03  0.61613240502E+03  0.12500000000E+03 0.  0.
</event>
<event>
 4    0  0.2259196E-002  0.1602757E+03  0.7546771E-02  0.1188386E+00
         21   -1    0    0  502  501  0.00000000000E+00  0.00000000000E+00  0.90495397861E+03  0.90495397861E+03  0.00000000000E+00 0.  1.
         21   -1    0    0  501  502 -0.00000000000E+00 -0.00000000000E+00 -0.28386320805E+02  0.28386320805E+02  0.00000000000E+00 0.  1.
         25    1    1    2    0    0  0.70069961644E+02  0.41068933062E+02  0.60972305462E+03  0.62768117713E+03  0.12500000000E+03 0.  0.
         25    1    1    2    0    0 -0.70069961644E+02 -0.41068933062E+02  0.26684460318E+03  0.30565912228E+03  0.12500000000E+03 0.  0.
</event>
<event>
 4    0  0.2259196E-002  0.2270460E+03  0.7546771E-02  0.1128736E+00
         21   -1    0    0  502  501  0.00000000000E+00  0.00000000000E+00  0.16072710532E+04  0.16072710532E+04  0.00000000000E+00 0.  1.
         21   -1    0    0  501  502 -0.00000000000E+00 -0.00000000000E+00 -0.32072939937E+02  0.32072939937E+02  0.00000000000E+00 0.  1.
         25    1    1    2    0    0 -0.32992570238E+02  0.15319296710E+03  0.40267578898E+03  0.44981038882E+03  0.12500000000E+03 0.  0.
         25    1    1    2    0    0  0.32992570238E+02 -0.15319296710E+03  0.11725223243E+04  0.11895336043E+04  0.12500000000E+03 0.  0.
</event>
<event>
 4    0  0.2259196E-002  0.3054802E+03  0.7546771E-02  0.1082533E+00
         21   -1    0    0  502  501  0.00000000000E+00  0.00000000000E+00  0.72151430361E+03  0.72151430361E+03  0.00000000000E+00 0.  1.
         21   -1    0    0  501  502 -0.00000000000E+00 -0.00000000000E+00 -0.12933649048E+03  0.12933649048E+03  0.00000000000E+00 0. -1.
         25    1    1    2    0    0  0.23298524281E+03 -0.24049690235E+02  0.50652403966E+03  0.57188470317E+03  0.12500000000E+03 0.  0.
         25    1    1    2    0    0 -0.23298524281E+03  0.24049690235E+02  0.85653773475E+02  0.27896609091E+03  0.12500000000E+03 0.  0.
</event>
<event>
 4    0  0.2259196E-002  0.2261326E+03  0.7546771E-02  0.1129392E+00
         21   -1    0    0  502  501  0.00000000000E+00  0.00000000000E+00  0.37181337621E+03  0.37181337621E+03  0.00000000000E+00 0. -1.
         21   -1    0    0  501  502 -0.00000000000E+00 -0.00000000000E+00 -0.13753127095E+03  0.13753127095E+03  0.00000000000E+00 0. -1.
         25    1    1    2    0    0 -0.16536641764E+03  0.76599864525E+02  0.63160857566E+02  0.22984317535E+03  0.12500000000E+03 0.  0.
         25    1    1    2    0    0  0.16536641764E+03 -0.76599864525E+02  0.17112124770E+03  0.27950147180E+03  0.12500000000E+03 0.  0.
</event>
<event>
 4    0  0.2259196E-002  0.1578363E+03  0.7546771E-02  0.1191161E+00
         21   -1    0    0  502  501  0.00000000000E+00  0.00000000000E+00  0.52079740954E+03  0.52079740954E+03  0.00000000000E+00 0. -1.
         21   -1    0    0  501  502 -0.00000000000E+00 -0.00000000000E+00 -0.47834896426E+02  0.47834896426E+02  0.00000000000E+00 0. -1.
         25    1    1    2    0    0 -0.46230891774E+02  0.83417500975E+02  0.26140977504E+03  0.30505056189E+03  0.12500000000E+03 0.  0.
         25    1    1    2    0    0  0.46230891774E+02 -0.83417500975E+02  0.21155273807E+03  0.26358174407E+03  0.12500000000E+03 0.  0.
</event>
<event>
 4    0  0.2259196E-002  0.1998667E+03  0.7546771E-02  0.1149851E+00
         21   -1    0    0  502  501  0.00000000000E+00  0.00000000000E+00  0.46584067627E+02  0.46584067627E+02  0.00000000000E+00 0. -1.
         21   -1    0    0  501  502 -0.00000000000E+00 -0.00000000000E+00 -0.85751876059E+03  0.85751876059E+03  0.00000000000E+00 0. -1.
         25    1    1    2    0    0  0.14173989364E+03 -0.80260155119E+01 -0.55147114251E+03  0.58300946424E+03  0.12500000000E+03 0.  0.
         25    1    1    2    0    0 -0.14173989364E+03  0.80260155119E+01 -0.25946355046E+03  0.32109336398E+03  0.12500000000E+03 0.  0.
</event>
<event>
 4    0  0.2259196E-002  0.3091819E+03  0.7546771E-02  0.1080739E+00
         21   -1    0    0  502  501  0.00000000000E+00  0.00000000000E+00  0.46533617643E+03  0.46533617643E+03  0.00000000000E+00 0. -1.
         21   -1    0    0  501  502 -0.00000000000E+00 -0.00000000000E+00 -0.20542884949E+03  0.20542884949E+03  0.00000000000E+00 0. -1.
         25    1    1    2    0    0 -0.24138247680E+03  0.13418323057E+03  0.63990708156E+02  0.30982325639E+03  0.12500000000E+03 0.  0.
         25    1    1    2    0    0  0.24138247680E+03 -0.13418323057E+03  0.19591661879E+03  0.36094176952E+03  0.12500000000E+03 0.  0.
</event>
<event>
 4    0  0.2259196E-002  0.2572639E+03  0.7546771E-02  0.1108798E+00
         21   -1    0    0  502  501  0.00000000000E+00  0.00000000000E+00  0.47928370990E+02  0.47928370990E+02  0.00000000000E+00 0. -1.
         21   -1    0    0  501  502 -0.00000000000E+00 -0.00000000000E+00 -0.13809084619E+04  0.13809084619E+04  0.00000000000E+00 0. -1.
         25    1    1    2    0    0 -0.38379269749E+02 -0.37966606083E+02 -0.60335006993E+02  0.14892865605E+03  0.12500000000E+03 0.  0.
         25    1    1    2    0    0  0.38379269749E+02  0.37966606083E+02 -0.12726450839E+04  0.12799081769E+04  0.12500000000E+03 0.  0.
</event>
<event>
 4    0  0.2259196E-002  0.1541125E+03  0.7546771E-02  0.1195509E+00
         21   -1    0    0  502  501  0.00000000000E+00  0.00000000000E+00  0.82677817716E+02  0.82677817716E+02  0.00000000000E+00 0. -1.
         21   -1    0    0  501  502 -0.00000000000E+00 -0.00000000000E+00 -0.28726778573E+03  0.28726778573E+03  0.00000000000E+00 0. -1.
         25    1    1    2    0    0  0.33260763388E+02  0.49026119986E+02 -0.20750415780E+02  0.13987644039E+03  0.12500000000E+03 0.  0.
         25    1    1    2    0    0 -0.33260763388E+02 -0.49026119986E+02 -0.18383955223E+03  0.23006916305E+03  0.12500000000E+03 0.  0.
</event>
<event>
 4    0  0.2259196E-002  0.1907954E+03  0.7546771E-02  0.1157746E+00
         21   -1    0    0  502  501  0.00000000000E+00  0.00000000000E+00  0.41580292571E+02  0.41580292571E+02  0.00000000000E+00 0. -1.
         21   -1    0    0  501  502 -0.00000000000E+00 -0.00000000000E+00 -0.87548442690E+03  0.87548442690E+03  0.00000000000E+00 0. -1.
         25    1    1    2    0    0  0.13961780327E+03  0.35507690788E+02 -0.42871863377E+03  0.46923191924E+03  0.12500000000E+03 0.  0.
         25    1    1    2    0    0 -0.13961780327E+03 -0.35507690788E+02 -0.40518550056E+03  0.44783280023E+03  0.12500000000E+03 0.  0.
</event>
<event>
 4    0  0.2259196E-002  0.1980518E+03  0.7546771E-02  0.1151393E+00
         21   -1    0    0  502  501  0.00000000000E+00  0.00000000000E+00  0.84967150927E+03  0.84967150927E+03  0.00000000000E+00 0.  1.
         21   -1    0    0  501  502 -0.00000000000E+00 -0.00000000000E+00 -0.46164309501E+02  0.46164309501E+02  0.00000000000E+00 0.  1.
         25    1    1    2    0    0  0.71246794121E+02  0.10729371322E+03  0.21237813637E+03  0.27806028011E+03  0.12500000000E+03 0.  0.
         25    1    1    2    0    0 -0.71246794121E+02 -0.10729371322E+03  0.59112906340E+03  0.61777553866E+03  0.12500000000E+03 0.  0.
</event>
<event>
 4    0  0.2259196E-002  0.1929687E+03  0.7546771E-02  0.1155811E+00
         21   -1    0    0  502  501  0.00000000000E+00  0.00000000000E+00  0.17504572238E+02  0.17504572238E+02  0.00000000000E+00 0. -1.
         21   -1    0    0  501  502 -0.00000000000E+00 -0.00000000000E+00 -0.21272673680E+04  0.21272673680E+04  0.00000000000E+00 0. -1.
         25    1    1    2    0    0  0.12260920790E+03 -0.59488646519E+01 -0.15044224271E+04  0.15145891344E+04  0.12500000000E+03 0.  0.
         25    1    1    2    0    0 -0.12260920790E+03  0.59488646519E+01 -0.60534036865E+03  0.63018280584E+03  0.12500000000E+03 0.  0.
</event>
<event>
 4    0  0.2259196E-002  0.2614101E+03  0.7546771E-02  0.1106299E+00
         21   -1    0    0  502  501  0.00000000000E+00  0.00000000000E+00  0.69036677132E+03  0.69036677132E+03  0.00000000000E+00 0.  1.
         21   -1    0    0  501  502 -0.00000000000E+00 -0.00000000000E+00 -0.98983977244E+02  0.98983977244E+02  0.00000000000E+00 0.  1.
         25    1    1    2    0    0  0.17446315596E+03  0.14663011425E+03  0.25372929735E+03  0.36323730470E+03  0.12500000000E+03 0.  0.
         25    1    1    2    0    0 -0.17446315596E+03 -0.14663011425E+03  0.33765349672E+03  0.42611344386E+03  0.12500000000E+03 0.  0.
</event>
<event>
 4    0  0.2259196E-002  0.2696264E+03  0.7546771E-02  0.1101494E+00
         21   -1    0    0  502  501  0.00000000000E+00  0.00000000000E+00  0.99445166816E+03  0.99445166816E+03  0.00000000000E+00 0.  1.
         21   -1    0    0  501  502 -0.00000000000E+00 -0.00000000000E+00 -0.73104025480E+02  0.73104025480E+02  0.00000000000E+00 0.  1.
         25    1    1    2    0    0 -0.91616690448E+02 -0.12675116381E+03  0.10315433010E+03  0.22522275932E+03  0.12500000000E+03 0.  0.
         25    1    1    2    0    0  0.91616690448E+02  0.12675116381E+03  0.81819331258E+03  0.84233293432E+03  0.12500000000E+03 0.  0.
</event>
<event>
 4    0  0.2259196E-002  0.3751583E+03  0.7546771E-02  0.1052738E+00
         21   -1    0    0  502  501  0.00000000000E+00  0.00000000000E+00  0.20158680609E+03  0.20158680609E+03  0.00000000000E+00 0.  1.
         21   -1    0    0  501  502 -0.00000000000E+00 -0.00000000000E+00 -0.69817953760E+03  0.69817953760E+03  0.00000000000E+00 0.  1.
         25    1    1    2    0    0  0.57691315659E+02  0.53859787476E+01 -0.66674302874E+03  0.68082932005E+03  0.12500000000E+03 0.  0.
         25    1    1    2    0    0 -0.57691315659E+02 -0.53859787476E+01  0.17015029723E+03  0.21893702363E+03  0.12500000000E+03 0.  0.
</event>
<event>
 4    0  0.2259196E-002  0.2295230E+03  0.7546771E-02  0.1126976E+00
         21   -1    0    0  502  501  0.00000000000E+00  0.00000000000E+00  0.42083382531E+03  0.42083382531E+03  0.00000000000E+00 0.  1.
         21   -1    0    0  501  502 -0.00000000000E+00 -0.00000000000E+00 -0.12518200754E+03  0.12518200754E+03  0.00000000000E+00 0.  1.
         25    1    1    2    0    0  0.75641652183E+02 -0.11061065145E+03 -0.16558023285E+02  0.18399876058E+03  0.12500000000E+03 0.  0.
         25    1    1    2    0    0 -0.75641652183E+02  0.11061065145E+03  0.31220984106E+03  0.36201707227E+03  0.12500000000E+03 0.  0.
</event>
<event>
 4    0  0.2259196E-002  0.4505358E+03  0.7546771E-02  0.1027562E+00
         21   -1    0    0  502  501  0.00000000000E+00  0.00000000000E+00  0.42007733592E+03  0.42007733592E+03  0.00000000000E+00 0. -1.
         21   -1    0    0  501  502 -0.00000000000E+00 -0.00000000000E+00 -0.48320268862E+03  0.48320268862E+03  0.00000000000E+00 0.  1.
         25    1    1    2    0    0 -0.85143727647E+02  0.36922480426E+03 -0.24131481009E+03  0.46629845379E+03  0.12500000000E+03 0.  0.
         25    1    1    2    0    0  0.85143727647E+02 -0.36922480426E+03  0.17818945740E+03  0.43698157074E+03  0.12500000000E+03 0.  0.
</event>
<event>
 4    0  0.2259196E-002  0.2173808E+03  0.7546771E-02  0.1135851E+00
         21   -1    0    0  502  501  0.00000000000E+00  0.00000000000E+00  0.43362507122E+03  0.43362507122E+03  0.00000000000E+00 0. -1.
         21   -1    0    0  501  502 -0.00000000000E+00 -0.00000000000E+00 -0.10897530550E+03  0.10897530550E+03  0.00000000000E+00 0. -1.
         25    1    1    2    0    0  0.77770707197E+02 -0.15978145200E+03  0.17124023901E+03  0.27663444247E+03  0.12500000000E+03 0.  0.
         25    1    1    2    0    0 -0.77770707197E+02  0.15978145200E+03  0.15340952671E+03  0.26596593426E+03  0.12500000000E+03 0.  0.
</event>
<event>
 4    0  0.2259196E-002  0.2000898E+03  0.7546771E-02  0.1149663E+00
         21   -1    0    0  502  501  0.00000000000E+00  0.00000000000E+00  0.53612891884E+02  0.53612891884E+02  0.00000000000E+00 0. -1.
         21   -1    0    0  501  502 -0.00000000000E+00 -0.00000000000E+00 -0.74675936673E+03  0.74675936673E+03  0.00000000000E+00 0. -1.
         25    1    1    2    0    0  0.64174401429E+02  0.14176981764E+03 -0.37442287096E+03  0.42430475049E+03  0.12500000000E+03 0.  0.
         25    1    1    2    0    0 -0.64174401429E+02 -0.14176981764E+03 -0.31872360388E+03  0.37606750812E+03  0.12500000000E+03 0.  0.
</event>
<event>
 4    0  0.2259196E-002  0.1871347E+03  0.7546771E-02  0.1161071E+00
         21   -1    0    0  502  501  0.00000000000E+00  0.00000000000E+00  0.33453091494E+03  0.33453091494E+03  0.00000000000E+00 0.  1.
         21   -1    0    0  501  502 -0.00000000000E+00 -0.00000000000E+00 -0.10468210936E+03  0.10468210936E+03  0.00000000000E+00 0.  1.
         25    1    1    2    0    0  0.55894781754E+02 -0.83987834785E+02  0.22650528117E+01  0.16064966070E+03  0.12500000000E+03 0.  0.
         25    1    1    2    0    0 -0.55894781754E+02  0.83987834785E+02  0.22758375277E+03  0.27856336361E+03  0.12500000000E+03 0.  0.
</event>
<event>
 4    0  0.2259196E-002  0.2830199E+03  0.7546771E-02  0.1094051E+00
         21   -1    0    0  502  501  0.00000000000E+00  0.00000000000E+00  0.25964557200E+03  0.25964557200E+03  0.00000000000E+00 0. -1.
         21   -1    0    0  501  502 -0.00000000000E+00 -0.00000000000E+00 -0.30849847222E+03  0.30849847222E+03  0.00000000000E+00 0. -1.
         25    1    1    2    0    0  0.27894289387E+02 -0.95415238717E+02  0.21009381907E+03  0.26390636970E+03  0.12500000000E+03 0.  0.
         25    1    1    2    0    0 -0.27894289387E+02  0.95415238717E+02 -0.25894671929E+03  0.30423767451E+03  0.12500000000E+03 0.  0.
</event>
<event>
 4    0  0.2259196E-002  0.1938804E+03  0.7546771E-02  0.1155007E+00
         21   -1    0    0  502  501  0.00000000000E+00  0.00000000000E+00  0.17324492300E+03  0.17324492300E+03  0.00000000000E+00 0. -1.
         21   -1    0    0  501  502 -0.00000000000E+00 -0.00000000000E+00 -0.21697377246E+03  0.21697377246E+03  0.00000000000E+00 0. -1.
         25    1    1    2    0    0  0.80019041102E+01 -0.14430245617E+03 -0.54895877985E+02  0.19881093216E+03  0.12500000000E+03 0.  0.
         25    1    1    2    0    0 -0.80019041102E+01  0.14430245617E+03  0.11167028532E+02  0.19140776330E+03  0.12500000000E+03 0.  0.
</event>
<event>
 4    0  0.2259196E-002  0.2433137E+03  0.7546771E-02  0.1117605E+00
         21   -1    0    0  502  501  0.00000000000E+00  0.00000000000E+00  0.28631984579E+02  0.28631984579E+02  0.00000000000E+00 0. -1.
         21   -1    0    0  501  502 -0.00000000000E+00 -0.00000000000E+00 -0.20676722161E+04  0.20676722161E+04  0.00000000000E+00 0. -1.
         25    1    1    2    0    0  0.10303194855E+03  0.14416099067E+03 -0.14949168120E+04  0.15105625602E+04  0.12500000000E+03 0.  0.
         25    1    1    2    0    0 -0.10303194855E+03 -0.14416099067E+03 -0.54412341956E+03  0.58574164046E+03  0.12500000000E+03 0.  0.
</event>
<event>
 4    0  0.2259196E-002  0.1804766E+03  0.7546771E-02  0.1167343E+00
         21   -1    0    0  502  501  0.00000000000E+00  0.00000000000E+00  0.46284774089E+02  0.46284774089E+02  0.00000000000E+00 0. -1.
         21   -1    0    0  501  502 -0.00000000000E+00 -0.00000000000E+00 -0.70372611762E+03  0.70372611762E+03  0.00000000000E+00 0. -1.
         25    1    1    2    0    0  0.24529424749E+02 -0.66395776514E+02 -0.55573801335E+03  0.57400333736E+03  0.12500000000E+03 0.  0.
         25    1    1    2    0    0 -0.24529424749E+02  0.66395776514E+02 -0.10170333018E+03  0.17600755434E+03  0.12500000000E+03 0.  0.
</event>
<event>
 4    0  0.2259196E-002  0.2171899E+03  0.7546771E-02  0.1135996E+00
         21   -1    0    0  502  501  0.00000000000E+00  0.00000000000E+00  0.64711702539E+02  0.64711702539E+02  0.00000000000E+00 0. -1.
         21   -1    0    0  501  502 -0.00000000000E+00 -0.00000000000E+00 -0.72894801740E+03  0.72894801740E+03  0.00000000000E+00 0. -1.
         25    1    1    2    0    0 -0.15532239387E+02  0.17514252819E+03 -0.28624672414E+03  0.35843875728E+03  0.12500000000E+03 0.  0.
         25    1    1    2    0    0  0.15532239387E+02 -0.17514252819E+03 -0.37798959072E+03  0.43522096266E+03  0.12500000000E+03 0.  0.
</event>
<event>
 4    0  0.2259196E-002  0.2014240E+03  0.7546771E-02  0.1148543E+00
         21   -1    0    0  502  501  0.00000000000E+00  0.00000000000E+00  0.61915151756E+03  0.61915151756E+03  0.00000000000E+00 0.  1.
         21   -1    0    0  501  502 -0.00000000000E+00 -0.00000000000E+00 -0.65527765386E+02  0.65527765386E+02  0.00000000000E+00 0. -1.
         25    1    1    2    0    0 -0.13951698618E+03 -0.38287151963E+02  0.16910888853E+03  0.25525225095E+03  0.12500000000E+03 0.  0.
         25    1    1    2    0    0  0.13951698618E+03  0.38287151963E+02  0.38451486365E+03  0.42942703199E+03  0.12500000000E+03 0.  0.
</event>
<event>
 4    0  0.2259196E-002  0.1603697E+03  0.7546771E-02  0.1188280E+00
         21   -1    0    0  502  501  0.00000000000E+00  0.00000000000E+00  0.16957595295E+03  0.16957595295E+03  0.00000000000E+00 0.  1.
         21   -1    0    0  501  502 -0.00000000000E+00 -0.00000000000E+00 -0.15166318180E+03  0.15166318180E+03  0.00000000000E+00 0.  1.
         25    1    1    2    0    0 -0.14667750623E+02  0.55344060423E+02 -0.73727215679E+02  0.15600900700E+03  0.12500000000E+03 0.  0.
         25    1    1    2    0    0  0.14667750623E+02 -0.55344060423E+02  0.91639986825E+02  0.16523012775E+03  0.12500000000E+03 0.  0.
</event>
<event>
 4    0  0.2259196E-002  0.2855258E+03  0.7546771E-02  0.1092709E+00
         21   -1    0    0  502  501  0.00000000000E+00  0.00000000000E+00  0.45839884853E+03  0.45839884853E+03  0.00000000000E+00 0. -1.
         21   -1    0    0  501  502 -0.00000000000E+00 -0.00000000000E+00 -0.17784725905E+03  0.17784725905E+03  0.00000000000E+00 0. -1.
         25    1    1    2    0    0 -0.91603056298E+02 -0.20480948362E+03  0.27926516391E+03  0.37941016891E+03  0.12500000000E+03 0.  0.
         25    1    1    2    0    0  0.91603056298E+02  0.20480948362E+03  0.12864255774E+01  0.25683593867E+03  0.12500000000E+03 0.  0.
</event>
<event>
 4    0  0.2259196E-002  0.2009564E+03  0.7546771E-02  0.1148935E+00
         21   -1    0    0  502  501  0.00000000000E+00  0.00000000000E+00  0.43750263207E+03  0.43750263207E+03  0.00000000000E+00 0. -1.
         21   -1    0    0  501  502 -0.00000000000E+00 -0.00000000000E+00 -0.92304492170E+02  0.92304492170E+02  0.00000000000E+00 0. -1.
         25    1    1    2    0    0 -0.13342962866E+03 -0.38678662882E+02  0.75203154871E+02  0.20144482935E+03  0.12500000000E+03 0.  0.
         25    1    1    2    0    0  0.13342962866E+03  0.38678662882E+02  0.26999498503E+03  0.32836229490E+03  0.12500000000E+03 0.  0.
</event>
<event>
 4    0  0.2259196E-002  0.1810365E+03  0.7546771E-02  0.1166804E+00
         21   -1    0    0  502  501  0.00000000000E+00  0.00000000000E+00  0.29432372674E+02  0.29432372674E+02  0.00000000000E+00 0. -1.
         21   -1    0    0  501  502 -0.00000000000E+00 -0.00000000000E+00 -0.11135428498E+04  0.11135428498E+04  0.00000000000E+00 0. -1.
         25    1    1    2    0    0  0.55303611076E+02 -0.11681002810E+03 -0.47537849370E+03  0.50824480748E+03  0.12500000000E+03 0.  0.
         25    1    1    2    0    0 -0.55303611076E+02  0.11681002810E+03 -0.60873198341E+03  0.63473041497E+03  0.12500000000E+03 0.  0.
</event>
<event>
 4    0  0.2259196E-002  0.1442793E+03  0.7546771E-02  0.1207684E+00
         21   -1    0    0  502  501  0.00000000000E+00  0.00000000000E+00  0.15892182738E+04  0.15892182738E+04  0.00000000000E+00 0. -1.
         21   -1    0    0  501  502 -0.00000000000E+00 -0.00000000000E+00 -0.13098591978E+02  0.13098591978E+02  0.00000000000E+00 0. -1.
         25    1    1    2    0    0 -0.50115543637E+02 -0.50143619785E+02  0.71660905576E+03  0.73087583700E+03  0.12500000000E+03 0.  0.
         25    1    1    2    0    0  0.50115543637E+02  0.50143619785E+02  0.85951062611E+03  0.87144102882E+03  0.12500000000E+03 0.  0.
</event>
<event>
 4    0  0.2259196E-002  0.1975567E+03  0.7546771E-02  0.1151817E+00
         21   -1    0    0  502  501  0.00000000000E+00  0.00000000000E+00  0.36634905188E+03  0.36634905188E+03  0.00000000000E+00 0.  1.
         21   -1    0    0  501  502 -0.00000000000E+00 -0.00000000000E+00 -0.10653402566E+03  0.10653402566E+03  0.00000000000E+00 0.  1.
         25    1    1    2    0    0 -0.60139708397E+02  0.91662944712E+02  0.22066010123E+01  0.16627912992E+03  0.12500000000E+03 0.  0.
         25    1    1    2    0    0  0.60139708397E+02 -0.91662944712E+02  0.25760842520E+03  0.30660394762E+03  0.12500000000E+03 0.  0.
</event>
<event>
 4    0  0.2259196E-002  0.1637574E+03  0.7546771E-02  0.1184519E+00
         21   -1    0    0  502  501  0.00000000000E+00  0.00000000000E+00  0.66679996433E+03  0.66679996433E+03  0.00000000000E+00 0. -1.
         21   -1    0    0  501  502 -0.00000000000E+00 -0.00000000000E+00 -0.40216693062E+02  0.40216693062E+02  0.00000000000E+00 0. -1.
         25    1    1    2    0    0 -0.75684539222E+02  0.73898476282E+02  0.31660458578E+03  0.35644438277E+03  0.12500000000E+03 0.  0.
         25    1    1    2    0    0  0.75684539222E+02 -0.73898476282E+02  0.30997868549E+03  0.35057227462E+03  0.12500000000E+03 0.  0.
</event>
<event>
 4    0  0.2259196E-002  0.2385439E+03  0.7546771E-02  0.1120767E+00
         21   -1    0    0  502  501  0.00000000000E+00  0.00000000000E+00  0.45541979740E+03  0.45541979740E+03  0.00000000000E+00 0.  1.
         21   -1    0    0  501  502 -0.00000000000E+00 -0.00000000000E+00 -0.12494672323E+03  0.12494672323E+03  0.00000000000E+00 0.  1.
         25    1    1    2    0    0  0.11362755632E+02  0.15333097080E+03  0.36752110997E+01  0.19818679572E+03  0.12500000000E+03 0.  0.
         25    1    1    2    0    0 -0.11362755632E+02 -0.15333097080E+03  0.32679786307E+03  0.38217972491E+03  0.12500000000E+03 0.  0.
</event>
<event>
 4    0  0.2259196E-002  0.1887992E+03  0.7546771E-02  0.1159549E+00
         21   -1    0    0  502  501  0.00000000000E+00  0.00000000000E+00  0.58210155018E+03  0.58210155018E+03  0.00000000000E+00 0.  1.
         21   -1    0    0  501  502 -0.00000000000E+00 -0.00000000000E+00 -0.61235260986E+02  0.61235260986E+02  0.00000000000E+00 0.  1.
         25    1    1    2    0    0  0.11981478309E+03 -0.33774440425E+02  0.37502720635E+03  0.41444746419E+03  0.12500000000E+03 0.  0.
         25    1    1    2    0    0 -0.11981478309E+03  0.33774440425E+02  0.14583908284E+03  0.22888934697E+03  0.12500000000E+03 0.  0.
</event>
<event>
 4    0  0.2259196E-002  0.1968291E+03  0.7546771E-02  0.1152442E+00
         21   -1    0    0  502  501  0.00000000000E+00  0.00000000000E+00  0.18322127024E+03  0.18322127024E+03  0.00000000000E+00 0. -1.
         21   -1    0    0  501  502 -0.00000000000E+00 -0.00000000000E+00 -0.21144760300E+03  0.21144760300E+03  0.00000000000E+00 0. -1.
         25    1    1    2    0    0  0.30041400024E+02  0.22907400220E+02  0.13353836616E+03  0.18677454307E+03  0.12500000000E+03 0.  0.
         25    1    1    2    0    0 -0.30041400024E+02 -0.22907400220E+02 -0.16176469893E+03  0.20789433018E+03  0.12500000000E+03 0.  0.
</event>
<event>
 4    0  0.2259196E-002  0.2354736E+03  0.7546771E-02  0.1122845E+00
         21   -1    0    0  502  501  0.00000000000E+00  0.00000000000E+00  0.23839151526E+03  0.23839151526E+03  0.00000000000E+00 0. -1.
         21   -1    0    0  501  502 -0.00000000000E+00 -0.00000000000E+00 -0.23259132098E+03  0.23259132098E+03  0.00000000000E+00 0.  1.
         25    1    1    2    0    0 -0.52179641012E+02  0.19260836514E+03  0.14507844563E+01  0.23547356971E+03  0.12500000000E+03 0.  0.
         25    1    1    2    0    0  0.52179641012E+02 -0.19260836514E+03  0.43494098179E+01  0.23550926653E+03  0.12500000000E+03 0.  0.
</event>
<event>
 4    0  0.2259196E-002  0.1398437E+03  0.7546771E-02  0.1213539E+00
         21   -1    0    0  502  501  0.00000000000E+00  0.00000000000E+00  0.24030143875E+02  0.24030143875E+02  0.00000000000E+00 0. -1.
         21   -1    0    0  501  502 -0.00000000000E+00 -0.00000000000E+00 -0.81382203972E+03  0.81382203972E+03  0.00000000000E+00 0. -1.
         25    1    1    2    0    0 -0.37668231798E+01 -0.57752754090E+02 -0.32264546970E+03  0.35081999469E+03  0.12500000000E+03 0.  0.
         25    1    1    2    0    0  0.37668231798E+01  0.57752754090E+02 -0.46714642615E+03  0.48703218890E+03  0.12500000000E+03 0.  0.
</event>
<event>
 4    0  0.2259196E-002  0.2023765E+03  0.7546771E-02  0.1147749E+00
         21   -1    0    0  502  501  0.00000000000E+00  0.00000000000E+00  0.53348482247E+03  0.53348482247E+03  0.00000000000E+00 0. -1.
         21   -1    0    0  501  502 -0.00000000000E+00 -0.00000000000E+00 -0.76771183111E+02  0.76771183111E+02  0.00000000000E+00 0. -1.
         25    1    1    2    0    0  0.75264652083E+02 -0.13552938718E+03  0.28268258124E+03  0.34578522869E+03  0.12500000000E+03 0.  0.
         25    1    1    2    0    0 -0.75264652083E+02  0.13552938718E+03  0.17403105812E+03  0.26447077689E+03  0.12500000000E+03 0.  0.
</event>
<event>
 4    0  0.2259196E-002  0.1909832E+03  0.7546771E-02  0.1157577E+00
         21   -1    0    0  502  501  0.00000000000E+00  0.00000000000E+00  0.71372035461E+02  0.71372035461E+02  0.00000000000E+00 0. -1.
         21   -1    0    0  501  502 -0.00000000000E+00 -0.00000000000E+00 -0.51104892086E+03  0.51104892086E+03  0.00000000000E+00 0. -1.
         25    1    1    2    0    0  0.29034109495E+01  0.88237279101E+02 -0.39406166930E+03  0.42273377726E+03  0.12500000000E+03 0.  0.
         25    1    1    2    0    0 -0.29034109495E+01 -0.88237279101E+02 -0.45615216095E+02  0.15968717906E+03  0.12500000000E+03 0.  0.
</event>
<event>
 4    0  0.2259196E-002  0.1950442E+03  0.7546771E-02  0.1153989E+00
         21   -1    0    0  502  501  0.00000000000E+00  0.00000000000E+00  0.17926843485E+03  0.17926843485E+03  0.00000000000E+00 0.  1.
         21   -1    0    0  501  502 -0.00000000000E+00 -0.00000000000E+00 -0.21220817237E+03  0.21220817237E+03  0.00000000000E+00 0.  1.
         25    1    1    2    0    0  0.85981309556E+02  0.11500394966E+03  0.26090173117E+02  0.19215720430E+03  0.12500000000E+03 0.  0.
         25    1    1    2    0    0 -0.85981309556E+02 -0.11500394966E+03 -0.59029910641E+02  0.19931940292E+03  0.12500000000E+03 0.  0.
</event>
<event>
 4    0  0.2259196E-002  0.5997819E+03  0.7546771E-02  0.9905859E-01
         21   -1    0    0  502  501  0.00000000000E+00  0.00000000000E+00  0.65786655381E+03  0.65786655381E+03  0.00000000000E+00 0. -1.
         21   -1    0    0  501  502 -0.00000000000E+00 -0.00000000000E+00 -0.54682575571E+03  0.54682575571E+03  0.00000000000E+00 0. -1.
         25    1    1    2    0    0  0.22846584866E+03 -0.13232320755E+03  0.58159894137E+03  0.65083669524E+03  0.12500000000E+03 0.  0.
         25    1    1    2    0    0 -0.22846584866E+03  0.13232320755E+03 -0.47055814328E+03  0.55385561428E+03  0.12500000000E+03 0.  0.
</event>
<event>
 4    0  0.2259196E-002  0.1931305E+03  0.7546771E-02  0.1155668E+00
         21   -1    0    0  502  501  0.00000000000E+00  0.00000000000E+00  0.21509857776E+03  0.21509857776E+03  0.00000000000E+00 0.  1.
         21   -1    0    0  501  502 -0.00000000000E+00 -0.00000000000E+00 -0.17340594538E+03  0.17340594538E+03  0.00000000000E+00 0.  1.
         25    1    1    2    0    0 -0.12474539802E+03 -0.77339600683E+02  0.93104302501E+01  0.19301427997E+03  0.12500000000E+03 0.  0.
         25    1    1    2    0    0  0.12474539802E+03  0.77339600683E+02  0.32382202125E+02  0.19549024317E+03  0.12500000000E+03 0.  0.
</event>
<event>
 4    0  0.2259196E-002  0.3165593E+03  0.7546771E-02  0.1077244E+00
         21   -1    0    0  502  501  0.00000000000E+00  0.00000000000E+00  0.50964861518E+03  0.50964861518E+03  0.00000000000E+00 0. -1.
         21   -1    0    0  501  502 -0.00000000000E+00 -0.00000000000E+00 -0.19662525190E+03  0.19662525190E+03  0.00000000000E+00 0.  1.
         25    1    1    2    0    0  0.23981240805E+03 -0.32419911947E+02 -0.23447070729E+02  0.27337850477E+03  0.12500000000E+03 0.  0.
         25    1    1    2    0    0 -0.23981240805E+03  0.32419911947E+02  0.33647043401E+03  0.43289536230E+03  0.12500000000E+03 0.  0.
</event>
<event>
 4    0  0.2259196E-002  0.1919035E+03  0.7546771E-02  0.1156756E+00
         21   -1    0    0  502  501  0.00000000000E+00  0.00000000000E+00  0.22980663451E+04  0.22980663451E+04  0.00000000000E+00 0. -1.
         21   -1    0    0  501  502 -0.00000000000E+00 -0.00000000000E+00 -0.16025191909E+02  0.16025191909E+02  0.00000000000E+00 0. -1.
         25    1    1    2    0    0  0.12218466974E+02 -0.85967242303E+02  0.18457614995E+04  0.18520259639E+04  0.12500000000E+03 0.  0.
         25    1    1    2    0    0 -0.12218466974E+02  0.85967242303E+02  0.43627965363E+03  0.46206557311E+03  0.12500000000E+03 0.  0.
</event>
<event>
 4    0  0.2259196E-002  0.2219740E+03  0.7546771E-02  0.1132420E+00
         21   -1    0    0  502  501  0.00000000000E+00  0.00000000000E+00  0.22462596387E+03  0.22462596387E+03  0.00000000000E+00 0.  1.
         21   -1    0    0  501  502 -0.00000000000E+00 -0.00000000000E+00 -0.21935334688E+03  0.21935334688E+03  0.00000000000E+00 0.  1.
         25    1    1    2    0    0  0.15340579607E+03  0.80814529673E+02  0.62499785789E+02  0.22270058307E+03  0.12500000000E+03 0.  0.
         25    1    1    2    0    0 -0.15340579607E+03 -0.80814529673E+02 -0.57227168806E+02  0.22127872768E+03  0.12500000000E+03 0.  0.
</event>
<event>
 4    0  0.2259196E-002  0.2815224E+03  0.7546771E-02  0.1094860E+00
         21   -1    0    0  502  501  0.00000000000E+00  0.00000000000E+00  0.11173628770E+03  0.11173628770E+03  0.00000000000E+00 0.  1.
         21   -1    0    0  501  502 -0.00000000000E+00 -0.00000000000E+00 -0.70930303782E+03  0.70930303782E+03  0.00000000000E+00 0.  1.
         25    1    1    2    0    0  0.11924255132E+03  0.11960179617E+03 -0.57200481718E+03  0.60937499667E+03  0.12500000000E+03 0.  0.
         25    1    1    2    0    0 -0.11924255132E+03 -0.11960179617E+03 -0.25561932938E+02  0.21166432885E+03  0.12500000000E+03 0.  0.
</event>
<event>
 4    0  0.2259196E-002  0.2744682E+03  0.7546771E-02  0.1098749E+00
         21   -1    0    0  502  501  0.00000000000E+00  0.00000000000E+00  0.33078475323E+03  0.33078475323E+03  0.00000000000E+00 0.  1.
         21   -1    0    0  501  502 -0.00000000000E+00 -0.00000000000E+00 -0.22773967744E+03  0.22773967744E+03  0.00000000000E+00 0.  1.
         25    1    1    2    0    0  0.22598734445E+03  0.64512489018E+02 -0.16546436660E+02  0.26670381635E+03  0.12500000000E+03 0.  0.
         25    1    1    2    0    0 -0.22598734445E+03 -0.64512489018E+02  0.11959151245E+03  0.29182061431E+03  0.12500000000E+03 0.  0.
</event>
<event>
 4    0  0.2259196E-002  0.1887738E+03  0.7546771E-02  0.1159572E+00
         21   -1    0    0  502  501  0.00000000000E+00  0.00000000000E+00  0.31659471254E+02  0.31659471254E+02  0.00000000000E+00 0.  1.
         21   -1    0    0  501  502 -0.00000000000E+00 -0.00000000000E+00 -0.11255890489E+04  0.11255890489E+04  0.00000000000E+00 0.  1.
         25    1    1    2    0    0 -0.51789461797E+02  0.12785921202E+03 -0.64294079272E+03  0.66934892948E+03  0.12500000000E+03 0.  0.
         25    1    1    2    0    0  0.51789461797E+02 -0.12785921202E+03 -0.45098878493E+03  0.48789959068E+03  0.12500000000E+03 0.  0.
</event>
<event>
 4    0  0.2259196E-002  0.1802597E+03  0.7546771E-02  0.1167552E+00
         21   -1    0    0  502  501  0.00000000000E+00  0.00000000000E+00  0.23537962329E+03  0.23537962329E+03  0.00000000000E+00 0. -1.
         21   -1    0    0  501  502 -0.00000000000E+00 -0.00000000000E+00 -0.13804749376E+03  0.13804749376E+03  0.00000000000E+00 0. -1.
         25    1    1    2    0    0  0.12027077393E+03 -0.47803950447E+02  0.37400530361E+02  0.18377724672E+03  0.12500000000E+03 0.  0.
         25    1    1    2    0    0 -0.12027077393E+03  0.47803950447E+02  0.59931599162E+02  0.18964987033E+03  0.12500000000E+03 0.  0.
</event>
<event>
 4    0  0.2259196E-002  0.1809671E+03  0.7546771E-02  0.1166870E+00
         21   -1    0    0  502  501  0.00000000000E+00  0.00000000000E+00  0.12382151596E+03  0.12382151596E+03  0.00000000000E+00 0.  1.
         21   -1    0    0  501  502 -0.00000000000E+00 -0.00000000000E+00 -0.26448625868E+03  0.26448625868E+03  0.00000000000E+00 0.  1.
         25    1    1    2    0    0  0.81743323923E+02  0.10064121941E+03 -0.51337343698E+02  0.18727292625E+03  0.12500000000E+03 0.  0.
         25    1    1    2    0    0 -0.81743323923E+02 -0.10064121941E+03 -0.89327399021E+02  0.20103484839E+03  0.12500000000E+03 0.  0.
</event>
<event>
 4    0  0.2259196E-002  0.2521549E+03  0.7546771E-02  0.1111950E+00
         21   -1    0    0  502  501  0.00000000000E+00  0.00000000000E+00  0.15117425811E+04  0.15117425811E+04  0.00000000000E+00 0. -1.
         21   -1    0    0  501  502 -0.00000000000E+00 -0.00000000000E+00 -0.42058812449E+02  0.42058812449E+02  0.00000000000E+00 0. -1.
         25    1    1    2    0    0  0.14714189015E+03 -0.12320991360E+03  0.40985835672E+03  0.46951069340E+03  0.12500000000E+03 0.  0.
         25    1    1    2    0    0 -0.14714189015E+03  0.12320991360E+03  0.10598254119E+04  0.10842907001E+04  0.12500000000E+03 0.  0.
</event>
<event>
 4    0  0.2259196E-002  0.1939014E+03  0.7546771E-02  0.1154989E+00
         21   -1    0    0  502  501  0.00000000000E+00  0.00000000000E+00  0.37563425421E+02  0.37563425421E+02  0.00000000000E+00 0. -1.
         21   -1    0    0  501  502 -0.00000000000E+00 -0.00000000000E+00 -0.10009137205E+04  0.10009137205E+04  0.00000000000E+00 0. -1.
         25    1    1    2    0    0 -0.23028051257E+02  0.83544337475E+02 -0.15963336000E+03  0.22049434708E+03  0.12500000000E+03 0.  0.
         25    1    1    2    0    0  0.23028051257E+02 -0.83544337475E+02 -0.80371693504E+03  0.81798279880E+03  0.12500000000E+03 0.  0.
</event>
<event>
 4    0  0.2259196E-002  0.2244216E+03  0.7546771E-02  0.1130629E+00
         21   -1    0    0  502  501  0.00000000000E+00  0.00000000000E+00  0.13514638910E+03  0.13514638910E+03  0.00000000000E+00 0.  1.
         21   -1    0    0  501  502 -0.00000000000E+00 -0.00000000000E+00 -0.37267036920E+03  0.37267036920E+03  0.00000000000E+00 0.  1.
         25    1    1    2    0    0  0.33823637613E+02  0.10899968556E+03  0.47960098826E+02  0.17592652158E+03  0.12500000000E+03 0.  0.
         25    1    1    2    0    0 -0.33823637613E+02 -0.10899968556E+03 -0.28548407893E+03  0.33189023673E+03  0.12500000000E+03 0.  0.
</event>
<event>
 4    0  0.2259196E-002  0.3323480E+03  0.7546771E-02  0.1070103E+00
         21   -1    0    0  502  501  0.00000000000E+00  0.00000000000E+00  0.46514253745E+03  0.46514253745E+03  0.00000000000E+00 0. -1.
         21   -1    0    0  501  502 -0.00000000000E+00 -0.00000000000E+00 -0.23746524485E+03  0.23746524485E+03  0.00000000000E+00 0. -1.
         25    1    1    2    0    0 -0.20771332705E+02 -0.14127490509E+03  0.40223747523E+03  0.44475839907E+03  0.12500000000E+03 0.  0.
         25    1    1    2    0    0  0.20771332705E+02  0.14127490509E+03 -0.17456018263E+03  0.25784938323E+03  0.12500000000E+03 0.  0.
</event>
<event>
 4    0  0.2259196E-002  0.2049510E+03  0.7546771E-02  0.1145628E+00
         21   -1    0    0  502  501  0.00000000000E+00  0.00000000000E+00  0.11920317187E+03  0.11920317187E+03  0.00000000000E+00 0.  1.
         21   -1    0    0  501  502 -0.00000000000E+00 -0.00000000000E+00 -0.35238095227E+03  0.35238095227E+03  0.00000000000E+00 0.  1.
         25    1    1    2    0    0  0.15601515350E+03  0.44234945693E+02 -0.10614112099E+03  0.23062609590E+03  0.12500000000E+03 0.  0.
         25    1    1    2    0    0 -0.15601515350E+03 -0.44234945693E+02 -0.12703665941E+03  0.24095802825E+03  0.12500000000E+03 0.  0.
</event>
<event>
 4    0  0.2259196E-002  0.2772447E+03  0.7546771E-02  0.1097203E+00
         21   -1    0    0  502  501  0.00000000000E+00  0.00000000000E+00  0.19172168636E+03  0.19172168636E+03  0.00000000000E+00 0. -1.
         21   -1    0    0  501  502 -0.00000000000E+00 -0.00000000000E+00 -0.40091778209E+03  0.40091778209E+03  0.00000000000E+00 0. -1.
         25    1    1    2    0    0  0.17392626211E+03  0.12706345144E+03  0.25621212765E+02  0.25035357375E+03  0.12500000000E+03 0.  0.
         25    1    1    2    0    0 -0.17392626211E+03 -0.12706345144E+03 -0.23481730850E+03  0.34228589471E+03  0.12500000000E+03 0.  0.
</event>
<event>
 4    0  0.2259196E-002  0.1858409E+03  0.7546771E-02  0.1162267E+00
         21   -1    0    0  502  501  0.00000000000E+00  0.00000000000E+00  0.32443099855E+03  0.32443099855E+03  0.00000000000E+00 0. -1.
         21   -1    0    0  501  502 -0.00000000000E+00 -0.00000000000E+00 -0.10645352426E+03  0.10645352426E+03  0.00000000000E+00 0. -1.
         25    1    1    2    0    0 -0.11464419484E+03 -0.72622146432E+02  0.83207884791E+02  0.20240014737E+03  0.12500000000E+03 0.  0.
         25    1    1    2    0    0  0.11464419484E+03  0.72622146432E+02  0.13476958950E+03  0.22848437543E+03  0.12500000000E+03 0.  0.
</event>
<event>
 4    0  0.2259196E-002  0.2556725E+03  0.7546771E-02  0.1109772E+00
         21   -1    0    0  502  501  0.00000000000E+00  0.00000000000E+00  0.25313106290E+03  0.25313106290E+03  0.00000000000E+00 0.  1.
         21   -1    0    0  501  502 -0.00000000000E+00 -0.00000000000E+00 -0.25823945696E+03  0.25823945696E+03  0.00000000000E+00 0.  1.
         25    1    1    2    0    0  0.35422035233E+02  0.20530937814E+03  0.77053587231E+02  0.25489000890E+03  0.12500000000E+03 0.  0.
         25    1    1    2    0    0 -0.35422035233E+02 -0.20530937814E+03 -0.82161981296E+02  0.25648051096E+03  0.12500000000E+03 0.  0.
</event>
<event>
 4    0  0.2259196E-002  0.2739095E+03  0.7546771E-02  0.1099063E+00
         21   -1    0    0  502  501  0.00000000000E+00  0.00000000000E+00  0.54015934286E+03  0.54015934286E+03  0.00000000000E+00 0.  1.
         21   -1    0    0  501  502 -0.00000000000E+00 -0.00000000000E+00 -0.13889686713E+03  0.13889686713E+03  0.00000000000E+00 0.  1.
         25    1    1    2    0    0  0.23316838692E+03 -0.29353100301E+02  0.28069912505E+03  0.38684118182E+03  0.12500000000E+03 0.  0.
         25    1    1    2    0    0 -0.23316838692E+03  0.29353100301E+02  0.12056335068E+03  0.29221502816E+03  0.12500000000E+03 0.  0.
</event>
<event>
 4    0  0.2259196E-002  0.2824496E+03  0.7546771E-02  0.1094358E+00
         21   -1    0    0  502  501  0.00000000000E+00  0.00000000000E+00  0.17213776463E+03  0.17213776463E+03  0.00000000000E+00 0. -1.
         21   -1    0    0  501  502 -0.00000000000E+00 -0.00000000000E+00 -0.46345314574E+03  0.46345314574E+03  0.00000000000E+00 0. -1.
         25    1    1    2    0    0  0.25022156113E+03  0.11008183099E+02 -0.10324753025E+03  0.29835727284E+03  0.12500000000E+03 0.  0.
         25    1    1    2    0    0 -0.25022156113E+03 -0.11008183099E+02 -0.18806785086E+03  0.33723363753E+03  0.12500000000E+03 0.  0.
</event>
<event>
 4    0  0.2259196E-002  0.2241754E+03  0.7546771E-02  0.1130808E+00
         21   -1    0    0  502  501  0.00000000000E+00  0.00000000000E+00  0.26180098171E+03  0.26180098171E+03  0.00000000000E+00 0.  1.
         21   -1    0    0  501  502 -0.00000000000E+00 -0.00000000000E+00 -0.19195723145E+03  0.19195723145E+03  0.00000000000E+00 0.  1.
         25    1    1    2    0    0  0.13101797106E+03 -0.12169289782E+03 -0.17223538186E+02  0.21885273676E+03  0.12500000000E+03 0.  0.
         25    1    1    2    0    0 -0.13101797106E+03  0.12169289782E+03  0.87067288449E+02  0.23490547639E+03  0.12500000000E+03 0.  0.
</event>
<event>
 4    0  0.2259196E-002  0.2201920E+03  0.7546771E-02  0.1133740E+00
         21   -1    0    0  502  501  0.00000000000E+00  0.00000000000E+00  0.16427512489E+03  0.16427512489E+03  0.00000000000E+00 0. -1.
         21   -1    0    0  501  502 -0.00000000000E+00 -0.00000000000E+00 -0.29514227421E+03  0.29514227421E+03  0.00000000000E+00 0. -1.
         25    1    1    2    0    0  0.85819536506E+02 -0.12661805919E+03  0.36045540071E+02  0.20080190915E+03  0.12500000000E+03 0.  0.
         25    1    1    2    0    0 -0.85819536506E+02  0.12661805919E+03 -0.16691268939E+03  0.25861548995E+03  0.12500000000E+03 0.  0.
</event>
<event>
 4    0  0.2259196E-002  0.2482315E+03  0.7546771E-02  0.1114428E+00
         21   -1    0    0  502  501  0.00000000000E+00  0.00000000000E+00  0.27291046640E+03  0.27291046640E+03  0.00000000000E+00 0.  1.
         21   -1    0    0  501  502 -0.00000000000E+00 -0.00000000000E+00 -0.22578427824E+03  0.22578427824E+03  0.00000000000E+00 0.  1.
         25    1    1    2    0    0  0.18986155999E+03 -0.31999692841E+02 -0.71320502537E+02  0.24038096095E+03  0.12500000000E+03 0.  0.
         25    1    1    2    0    0 -0.18986155999E+03  0.31999692841E+02  0.11844669070E+03  0.25831378369E+03  0.12500000000E+03 0.  0.
</event>
<event>
 4    0  0.2259196E-002  0.2182416E+03  0.7546771E-02  0.1135201E+00
         21   -1    0    0  502  501  0.00000000000E+00  0.00000000000E+00  0.21400828861E+03  0.21400828861E+03  0.00000000000E+00 0.  1.
         21   -1    0    0  501  502 -0.00000000000E+00 -0.00000000000E+00 -0.22255861270E+03  0.22255861270E+03  0.00000000000E+00 0.  1.
         25    1    1    2    0    0 -0.34443897997E+02  0.83713595384E+02 -0.15860978673E+03  0.22130615131E+03  0.12500000000E+03 0.  0.
         25    1    1    2    0    0  0.34443897997E+02 -0.83713595384E+02  0.15005946264E+03  0.21526075000E+03  0.12500000000E+03 0.  0.
</event>
<event>
 4    0  0.2259196E-002  0.1478863E+03  0.7546771E-02  0.1203095E+00
         21   -1    0    0  502  501  0.00000000000E+00  0.00000000000E+00  0.10974589671E+03  0.10974589671E+03  0.00000000000E+00 0. -1.
         21   -1    0    0  501  502 -0.00000000000E+00 -0.00000000000E+00 -0.19928185674E+03  0.19928185674E+03  0.00000000000E+00 0. -1.
         25    1    1    2    0    0 -0.66993146994E+02 -0.19626543702E+02 -0.83469646952E+02  0.16572707963E+03  0.12500000000E+03 0.  0.
         25    1    1    2    0    0  0.66993146994E+02  0.19626543702E+02 -0.60663130868E+01  0.14330067382E+03  0.12500000000E+03 0.  0.
</event>
<event>
 4    0  0.2259196E-002  0.5330082E+03  0.7546771E-02  0.1005505E+00
         21   -1    0    0  502  501  0.00000000000E+00  0.00000000000E+00  0.21626665235E+04  0.21626665235E+04  0.00000000000E+00 0. -1.
         21   -1    0    0  501  502 -0.00000000000E+00 -0.00000000000E+00 -0.13136458491E+03  0.13136458491E+03  0.00000000000E+00 0.  1.
         25    1    1    2    0    0  0.21589331097E+03  0.44497815895E+03  0.68326239674E+03  0.85269454464E+03  0.12500000000E+03 0.  0.
         25    1    1    2    0    0 -0.21589331097E+03 -0.44497815895E+03  0.13480395419E+04  0.14413365638E+04  0.12500000000E+03 0.  0.
</event>
<event>
 4    0  0.2259196E-002  0.2024488E+03  0.7546771E-02  0.1147689E+00
         21   -1    0    0  502  501  0.00000000000E+00  0.00000000000E+00  0.24703822601E+02  0.24703822601E+02  0.00000000000E+00 0. -1.
         21   -1    0    0  501  502 -0.00000000000E+00 -0.00000000000E+00 -0.16590750928E+04  0.16590750928E+04  0.00000000000E+00 0. -1.
         25    1    1    2    0    0  0.10378846563E+03  0.11720833819E+02 -0.13170935587E+04  0.13271284286E+04  0.12500000000E+03 0.  0.
         25    1    1    2    0    0 -0.10378846563E+03 -0.11720833819E+02 -0.31727771148E+03  0.35665048681E+03  0.12500000000E+03 0.  0.
</event>
<event>
 4    0  0.2259196E-002  0.2087446E+03  0.7546771E-02  0.1142564E+00
         21   -1    0    0  502  501  0.00000000000E+00  0.00000000000E+00  0.63430281313E+02  0.63430281313E+02  0.00000000000E+00 0.  1.
         21   -1    0    0  501  502 -0.00000000000E+00 -0.00000000000E+00 -0.68696366652E+03  0.68696366652E+03  0.00000000000E+00 0.  1.
         25    1    1    2    0    0 -0.11506040554E+03  0.19658539003E+02 -0.96649349864E+02  0.19644707152E+03  0.12500000000E+03 0.  0.
         25    1    1    2    0    0  0.11506040554E+03 -0.19658539003E+02 -0.52688403534E+03  0.55394687631E+03  0.12500000000E+03 0.  0.
</event>
<event>
 4    0  0.2259196E-002  0.1635142E+03  0.7546771E-02  0.1184785E+00
         21   -1    0    0  502  501  0.00000000000E+00  0.00000000000E+00  0.14607719110E+02  0.14607719110E+02  0.00000000000E+00 0. -1.
         21   -1    0    0  501  502 -0.00000000000E+00 -0.00000000000E+00 -0.18303254046E+04  0.18303254046E+04  0.00000000000E+00 0. -1.
         25    1    1    2    0    0  0.77144687816E+02 -0.66713653991E+02 -0.10581671993E+04  0.10703947105E+04  0.12500000000E+03 0.  0.
         25    1    1    2    0    0 -0.77144687816E+02  0.66713653991E+02 -0.75755048616E+03  0.77453841323E+03  0.12500000000E+03 0.  0.
</event>
<event>
 4    0  0.2259196E-002  0.3315590E+03  0.7546771E-02  0.1070449E+00
         21   -1    0    0  502  501  0.00000000000E+00  0.00000000000E+00  0.81271977054E+03  0.81271977054E+03  0.00000000000E+00 0.  1.
         21   -1    0    0  501  502 -0.00000000000E+00 -0.00000000000E+00 -0.13526359122E+03  0.13526359122E+03  0.00000000000E+00 0.  1.
         25    1    1    2    0    0  0.13520340771E+03 -0.75366165554E+02 -0.40439065292E+02  0.20302792510E+03  0.12500000000E+03 0.  0.
         25    1    1    2    0    0 -0.13520340771E+03  0.75366165554E+02  0.71789524461E+03  0.74495543666E+03  0.12500000000E+03 0.  0.
</event>
<event>
 4    0  0.2259196E-002  0.2879203E+03  0.7546771E-02  0.1091440E+00
         21   -1    0    0  502  501  0.00000000000E+00  0.00000000000E+00  0.18883061649E+03  0.18883061649E+03  0.00000000000E+00 0.  1.
         21   -1    0    0  501  502 -0.00000000000E+00 -0.00000000000E+00 -0.43900787166E+03  0.43900787166E+03  0.00000000000E+00 0.  1.
         25    1    1    2    0    0  0.97901150922E+02  0.23040777865E+03 -0.51134951362E+02  0.28445063380E+03  0.12500000000E+03 0.  0.
         25    1    1    2    0    0 -0.97901150922E+02 -0.23040777865E+03 -0.19904230380E+03  0.34338785436E+03  0.12500000000E+03 0.  0.
</event>
<event>
 4    0  0.2259196E-002  0.1874826E+03  0.7546771E-02  0.1160752E+00
         21   -1    0    0  502  501  0.00000000000E+00  0.00000000000E+00  0.13629742350E+03  0.13629742350E+03  0.00000000000E+00 0.  1.
         21   -1    0    0  501  502 -0.00000000000E+00 -0.00000000000E+00 -0.25788977458E+03  0.25788977458E+03  0.00000000000E+00 0.  1.
         25    1    1    2    0    0 -0.96969601921E+02 -0.91015000612E+02 -0.15728002796E+02  0.18319171407E+03  0.12500000000E+03 0.  0.
         25    1    1    2    0    0  0.96969601921E+02  0.91015000612E+02 -0.10586434829E+03  0.21099548401E+03  0.12500000000E+03 0.  0.
</event>
<event>
 4    0  0.2259196E-002  0.1651845E+03  0.7546771E-02  0.1182965E+00
         21   -1    0    0  502  501  0.00000000000E+00  0.00000000000E+00  0.16063574402E+03  0.16063574402E+03  0.00000000000E+00 0. -1.
         21   -1    0    0  501  502 -0.00000000000E+00 -0.00000000000E+00 -0.16986200520E+03  0.16986200520E+03  0.00000000000E+00 0. -1.
         25    1    1    2    0    0  0.13979077354E+02 -0.36928817052E+02 -0.10515981661E+03  0.16805576206E+03  0.12500000000E+03 0.  0.
         25    1    1    2    0    0 -0.13979077354E+02  0.36928817052E+02  0.95933555436E+02  0.16244198716E+03  0.12500000000E+03 0.  0.
</event>
<event>
 4    0  0.2259196E-002  0.1904688E+03  0.7546771E-02  0.1158039E+00
         21   -1    0    0  502  501  0.00000000000E+00  0.00000000000E+00  0.26355696410E+03  0.26355696410E+03  0.00000000000E+00 0.  1.
         21   -1    0    0  501  502 -0.00000000000E+00 -0.00000000000E+00 -0.13764904220E+03  0.13764904220E+03  0.00000000000E+00 0.  1.
         25    1    1    2    0    0 -0.55497304376E+02 -0.12398434467E+03  0.11236826969E+03  0.21611038048E+03  0.12500000000E+03 0.  0.
         25    1    1    2    0    0  0.55497304376E+02  0.12398434467E+03  0.13539652202E+02  0.18509562582E+03  0.12500000000E+03 0.  0.
</event>
<event>
 4    0  0.2259196E-002  0.2228409E+03  0.7546771E-02  0.1131783E+00
         21   -1    0    0  502  501  0.00000000000E+00  0.00000000000E+00  0.17514211701E+03  0.17514211701E+03  0.00000000000E+00 0.  1.
         21   -1    0    0  501  502 -0.00000000000E+00 -0.00000000000E+00 -0.28353013921E+03  0.28353013921E+03  0.00000000000E+00 0.  1.
         25    1    1    2    0    0  0.72246504472E+02 -0.59954447956E+01 -0.22877807264E+03  0.27059177609E+03  0.12500000000E+03 0.  0.
         25    1    1    2    0    0 -0.72246504472E+02  0.59954447956E+01  0.12039005043E+03  0.18808048014E+03  0.12500000000E+03 0.  0.
</event>
<event>
 4    0  0.2259196E-002  0.2493832E+03  0.7546771E-02  0.1113695E+00
         21   -1    0    0  502  501  0.00000000000E+00  0.00000000000E+00  0.26671063025E+03  0.26671063025E+03  0.00000000000E+00 0. -1.
         21   -1    0    0  501  502 -0.00000000000E+00 -0.00000000000E+00 -0.23318141373E+03  0.23318141373E+03  0.00000000000E+00 0. -1.
         25    1    1    2    0    0 -0.19600978915E+02  0.56215726290E+02 -0.19112232992E+03  0.23600243908E+03  0.12500000000E+03 0.  0.
         25    1    1    2    0    0  0.19600978915E+02 -0.56215726290E+02  0.22465154645E+03  0.26388960491E+03  0.12500000000E+03 0.  0.
</event>
<event>
 4    0  0.2259196E-002  0.3149235E+03  0.7546771E-02  0.1078010E+00
         21   -1    0    0  502  501  0.00000000000E+00  0.00000000000E+00  0.13543255426E+03  0.13543255426E+03  0.00000000000E+00 0. -1.
         21   -1    0    0  501  502 -0.00000000000E+00 -0.00000000000E+00 -0.73229667093E+03  0.73229667093E+03  0.00000000000E+00 0. -1.
         25    1    1    2    0    0 -0.26603556151E+03 -0.46622330567E+02 -0.15656923394E+03  0.33628482974E+03  0.12500000000E+03 0.  0.
         25    1    1    2    0    0  0.26603556151E+03  0.46622330567E+02 -0.44029488272E+03  0.53144439544E+03  0.12500000000E+03 0.  0.
</event>
<event>
 4    0  0.2259196E-002  0.2137607E+03  0.7546771E-02  0.1138622E+00
         21   -1    0    0  502  501  0.00000000000E+00  0.00000000000E+00  0.25651698908E+03  0.25651698908E+03  0.00000000000E+00 0.  1.
         21   -1    0    0  501  502 -0.00000000000E+00 -0.00000000000E+00 -0.17813105832E+03  0.17813105832E+03  0.00000000000E+00 0.  1.
         25    1    1    2    0    0 -0.45539596913E+02  0.12381900615E+03 -0.75215761086E+02  0.19669115864E+03  0.12500000000E+03 0.  0.
         25    1    1    2    0    0  0.45539596913E+02 -0.12381900615E+03  0.15360169185E+03  0.23795688876E+03  0.12500000000E+03 0.  0.
</event>
<event>
 4    0  0.2259196E-002  0.1640345E+03  0.7546771E-02  0.1184216E+00
         21   -1    0    0  502  501  0.00000000000E+00  0.00000000000E+00  0.31180122452E+03  0.31180122452E+03  0.00000000000E+00 0.  1.
         21   -1    0    0  501  502 -0.00000000000E+00 -0.00000000000E+00 -0.86296423624E+02  0.86296423624E+02  0.00000000000E+00 0.  1.
         25    1    1    2    0    0  0.30088302958E+02  0.74409713545E+02  0.28330170346E+02  0.15122734540E+03  0.12500000000E+03 0.  0.
         25    1    1    2    0    0 -0.30088302958E+02 -0.74409713545E+02  0.19717463055E+03  0.24687030275E+03  0.12500000000E+03 0.  0.
</event>
<event>
 4    0  0.2259196E-002  0.3158934E+03  0.7546771E-02  0.1077555E+00
         21   -1    0    0  502  501  0.00000000000E+00  0.00000000000E+00  0.26273067864E+02  0.26273067864E+02  0.00000000000E+00 0.  1.
         21   -1    0    0  501  502 -0.00000000000E+00 -0.00000000000E+00 -0.37981335673E+04  0.37981335673E+04  0.00000000000E+00 0.  1.
         25    1    1    2    0    0  0.22874179840E+03  0.17618136721E+03 -0.17146163522E+04  0.17432432187E+04  0.12500000000E+03 0.  0.
         25    1    1    2    0    0 -0.22874179840E+03 -0.17618136721E+03 -0.20572441473E+04  0.20811634165E+04  0.12500000000E+03 0.  0.
</event>
<event>
 4    0  0.2259196E-002  0.1949036E+03  0.7546771E-02  0.1154112E+00
         21   -1    0    0  502  501  0.00000000000E+00  0.00000000000E+00  0.82783040738E+03  0.82783040738E+03  0.00000000000E+00 0.  1.
         21   -1    0    0  501  502 -0.00000000000E+00 -0.00000000000E+00 -0.45887905749E+02  0.45887905749E+02  0.00000000000E+00 0.  1.
         25    1    1    2    0    0 -0.86691120426E+02 -0.63032088367E+02  0.62470234091E+03  0.64603901528E+03  0.12500000000E+03 0.  0.
         25    1    1    2    0    0  0.86691120426E+02  0.63032088367E+02  0.15724016072E+03  0.22767929784E+03  0.12500000000E+03 0.  0.
</event>
<event>
 4    0  0.2259196E-002  0.2560742E+03  0.7546771E-02  0.1109525E+00
         21   -1    0    0  502  501  0.00000000000E+00  0.00000000000E+00  0.10190469600E+03  0.10190469600E+03  0.00000000000E+00 0. -1.
         21   -1    0    0  501  502 -0.00000000000E+00 -0.00000000000E+00 -0.64348340365E+03  0.64348340365E+03  0.00000000000E+00 0. -1.
         25    1    1    2    0    0  0.18124052850E+03 -0.58258467095E+02 -0.44118353593E+03  0.49649782530E+03  0.12500000000E+03 0.  0.
         25    1    1    2    0    0 -0.18124052850E+03  0.58258467095E+02 -0.10039517172E+03  0.24889027434E+03  0.12500000000E+03 0.  0.
</event>
<event>
 4    0  0.2259196E-002  0.1943747E+03  0.7546771E-02  0.1154574E+00
         21   -1    0    0  502  501  0.00000000000E+00  0.00000000000E+00  0.59287558916E+02  0.59287558916E+02  0.00000000000E+00 0. -1.
         21   -1    0    0  501  502 -0.00000000000E+00 -0.00000000000E+00 -0.63725873558E+03  0.63725873558E+03  0.00000000000E+00 0. -1.
         25    1    1    2    0    0 -0.89939181841E+02  0.11051588406E+03 -0.36612916511E+03  0.41228434678E+03  0.12500000000E+03 0.  0.
         25    1    1    2    0    0  0.89939181841E+02 -0.11051588406E+03 -0.21184201156E+03  0.28426194772E+03  0.12500000000E+03 0.  0.
</event>
<event>
 4    0  0.2259196E-002  0.2571181E+03  0.7546771E-02  0.1108887E+00
         21   -1    0    0  502  501  0.00000000000E+00  0.00000000000E+00  0.34716353198E+03  0.34716353198E+03  0.00000000000E+00 0.  1.
         21   -1    0    0  501  502 -0.00000000000E+00 -0.00000000000E+00 -0.19042817496E+03  0.19042817496E+03  0.00000000000E+00 0.  1.
         25    1    1    2    0    0 -0.67579960698E+02  0.20772724943E+03  0.23375752349E+02  0.25276290677E+03  0.12500000000E+03 0.  0.
         25    1    1    2    0    0  0.67579960698E+02 -0.20772724943E+03  0.13335960468E+03  0.28482880017E+03  0.12500000000E+03 0.  0.
</event>
<event>
 4    0  0.2259196E-002  0.3018115E+03  0.7546771E-02  0.1084339E+00
         21   -1    0    0  502  501  0.00000000000E+00  0.00000000000E+00  0.57194784555E+02  0.57194784555E+02  0.00000000000E+00 0. -1.
         21   -1    0    0  501  502 -0.00000000000E+00 -0.00000000000E+00 -0.15926308669E+04  0.15926308669E+04  0.00000000000E+00 0. -1.
         25    1    1    2    0    0  0.26737633733E+03 -0.10914267258E+02 -0.93744002700E+03  0.98286725005E+03  0.12500000000E+03 0.  0.
         25    1    1    2    0    0 -0.26737633733E+03  0.10914267258E+02 -0.59799605532E+03  0.66695840138E+03  0.12500000000E+03 0.  0.
</event>
<event>
 4    0  0.2259196E-002  0.1872846E+03  0.7546771E-02  0.1160933E+00
         21   -1    0    0  502  501  0.00000000000E+00  0.00000000000E+00  0.54468973744E+02  0.54468973744E+02  0.00000000000E+00 0. -1.
         21   -1    0    0  501  502 -0.00000000000E+00 -0.00000000000E+00 -0.64395417269E+03  0.64395417269E+03  0.00000000000E+00 0. -1.
         25    1    1    2    0    0  0.64937169299E+02  0.61699035195E+02 -0.95422512093E+02  0.18098083521E+03  0.12500000000E+03 0.  0.
         25    1    1    2    0    0 -0.64937169299E+02 -0.61699035195E+02 -0.49406268686E+03  0.51744231122E+03  0.12500000000E+03 0.  0.
</event>
<event>
 4    0  0.2259196E-002  0.2318719E+03  0.7546771E-02  0.1125329E+00
         21   -1    0    0  502  501  0.00000000000E+00  0.00000000000E+00  0.62488625539E+02  0.62488625539E+02  0.00000000000E+00 0. -1.
         21   -1    0    0  501  502 -0.00000000000E+00 -0.00000000000E+00 -0.86038978233E+03  0.86038978233E+03  0.00000000000E+00 0. -1.
         25    1    1    2    0    0  0.43936157152E+02 -0.38613192019E+02 -0.28146035094E+02  0.14084943661E+03  0.12500000000E+03 0.  0.
         25    1    1    2    0    0 -0.43936157152E+02  0.38613192019E+02 -0.76975512169E+03  0.78202897125E+03  0.12500000000E+03 0.  0.
</event>
<event>
 4    0  0.2259196E-002  0.2117819E+03  0.7546771E-02  0.1140163E+00
         21   -1    0    0  502  501  0.00000000000E+00  0.00000000000E+00  0.69887353156E+03  0.69887353156E+03  0.00000000000E+00 0.  1.
         21   -1    0    0  501  502 -0.00000000000E+00 -0.00000000000E+00 -0.64176933564E+02  0.64176933564E+02  0.00000000000E+00 0.  1.
         25    1    1    2    0    0  0.14386407567E+03 -0.84195292971E+02  0.38573040215E+03  0.43840467923E+03  0.12500000000E+03 0.  0.
         25    1    1    2    0    0 -0.14386407567E+03  0.84195292971E+02  0.24896619584E+03  0.32464578589E+03  0.12500000000E+03 0.  0.
</event>
<event>
 4    0  0.2259196E-002  0.2087071E+03  0.7546771E-02  0.1142594E+00
         21   -1    0    0  502  501  0.00000000000E+00  0.00000000000E+00  0.21933620230E+03  0.21933620230E+03  0.00000000000E+00 0.  1.
         21   -1    0    0  501  502 -0.00000000000E+00 -0.00000000000E+00 -0.19859310142E+03  0.19859310142E+03  0.00000000000E+00 0.  1.
         25    1    1    2    0    0 -0.48249810761E+02 -0.14942298751E+03  0.67699373298E+02  0.21181000585E+03  0.12500000000E+03 0.  0.
         25    1    1    2    0    0  0.48249810761E+02  0.14942298751E+03 -0.46956272424E+02  0.20611929787E+03  0.12500000000E+03 0.  0.
</event>
<event>
 4    0  0.2259196E-002  0.2022434E+03  0.7546771E-02  0.1147860E+00
         21   -1    0    0  502  501  0.00000000000E+00  0.00000000000E+00  0.17485917936E+03  0.17485917936E+03  0.00000000000E+00 0. -1.
         21   -1    0    0  501  502 -0.00000000000E+00 -0.00000000000E+00 -0.23391609383E+03  0.23391609383E+03  0.00000000000E+00 0. -1.
         25    1    1    2    0    0 -0.13916190399E+03  0.58210351703E+01  0.47948945654E+02  0.19319425809E+03  0.12500000000E+03 0.  0.
         25    1    1    2    0    0  0.13916190399E+03 -0.58210351703E+01 -0.10700586012E+03  0.21558101510E+03  0.12500000000E+03 0.  0.
</event>
<event>
 4    0  0.2259196E-002  0.3159073E+03  0.7546771E-02  0.1077548E+00
         21   -1    0    0  502  501  0.00000000000E+00  0.00000000000E+00  0.66261960544E+03  0.66261960544E+03  0.00000000000E+00 0. -1.
         21   -1    0    0  501  502 -0.00000000000E+00 -0.00000000000E+00 -0.15061044990E+03  0.15061044990E+03  0.00000000000E+00 0. -1.
         25    1    1    2    0    0 -0.50361509478E+02 -0.27135726801E+03  0.14086983201E+03  0.33412626073E+03  0.12500000000E+03 0.  0.
         25    1    1    2    0    0  0.50361509478E+02  0.27135726801E+03  0.37113932353E+03  0.47910379461E+03  0.12500000000E+03 0.  0.
</event>
<event>
 4    0  0.2259196E-002  0.2517956E+03  0.7546771E-02  0.1112175E+00
         21   -1    0    0  502  501  0.00000000000E+00  0.00000000000E+00  0.42744690372E+03  0.42744690372E+03  0.00000000000E+00 0.  1.
         21   -1    0    0  501  502 -0.00000000000E+00 -0.00000000000E+00 -0.14832495136E+03  0.14832495136E+03  0.00000000000E+00 0.  1.
         25    1    1    2    0    0  0.17527452584E+03 -0.66552554442E+02  0.11091802738E+02  0.22560680397E+03  0.12500000000E+03 0.  0.
         25    1    1    2    0    0 -0.17527452584E+03  0.66552554442E+02  0.26803014963E+03  0.35016505111E+03  0.12500000000E+03 0.  0.
</event>
<event>
 4    0  0.2259196E-002  0.3497606E+03  0.7546771E-02  0.1062713E+00
         21   -1    0    0  502  501  0.00000000000E+00  0.00000000000E+00  0.20136974766E+04  0.20136974766E+04  0.00000000000E+00 0. -1.
         21   -1    0    0  501  502 -0.00000000000E+00 -0.00000000000E+00 -0.60750192872E+02  0.60750192872E+02  0.00000000000E+00 0. -1.
         25    1    1    2    0    0  0.61858975666E+02  0.32019676740E+03  0.10323489878E+04  0.10898265620E+04  0.12500000000E+03 0.  0.
         25    1    1    2    0    0 -0.61858975666E+02 -0.32019676740E+03  0.92059829594E+03  0.98462110744E+03  0.12500000000E+03 0.  0.
</event>
<event>
 4    0  0.2259196E-002  0.2470240E+03  0.7546771E-02  0.1115200E+00
         21   -1    0    0  502  501  0.00000000000E+00  0.00000000000E+00  0.62737107299E+02  0.62737107299E+02  0.00000000000E+00 0.  1.
         21   -1    0    0  501  502 -0.00000000000E+00 -0.00000000000E+00 -0.97264352367E+03  0.97264352367E+03  0.00000000000E+00 0.  1.
         25    1    1    2    0    0 -0.72997578139E+02  0.19996102933E+03 -0.43588554651E+03  0.50093339809E+03  0.12500000000E+03 0.  0.
         25    1    1    2    0    0  0.72997578139E+02 -0.19996102933E+03 -0.47402086985E+03  0.53444723287E+03  0.12500000000E+03 0.  0.
</event>
<event>
 4    0  0.2259196E-002  0.1952162E+03  0.7546771E-02  0.1153839E+00
         21   -1    0    0  502  501  0.00000000000E+00  0.00000000000E+00  0.80282245142E+02  0.80282245142E+02  0.00000000000E+00 0.  1.
         21   -1    0    0  501  502 -0.00000000000E+00 -0.00000000000E+00 -0.47469207259E+03  0.47469207259E+03  0.00000000000E+00 0.  1.
         25    1    1    2    0    0 -0.14181211088E+03  0.45805520854E+02 -0.17361059188E+03  0.26071911734E+03  0.12500000000E+03 0.  0.
         25    1    1    2    0    0  0.14181211088E+03 -0.45805520854E+02 -0.22079923557E+03  0.29425520040E+03  0.12500000000E+03 0.  0.
</event>
<event>
 4    0  0.2259196E-002  0.3528900E+03  0.7546771E-02  0.1061435E+00
         21   -1    0    0  502  501  0.00000000000E+00  0.00000000000E+00  0.98422371587E+02  0.98422371587E+02  0.00000000000E+00 0. -1.
         21   -1    0    0  501  502 -0.00000000000E+00 -0.00000000000E+00 -0.12652749262E+04  0.12652749262E+04  0.00000000000E+00 0. -1.
         25    1    1    2    0    0  0.53588701314E+02 -0.15562713289E+03 -0.30757955863E+02  0.20895598879E+03  0.12500000000E+03 0.  0.
         25    1    1    2    0    0 -0.53588701314E+02  0.15562713289E+03 -0.11360945987E+04  0.11547413090E+04  0.12500000000E+03 0.  0.
</event>
<event>
 4    0  0.2259196E-002  0.1670305E+03  0.7546771E-02  0.1180980E+00
         21   -1    0    0  502  501  0.00000000000E+00  0.00000000000E+00  0.13337627349E+03  0.13337627349E+03  0.00000000000E+00 0.  1.
         21   -1    0    0  501  502 -0.00000000000E+00 -0.00000000000E+00 -0.20917661070E+03  0.20917661070E+03  0.00000000000E+00 0.  1.
         25    1    1    2    0    0  0.20422689920E+02  0.70666478560E+02 -0.12285149270E+03  0.19007452937E+03  0.12500000000E+03 0.  0.
         25    1    1    2    0    0 -0.20422689920E+02 -0.70666478560E+02  0.47051155498E+02  0.15247835482E+03  0.12500000000E+03 0.  0.
</event>
<event>
 4    0  0.2259196E-002  0.3042460E+03  0.7546771E-02  0.1083137E+00
         21   -1    0    0  502  501  0.00000000000E+00  0.00000000000E+00  0.45318672293E+03  0.45318672293E+03  0.00000000000E+00 0.  1.
         21   -1    0    0  501  502 -0.00000000000E+00 -0.00000000000E+00 -0.20425493387E+03  0.20425493387E+03  0.00000000000E+00 0.  1.
         25    1    1    2    0    0  0.18384655128E+03  0.16007809808E+03 -0.18529061784E+02  0.27457763571E+03  0.12500000000E+03 0.  0.
         25    1    1    2    0    0 -0.18384655128E+03 -0.16007809808E+03  0.26746085085E+03  0.38286402108E+03  0.12500000000E+03 0.  0.
</event>
<event>
 4    0  0.2259196E-002  0.1623831E+03  0.7546771E-02  0.1186032E+00
         21   -1    0    0  502  501  0.00000000000E+00  0.00000000000E+00  0.12558048658E+04  0.12558048658E+04  0.00000000000E+00 0.  1.
         21   -1    0    0  501  502 -0.00000000000E+00 -0.00000000000E+00 -0.20997117136E+02  0.20997117136E+02  0.00000000000E+00 0.  1.
         25    1    1    2    0    0  0.86443499149E+02  0.18428770228E+02  0.83025412141E+03  0.84425055774E+03  0.12500000000E+03 0.  0.
         25    1    1    2    0    0 -0.86443499149E+02 -0.18428770228E+02  0.40455362722E+03  0.43255142517E+03  0.12500000000E+03 0.  0.
</event>
<event>
 4    0  0.2259196E-002  0.1912406E+03  0.7546771E-02  0.1157347E+00
         21   -1    0    0  502  501  0.00000000000E+00  0.00000000000E+00  0.37941072096E+02  0.37941072096E+02  0.00000000000E+00 0.  1.
         21   -1    0    0  501  502 -0.00000000000E+00 -0.00000000000E+00 -0.96394176558E+03  0.96394176558E+03  0.00000000000E+00 0. -1.
         25    1    1    2    0    0 -0.10806256702E+03 -0.95463414630E+02 -0.49584282450E+03  0.53129642248E+03  0.12500000000E+03 0.  0.
         25    1    1    2    0    0  0.10806256702E+03  0.95463414630E+02 -0.43015786898E+03  0.47058641520E+03  0.12500000000E+03 0.  0.
</event>
<event>
 4    0  0.2259196E-002  0.2494183E+03  0.7546771E-02  0.1113673E+00
         21   -1    0    0  502  501  0.00000000000E+00  0.00000000000E+00  0.40932833161E+02  0.40932833161E+02  0.00000000000E+00 0.  1.
         21   -1    0    0  501  502 -0.00000000000E+00 -0.00000000000E+00 -0.15197939396E+04  0.15197939396E+04  0.00000000000E+00 0.  1.
         25    1    1    2    0    0  0.44047842370E+01 -0.17592887031E+03 -0.34847522430E+03  0.40991505398E+03  0.12500000000E+03 0.  0.
         25    1    1    2    0    0 -0.44047842370E+01  0.17592887031E+03 -0.11303858822E+04  0.11508117188E+04  0.12500000000E+03 0.  0.
</event>
<event>
 4    0  0.2259196E-002  0.3184972E+03  0.7546771E-02  0.1076343E+00
         21   -1    0    0  502  501  0.00000000000E+00  0.00000000000E+00  0.48390345842E+03  0.48390345842E+03  0.00000000000E+00 0. -1.
         21   -1    0    0  501  502 -0.00000000000E+00 -0.00000000000E+00 -0.20962954429E+03  0.20962954429E+03  0.00000000000E+00 0. -1.
         25    1    1    2    0    0 -0.28605537896E+03  0.26934142423E+02  0.74950514423E+02  0.32217341211E+03  0.12500000000E+03 0.  0.
         25    1    1    2    0    0  0.28605537896E+03 -0.26934142423E+02  0.19932339970E+03  0.37135959060E+03  0.12500000000E+03 0.  0.
</event>
<event>
 4    0  0.2259196E-002  0.1830051E+03  0.7546771E-02  0.1164926E+00
         21   -1    0    0  502  501  0.00000000000E+00  0.00000000000E+00  0.28138098812E+02  0.28138098812E+02  0.00000000000E+00 0.  1.
         21   -1    0    0  501  502 -0.00000000000E+00 -0.00000000000E+00 -0.11902321662E+04  0.11902321662E+04  0.00000000000E+00 0.  1.
         25    1    1    2    0    0 -0.13677673046E+01 -0.58622882909E+02 -0.18121326559E+03  0.22781957952E+03  0.12500000000E+03 0.  0.
         25    1    1    2    0    0  0.13677673046E+01  0.58622882909E+02 -0.98088080183E+03  0.99055068552E+03  0.12500000000E+03 0.  0.
</event>
<event>
 4    0  0.2259196E-002  0.2072998E+03  0.7546771E-02  0.1143722E+00
         21   -1    0    0  502  501  0.00000000000E+00  0.00000000000E+00  0.75625299174E+02  0.75625299174E+02  0.00000000000E+00 0.  1.
         21   -1    0    0  501  502 -0.00000000000E+00 -0.00000000000E+00 -0.56823846176E+03  0.56823846176E+03  0.00000000000E+00 0.  1.
         25    1    1    2    0    0  0.68266486563E+02 -0.36941143603E+02 -0.19533373985E+02  0.14843016532E+03  0.12500000000E+03 0.  0.
         25    1    1    2    0    0 -0.68266486563E+02  0.36941143603E+02 -0.47307978860E+03  0.49543359561E+03  0.12500000000E+03 0.  0.
</event>
<event>
 4    0  0.2259196E-002  0.3106870E+03  0.7546771E-02  0.1080017E+00
         21   -1    0    0  502  501  0.00000000000E+00  0.00000000000E+00  0.68917920990E+02  0.68917920990E+02  0.00000000000E+00 0.  1.
         21   -1    0    0  501  502 -0.00000000000E+00 -0.00000000000E+00 -0.14005991455E+04  0.14005991455E+04  0.00000000000E+00 0.  1.
         25    1    1    2    0    0  0.24973874795E+03 -0.12568338640E+03 -0.54214624024E+03  0.62266628434E+03  0.12500000000E+03 0.  0.
         25    1    1    2    0    0 -0.24973874795E+03  0.12568338640E+03 -0.78953498428E+03  0.84685078216E+03  0.12500000000E+03 0.  0.
</event>
<event>
 4    0  0.2259196E-002  0.2021909E+03  0.7546771E-02  0.1147904E+00
         21   -1    0    0  502  501  0.00000000000E+00  0.00000000000E+00  0.17591191583E+03  0.17591191583E+03  0.00000000000E+00 0.  1.
         21   -1    0    0  501  502 -0.00000000000E+00 -0.00000000000E+00 -0.23239551453E+03  0.23239551453E+03  0.00000000000E+00 0.  1.
         25    1    1    2    0    0  0.14407436077E+03 -0.37033434553E+02 -0.84706448742E+02  0.21196480643E+03  0.12500000000E+03 0.  0.
         25    1    1    2    0    0 -0.14407436077E+03  0.37033434553E+02  0.28222850042E+02  0.19634262392E+03  0.12500000000E+03 0.  0.
</event>
<event>
 4    0  0.2259196E-002  0.1870190E+03  0.7546771E-02  0.1161178E+00
         21   -1    0    0  502  501  0.00000000000E+00  0.00000000000E+00  0.17922991399E+03  0.17922991399E+03  0.00000000000E+00 0. -1.
         21   -1    0    0  501  502 -0.00000000000E+00 -0.00000000000E+00 -0.19514667981E+03  0.19514667981E+03  0.00000000000E+00 0. -1.
         25    1    1    2    0    0 -0.13016972088E+03  0.11595326720E+02 -0.55672426357E+02  0.18921687793E+03  0.12500000000E+03 0.  0.
         25    1    1    2    0    0  0.13016972088E+03 -0.11595326720E+02  0.39755660542E+02  0.18515971587E+03  0.12500000000E+03 0.  0.
</event>
<event>
 4    0  0.2259196E-002  0.1978701E+03  0.7546771E-02  0.1151549E+00
         21   -1    0    0  502  501  0.00000000000E+00  0.00000000000E+00  0.10580668575E+04  0.10580668575E+04  0.00000000000E+00 0. -1.
         21   -1    0    0  501  502 -0.00000000000E+00 -0.00000000000E+00 -0.37003870753E+02  0.37003870753E+02  0.00000000000E+00 0. -1.
         25    1    1    2    0    0 -0.14738915926E+03  0.38763033571E+02  0.46248885324E+03  0.50273957116E+03  0.12500000000E+03 0.  0.
         25    1    1    2    0    0  0.14738915926E+03 -0.38763033571E+02  0.55857413355E+03  0.59233115713E+03  0.12500000000E+03 0.  0.
</event>
<event>
 4    0  0.2259196E-002  0.3782476E+03  0.7546771E-02  0.1051583E+00
         21   -1    0    0  502  501  0.00000000000E+00  0.00000000000E+00  0.67054788997E+02  0.67054788997E+02  0.00000000000E+00 0.  1.
         21   -1    0    0  501  502 -0.00000000000E+00 -0.00000000000E+00 -0.21336472906E+04  0.21336472906E+04  0.00000000000E+00 0.  1.
         25    1    1    2    0    0  0.34525156505E+03  0.44810493435E+02 -0.12630882997E+04  0.13161396872E+04  0.12500000000E+03 0.  0.
         25    1    1    2    0    0 -0.34525156505E+03 -0.44810493435E+02 -0.80350420192E+03  0.88456239237E+03  0.12500000000E+03 0.  0.
</event>
<event>
 4    0  0.2259196E-002  0.2257545E+03  0.7546771E-02  0.1129664E+00
         21   -1    0    0  502  501  0.00000000000E+00  0.00000000000E+00  0.23637834891E+03  0.23637834891E+03  0.00000000000E+00 0.  1.
         21   -1    0    0  501  502 -0.00000000000E+00 -0.00000000000E+00 -0.21560822129E+03  0.21560822129E+03  0.00000000000E+00 0.  1.
         25    1    1    2    0    0 -0.18207796636E+03  0.20926204708E+02  0.52260192042E+02  0.22791757183E+03  0.12500000000E+03 0.  0.
         25    1    1    2    0    0  0.18207796636E+03 -0.20926204708E+02 -0.31490064420E+02  0.22406899838E+03  0.12500000000E+03 0.  0.
</event>
<event>
 4    0  0.2259196E-002  0.1796046E+03  0.7546771E-02  0.1168186E+00
         21   -1    0    0  502  501  0.00000000000E+00  0.00000000000E+00  0.31957137466E+03  0.31957137466E+03  0.00000000000E+00 0.  1.
         21   -1    0    0  501  502 -0.00000000000E+00 -0.00000000000E+00 -0.10094086815E+03  0.10094086815E+03  0.00000000000E+00 0.  1.
         25    1    1    2    0    0  0.97544315843E+02  0.15045550261E+02  0.20649810676E+03  0.26078291783E+03  0.12500000000E+03 0.  0.
         25    1    1    2    0    0 -0.97544315843E+02 -0.15045550261E+02  0.12132399743E+02  0.15972932498E+03  0.12500000000E+03 0.  0.
</event>
<event>
 4    0  0.2259196E-002  0.1959604E+03  0.7546771E-02  0.1153193E+00
         21   -1    0    0  502  501  0.00000000000E+00  0.00000000000E+00  0.92482895370E+03  0.92482895370E+03  0.00000000000E+00 0.  1.
         21   -1    0    0  501  502 -0.00000000000E+00 -0.00000000000E+00 -0.41521712951E+02  0.41521712951E+02  0.00000000000E+00 0.  1.
         25    1    1    2    0    0  0.44012337402E+02 -0.10680439002E+03  0.20220059708E+03  0.26429972575E+03  0.12500000000E+03 0.  0.
         25    1    1    2    0    0 -0.44012337402E+02  0.10680439002E+03  0.68110664367E+03  0.70205094091E+03  0.12500000000E+03 0.  0.
</event>
<event>
 4    0  0.2259196E-002  0.2462585E+03  0.7546771E-02  0.1115692E+00
         21   -1    0    0  502  501  0.00000000000E+00  0.00000000000E+00  0.13071380559E+03  0.13071380559E+03  0.00000000000E+00 0.  1.
         21   -1    0    0  501  502 -0.00000000000E+00 -0.00000000000E+00 -0.46393908669E+03  0.46393908669E+03  0.00000000000E+00 0.  1.
         25    1    1    2    0    0  0.34524464061E+02  0.17349139509E+03 -0.25153572997E+02  0.21805711413E+03  0.12500000000E+03 0.  0.
         25    1    1    2    0    0 -0.34524464061E+02 -0.17349139509E+03 -0.30807170811E+03  0.37659577815E+03  0.12500000000E+03 0.  0.
</event>
<event>
 4    0  0.2259196E-002  0.2464631E+03  0.7546771E-02  0.1115561E+00
         21   -1    0    0  502  501  0.00000000000E+00  0.00000000000E+00  0.35071358482E+03  0.35071358482E+03  0.00000000000E+00 0. -1.
         21   -1    0    0  501  502 -0.00000000000E+00 -0.00000000000E+00 -0.17320130649E+03  0.17320130649E+03  0.00000000000E+00 0. -1.
         25    1    1    2    0    0 -0.35266435153E+02  0.15062599091E+03 -0.65952670350E+02  0.20953917370E+03  0.12500000000E+03 0.  0.
         25    1    1    2    0    0  0.35266435153E+02 -0.15062599091E+03  0.24346494868E+03  0.31437571761E+03  0.12500000000E+03 0.  0.
</event>
<event>
 4    0  0.2259196E-002  0.2221167E+03  0.7546771E-02  0.1132315E+00
         21   -1    0    0  502  501  0.00000000000E+00  0.00000000000E+00  0.13512757777E+03  0.13512757777E+03  0.00000000000E+00 0. -1.
         21   -1    0    0  501  502 -0.00000000000E+00 -0.00000000000E+00 -0.36510561542E+03  0.36510561542E+03  0.00000000000E+00 0. -1.
         25    1    1    2    0    0 -0.15480795906E+03  0.48194257279E+02 -0.17973623764E+02  0.20551457801E+03  0.12500000000E+03 0.  0.
         25    1    1    2    0    0  0.15480795906E+03 -0.48194257279E+02 -0.21200441388E+03  0.29471861517E+03  0.12500000000E+03 0.  0.
</event>
<event>
 4    0  0.2259196E-002  0.2180695E+03  0.7546771E-02  0.1135331E+00
         21   -1    0    0  502  501  0.00000000000E+00  0.00000000000E+00  0.68457987799E+03  0.68457987799E+03  0.00000000000E+00 0. -1.
         21   -1    0    0  501  502 -0.00000000000E+00 -0.00000000000E+00 -0.69464926860E+02  0.69464926860E+02  0.00000000000E+00 0. -1.
         25    1    1    2    0    0  0.28677980550E+01 -0.16000859075E+02 -0.96347762760E-01  0.12605261219E+03  0.12500000000E+03 0.  0.
         25    1    1    2    0    0 -0.28677980550E+01  0.16000859075E+02  0.61521129890E+03  0.62799219266E+03  0.12500000000E+03 0.  0.
</event>
<event>
 4    0  0.2259196E-002  0.1854279E+03  0.7546771E-02  0.1162651E+00
         21   -1    0    0  502  501  0.00000000000E+00  0.00000000000E+00  0.23406355330E+04  0.23406355330E+04  0.00000000000E+00 0. -1.
         21   -1    0    0  501  502 -0.00000000000E+00 -0.00000000000E+00 -0.14689818075E+02  0.14689818075E+02  0.00000000000E+00 0. -1.
         25    1    1    2    0    0  0.49456882555E+02 -0.11754407648E+03  0.14802661386E+04  0.14909981336E+04  0.12500000000E+03 0.  0.
         25    1    1    2    0    0 -0.49456882555E+02  0.11754407648E+03  0.84567957629E+03  0.86432721750E+03  0.12500000000E+03 0.  0.
</event>
<event>
 4    0  0.2259196E-002  0.1846810E+03  0.7546771E-02  0.1163348E+00
         21   -1    0    0  502  501  0.00000000000E+00  0.00000000000E+00  0.35922291978E+04  0.35922291978E+04  0.00000000000E+00 0. -1.
         21   -1    0    0  501  502 -0.00000000000E+00 -0.00000000000E+00 -0.94946805319E+01  0.94946805319E+01  0.00000000000E+00 0. -1.
         25    1    1    2    0    0 -0.83293666466E+02 -0.22687199745E+02  0.76728080557E+03  0.78217477490E+03  0.12500000000E+03 0.  0.
         25    1    1    2    0    0  0.83293666466E+02  0.22687199745E+02  0.28154537117E+04  0.28195491035E+04  0.12500000000E+03 0.  0.
</event>
<event>
 4    0  0.2259196E-002  0.2332139E+03  0.7546771E-02  0.1124398E+00
         21   -1    0    0  502  501  0.00000000000E+00  0.00000000000E+00  0.55572848587E+02  0.55572848587E+02  0.00000000000E+00 0. -1.
         21   -1    0    0  501  502 -0.00000000000E+00 -0.00000000000E+00 -0.97869274657E+03  0.97869274657E+03  0.00000000000E+00 0. -1.
         25    1    1    2    0    0  0.49925750685E+02  0.18248908993E+03 -0.34073823039E+03  0.40929499163E+03  0.12500000000E+03 0.  0.
         25    1    1    2    0    0 -0.49925750685E+02 -0.18248908993E+03 -0.58238166760E+03  0.62497060353E+03  0.12500000000E+03 0.  0.
</event>
<event>
 4    0  0.2259196E-002  0.2736902E+03  0.7546771E-02  0.1099186E+00
         21   -1    0    0  502  501  0.00000000000E+00  0.00000000000E+00  0.61342236413E+02  0.61342236413E+02  0.00000000000E+00 0.  1.
         21   -1    0    0  501  502 -0.00000000000E+00 -0.00000000000E+00 -0.12211212911E+04  0.12211212911E+04  0.00000000000E+00 0.  1.
         25    1    1    2    0    0  0.41714055711E+02  0.93514730186E+02 -0.10974356016E+04  0.11092677616E+04  0.12500000000E+03 0.  0.
         25    1    1    2    0    0 -0.41714055711E+02 -0.93514730186E+02 -0.62343453125E+02  0.17319576598E+03  0.12500000000E+03 0.  0.
</event>
