<event>
 5    0  0.5728184E-005  0.2931640E+03  0.7546771E-02  0.1088709E+00
         21   -1    0    0  502  501  0.00000000000E+00  0.00000000000E+00  0.55064238310E+03  0.55064238310E+03  0.00000000000E+00 0. -1.
         21   -1    0    0  501  502 -0.00000000000E+00 -0.00000000000E+00 -0.15608153647E+03  0.15608153647E+03  0.00000000000E+00 0. -1.
         25    1    1    2    0    0  0.66100566543E+01 -0.15619807446E+03  0.16279009988E+03  0.25800610057E+03  0.12500000000E+03 0.  0.
         25    1    1    2    0    0  0.37837321310E+02 -0.48736547826E+02  0.71335888899E+02  0.15659094170E+03  0.12500000000E+03 0.  0.
         25    1    1    2    0    0 -0.44447377965E+02  0.20493462229E+03  0.16043485785E+03  0.29212687729E+03  0.12500000000E+03 0.  0.
</event>
<event>
 5    0  0.5728184E-005  0.3912068E+03  0.7546771E-02  0.1046868E+00
         21   -1    0    0  502  501  0.00000000000E+00  0.00000000000E+00  0.24669199547E+03  0.24669199547E+03  0.00000000000E+00 0. -1.
         21   -1    0    0  501  502 -0.00000000000E+00 -0.00000000000E+00 -0.62037980246E+03  0.62037980246E+03  0.00000000000E+00 0.  1.
         25    1    1    2    0    0  0.90498142754E+01  0.54953087982E+02  0.30493151397E+02  0.14020190191E+03  0.12500000000E+03 0.  0.
         25    1    1    2    0    0  0.24859383237E+03  0.29525790659E+02 -0.30101659503E+03  0.41098254986E+03  0.12500000000E+03 0.  0.
         25    1    1    2    0    0 -0.25764364665E+03 -0.84478878642E+02 -0.10316436337E+03  0.31588734616E+03  0.12500000000E+03 0.  0.
</event>
<event>
 5    0  0.5728184E-005  0.3160790E+03  0.7546771E-02  0.1077468E+00
         21   -1    0    0  502  501  0.00000000000E+00  0.00000000000E+00  0.21133094118E+03  0.21133094118E+03  0.00000000000E+00 0. -1.
         21   -1    0    0  501  502 -0.00000000000E+00 -0.00000000000E+00 -0.47274632369E+03  0.47274632369E+03  0.00000000000E+00 0.  1.
         25    1    1    2    0    0  0.72028227560E+02  0.11598874063E+02 -0.17007737860E+01  0.14474284810E+03  0.12500000000E+03 0.  0.
         25    1    1    2    0    0 -0.21285843479E+03  0.55144293768E+02 -0.22090505939E+03  0.33581788466E+03  0.12500000000E+03 0.  0.
         25    1    1    2    0    0  0.14083020723E+03 -0.66743167830E+02 -0.38809549338E+02  0.20351653210E+03  0.12500000000E+03 0.  0.
</event>
<event>
 5    0  0.5728184E-005  0.3301266E+03  0.7546771E-02  0.1071081E+00
         21   -1    0    0  502  501  0.00000000000E+00  0.00000000000E+00  0.40096618420E+03  0.40096618420E+03  0.00000000000E+00 0.  1.
         21   -1    0    0  501  502 -0.00000000000E+00 -0.00000000000E+00 -0.27180235678E+03  0.27180235678E+03  0.00000000000E+00 0.  1.
         25    1    1    2    0    0  0.57894608283E+02  0.18170866450E+03 -0.41577835147E+02  0.23178339198E+03  0.12500000000E+03 0.  0.
         25    1    1    2    0    0  0.35728859351E+02 -0.58940265843E+02 -0.43102909591E+02  0.14910857502E+03  0.12500000000E+03 0.  0.
         25    1    1    2    0    0 -0.93623467634E+02 -0.12276839866E+03  0.21384457216E+03  0.29187657399E+03  0.12500000000E+03 0.  0.
</event>
<event>
 5    0  0.5728184E-005  0.2824845E+03  0.7546771E-02  0.1094340E+00
         21   -1    0    0  502  501  0.00000000000E+00  0.00000000000E+00  0.66285513439E+03  0.66285513439E+03  0.00000000000E+00 0.  1.
         21   -1    0    0  501  502 -0.00000000000E+00 -0.00000000000E+00 -0.12038454989E+03  0.12038454989E+03  0.00000000000E+00 0.  1.
         25    1    1    2    0    0 -0.10122711133E+02  0.88207486490E+02  0.16691130324E+03  0.22664380226E+03  0.12500000000E+03 0.  0.
         25    1    1    2    0    0  0.22749822130E+02 -0.12446491943E+03  0.38641481235E+03  0.42538274269E+03  0.12500000000E+03 0.  0.
         25    1    1    2    0    0 -0.12627110996E+02  0.36257432943E+02 -0.10855531089E+02  0.13121313932E+03  0.12500000000E+03 0.  0.
</event>
<event>
 5    0  0.5728184E-005  0.4160243E+03  0.7546771E-02  0.1038368E+00
         21   -1    0    0  502  501  0.00000000000E+00  0.00000000000E+00  0.11277952105E+03  0.11277952105E+03  0.00000000000E+00 0. -1.
         21   -1    0    0  501  502 -0.00000000000E+00 -0.00000000000E+00 -0.15346420218E+04  0.15346420218E+04  0.00000000000E+00 0. -1.
         25    1    1    2    0    0 -0.84615108179E+02 -0.93349892277E+02  0.18753023781E+02  0.17846734945E+03  0.12500000000E+03 0.  0.
         25    1    1    2    0    0  0.71667756506E+02  0.63836515363E+02 -0.75019750182E+03  0.76657201863E+03  0.12500000000E+03 0.  0.
         25    1    1    2    0    0  0.12947351673E+02  0.29513376914E+02 -0.69041802270E+03  0.70238217474E+03  0.12500000000E+03 0.  0.
</event>
<event>
 5    0  0.5728184E-005  0.3328885E+03  0.7546771E-02  0.1069866E+00
         21   -1    0    0  502  501  0.00000000000E+00  0.00000000000E+00  0.46856999689E+03  0.46856999689E+03  0.00000000000E+00 0.  1.
         21   -1    0    0  501  502 -0.00000000000E+00 -0.00000000000E+00 -0.23649566300E+03  0.23649566300E+03  0.00000000000E+00 0.  1.
         25    1    1    2    0    0 -0.19116978634E+03  0.54344238023E+02  0.15322727405E+03  0.28036187495E+03  0.12500000000E+03 0.  0.
         25    1    1    2    0    0  0.22481909522E+03  0.31647236278E+02  0.25630820698E+02  0.26043638783E+03  0.12500000000E+03 0.  0.
         25    1    1    2    0    0 -0.33649308879E+02 -0.85991474300E+02  0.53216239145E+02  0.16426739710E+03  0.12500000000E+03 0.  0.
</event>
<event>
 5    0  0.5728184E-005  0.2756279E+03  0.7546771E-02  0.1098101E+00
         21   -1    0    0  502  501  0.00000000000E+00  0.00000000000E+00  0.44398584224E+03  0.44398584224E+03  0.00000000000E+00 0. -1.
         21   -1    0    0  501  502 -0.00000000000E+00 -0.00000000000E+00 -0.17111075995E+03  0.17111075995E+03  0.00000000000E+00 0. -1.
         25    1    1    2    0    0 -0.17088752327E+03 -0.18550324706E+02  0.74352303896E+02  0.22516643899E+03  0.12500000000E+03 0.  0.
         25    1    1    2    0    0  0.13121116579E+03  0.41347504041E+02  0.17393275801E+03  0.25456549339E+03  0.12500000000E+03 0.  0.
         25    1    1    2    0    0  0.39676357480E+02 -0.22797179335E+02  0.24590020393E+02  0.13536466981E+03  0.12500000000E+03 0.  0.
</event>
<event>
 5    0  0.5728184E-005  0.2350217E+03  0.7546771E-02  0.1123154E+00
         21   -1    0    0  502  501  0.00000000000E+00  0.00000000000E+00  0.97893548824E+02  0.97893548824E+02  0.00000000000E+00 0. -1.
         21   -1    0    0  501  502 -0.00000000000E+00 -0.00000000000E+00 -0.56423742410E+03  0.56423742410E+03  0.00000000000E+00 0. -1.
         25    1    1    2    0    0 -0.35772125499E+02  0.54843536927E+02 -0.36469455587E+02  0.14574800066E+03  0.12500000000E+03 0.  0.
         25    1    1    2    0    0 -0.23893996811E+02 -0.72276209358E+02 -0.22844660799E+03  0.27130725428E+03  0.12500000000E+03 0.  0.
         25    1    1    2    0    0  0.59666122310E+02  0.17432672431E+02 -0.20142781170E+03  0.24507571798E+03  0.12500000000E+03 0.  0.
</event>
<event>
 5    0  0.5728184E-005  0.2537637E+03  0.7546771E-02  0.1110949E+00
         21   -1    0    0  502  501  0.00000000000E+00  0.00000000000E+00  0.15498270801E+04  0.15498270801E+04  0.00000000000E+00 0.  1.
         21   -1    0    0  501  502 -0.00000000000E+00 -0.00000000000E+00 -0.41550450490E+02  0.41550450490E+02  0.00000000000E+00 0.  1.
         25    1    1    2    0    0 -0.94354079191E+02 -0.42092952964E+02  0.38470254584E+03  0.41748719468E+03  0.12500000000E+03 0.  0.
         25    1    1    2    0    0  0.55407689543E+02  0.11393305508E+03  0.44909359375E+03  0.48307433076E+03  0.12500000000E+03 0.  0.
         25    1    1    2    0    0  0.38946389648E+02 -0.71840102113E+02  0.67448049003E+03  0.69081600515E+03  0.12500000000E+03 0.  0.
</event>
<event>
 5    0  0.5728184E-005  0.2377763E+03  0.7546771E-02  0.1121283E+00
         21   -1    0    0  502  501  0.00000000000E+00  0.00000000000E+00  0.51393826711E+03  0.51393826711E+03  0.00000000000E+00 0.  1.
         21   -1    0    0  501  502 -0.00000000000E+00 -0.00000000000E+00 -0.11000844020E+03  0.11000844020E+03  0.00000000000E+00 0.  1.
         25    1    1    2    0    0 -0.13478713638E+02 -0.32876023855E+01  0.21013188766E+03  0.24489363867E+03  0.12500000000E+03 0.  0.
         25    1    1    2    0    0  0.24452303171E+02 -0.88494173758E+02  0.39562935796E+02  0.16006048797E+03  0.12500000000E+03 0.  0.
         25    1    1    2    0    0 -0.10973589533E+02  0.91781776144E+02  0.15423500346E+03  0.21899258067E+03  0.12500000000E+03 0.  0.
</event>
<event>
 5    0  0.5728184E-005  0.3401435E+03  0.7546771E-02  0.1066735E+00
         21   -1    0    0  502  501  0.00000000000E+00  0.00000000000E+00  0.54447279014E+03  0.54447279014E+03  0.00000000000E+00 0.  1.
         21   -1    0    0  501  502 -0.00000000000E+00 -0.00000000000E+00 -0.21249473284E+03  0.21249473284E+03  0.00000000000E+00 0.  1.
         25    1    1    2    0    0  0.14688236443E+03  0.14045806639E+03  0.31834982339E+03  0.39783728766E+03  0.12500000000E+03 0.  0.
         25    1    1    2    0    0  0.13645029046E+02 -0.64060039620E+02  0.13908314730E+02  0.14180379654E+03  0.12500000000E+03 0.  0.
         25    1    1    2    0    0 -0.16052739348E+03 -0.76398026766E+02 -0.28008082262E+00  0.21732643879E+03  0.12500000000E+03 0.  0.
</event>
<event>
 5    0  0.5728184E-005  0.2906720E+03  0.7546771E-02  0.1089999E+00
         21   -1    0    0  502  501  0.00000000000E+00  0.00000000000E+00  0.21336718199E+03  0.21336718199E+03  0.00000000000E+00 0.  1.
         21   -1    0    0  501  502 -0.00000000000E+00 -0.00000000000E+00 -0.39598514395E+03  0.39598514395E+03  0.00000000000E+00 0.  1.
         25    1    1    2    0    0 -0.59601840925E+02 -0.34470742406E+02 -0.48790395192E+02  0.15081814939E+03  0.12500000000E+03 0.  0.
         25    1    1    2    0    0  0.18130887158E+03 -0.74747957153E+02 -0.64486866882E+02  0.24133735726E+03  0.12500000000E+03 0.  0.
         25    1    1    2    0    0 -0.12170703065E+03  0.10921869956E+03 -0.69340699888E+02  0.21719681928E+03  0.12500000000E+03 0.  0.
</event>
<event>
 5    0  0.5728184E-005  0.2944925E+03  0.7546771E-02  0.1088027E+00
         21   -1    0    0  502  501  0.00000000000E+00  0.00000000000E+00  0.56782015658E+02  0.56782015658E+02  0.00000000000E+00 0.  1.
         21   -1    0    0  501  502 -0.00000000000E+00 -0.00000000000E+00 -0.15273473597E+04  0.15273473597E+04  0.00000000000E+00 0.  1.
         25    1    1    2    0    0 -0.81219906588E+02  0.16574599366E+03 -0.83324366311E+03  0.86254762753E+03  0.12500000000E+03 0.  0.
         25    1    1    2    0    0  0.52757825210E+02 -0.41477553999E+02 -0.17066324870E+03  0.22193404440E+03  0.12500000000E+03 0.  0.
         25    1    1    2    0    0  0.28462081377E+02 -0.12426843966E+03 -0.46665843225E+03  0.49964770345E+03  0.12500000000E+03 0.  0.
</event>
<event>
 5    0  0.5728184E-005  0.3654122E+03  0.7546771E-02  0.1056461E+00
         21   -1    0    0  502  501  0.00000000000E+00  0.00000000000E+00  0.17739347940E+03  0.17739347940E+03  0.00000000000E+00 0.  1.
         21   -1    0    0  501  502 -0.00000000000E+00 -0.00000000000E+00 -0.75271126335E+03  0.75271126335E+03  0.00000000000E+00 0.  1.
         25    1    1    2    0    0 -0.56072033771E+02  0.16065648802E+03 -0.20201261491E+03  0.29221340951E+03  0.12500000000E+03 0.  0.
         25    1    1    2    0    0 -0.50005067088E+02 -0.27105594965E+03 -0.30259849486E+03  0.42797509702E+03  0.12500000000E+03 0.  0.
         25    1    1    2    0    0  0.10607710086E+03  0.11039946163E+03 -0.70706674181E+02  0.20991623622E+03  0.12500000000E+03 0.  0.
</event>
<event>
 5    0  0.5728184E-005  0.2939985E+03  0.7546771E-02  0.1088280E+00
         21   -1    0    0  502  501  0.00000000000E+00  0.00000000000E+00  0.72498891161E+02  0.72498891161E+02  0.00000000000E+00 0. -1.
         21   -1    0    0  501  502 -0.00000000000E+00 -0.00000000000E+00 -0.11922269034E+04  0.11922269034E+04  0.00000000000E+00 0. -1.
         25    1    1    2    0    0  0.70421500696E+02  0.80275359498E+02 -0.45237587871E+03  0.48132344296E+03  0.12500000000E+03 0.  0.
         25    1    1    2    0    0 -0.11826691598E+02  0.32620463378E+02 -0.47085147354E+02  0.13800716056E+03  0.12500000000E+03 0.  0.
         25    1    1    2    0    0 -0.58594809098E+02 -0.11289582288E+03 -0.62026698613E+03  0.64539519100E+03  0.12500000000E+03 0.  0.
</event>
<event>
 5    0  0.5728184E-005  0.3453392E+03  0.7546771E-02  0.1064544E+00
         21   -1    0    0  502  501  0.00000000000E+00  0.00000000000E+00  0.90327077181E+02  0.90327077181E+02  0.00000000000E+00 0. -1.
         21   -1    0    0  501  502 -0.00000000000E+00 -0.00000000000E+00 -0.13203032072E+04  0.13203032072E+04  0.00000000000E+00 0. -1.
         25    1    1    2    0    0  0.86372930301E+02  0.16316137766E+03 -0.46202240825E+03  0.51300255747E+03  0.12500000000E+03 0.  0.
         25    1    1    2    0    0 -0.18277941542E+03 -0.18480844704E+02 -0.23576233956E+03  0.32397335859E+03  0.12500000000E+03 0.  0.
         25    1    1    2    0    0  0.96406485117E+02 -0.14468053296E+03 -0.53219138218E+03  0.57365436829E+03  0.12500000000E+03 0.  0.
</event>
<event>
 5    0  0.5728184E-005  0.2882338E+03  0.7546771E-02  0.1091275E+00
         21   -1    0    0  502  501  0.00000000000E+00  0.00000000000E+00  0.18992390511E+03  0.18992390511E+03  0.00000000000E+00 0.  1.
         21   -1    0    0  501  502 -0.00000000000E+00 -0.00000000000E+00 -0.43743167769E+03  0.43743167769E+03  0.00000000000E+00 0.  1.
         25    1    1    2    0    0 -0.19163798047E+03  0.10008266128E+02 -0.75872182225E+02  0.24126099764E+03  0.12500000000E+03 0.  0.
         25    1    1    2    0    0  0.15094546434E+03  0.28988513516E+02 -0.14720033753E+03  0.24681532872E+03  0.12500000000E+03 0.  0.
         25    1    1    2    0    0  0.40692516128E+02 -0.38996779643E+02 -0.24435252826E+02  0.13927925643E+03  0.12500000000E+03 0.  0.
</event>
<event>
 5    0  0.5728184E-005  0.4008988E+03  0.7546771E-02  0.1043469E+00
         21   -1    0    0  502  501  0.00000000000E+00  0.00000000000E+00  0.44862249233E+03  0.44862249233E+03  0.00000000000E+00 0.  1.
         21   -1    0    0  501  502 -0.00000000000E+00 -0.00000000000E+00 -0.35825195930E+03  0.35825195930E+03  0.00000000000E+00 0.  1.
         25    1    1    2    0    0 -0.50698033594E+02  0.16463237423E+02 -0.13999028260E+03  0.19509896980E+03  0.12500000000E+03 0.  0.
         25    1    1    2    0    0 -0.92923270705E+02  0.20522581016E+03  0.18232078195E+03  0.31562356523E+03  0.12500000000E+03 0.  0.
         25    1    1    2    0    0  0.14362130430E+03 -0.22168904759E+03  0.48040033678E+02  0.29615191660E+03  0.12500000000E+03 0.  0.
</event>
<event>
 5    0  0.5728184E-005  0.4491473E+03  0.7546771E-02  0.1027977E+00
         21   -1    0    0  502  501  0.00000000000E+00  0.00000000000E+00  0.57763867835E+03  0.57763867835E+03  0.00000000000E+00 0.  1.
         21   -1    0    0  501  502 -0.00000000000E+00 -0.00000000000E+00 -0.34923779731E+03  0.34923779731E+03  0.00000000000E+00 0. -1.
         25    1    1    2    0    0  0.27376603522E+03 -0.14137572267E+02  0.25875776608E+03  0.39715021654E+03  0.12500000000E+03 0.  0.
         25    1    1    2    0    0 -0.35620493202E+03 -0.49411171557E+01 -0.30686423646E+02  0.37877833205E+03  0.12500000000E+03 0.  0.
         25    1    1    2    0    0  0.82438896797E+02  0.19078689423E+02  0.32953860701E+00  0.15094792708E+03  0.12500000000E+03 0.  0.
</event>
<event>
 5    0  0.5728184E-005  0.2300616E+03  0.7546771E-02  0.1126596E+00
         21   -1    0    0  502  501  0.00000000000E+00  0.00000000000E+00  0.52535313419E+03  0.52535313419E+03  0.00000000000E+00 0. -1.
         21   -1    0    0  501  502 -0.00000000000E+00 -0.00000000000E+00 -0.10074810506E+03  0.10074810506E+03  0.00000000000E+00 0. -1.
         25    1    1    2    0    0  0.33959078690E+02  0.20358705945E+02  0.45939055101E+02  0.13893557038E+03  0.12500000000E+03 0.  0.
         25    1    1    2    0    0 -0.70232795590E+02  0.38943286074E+02  0.26759408163E+03  0.30607322266E+03  0.12500000000E+03 0.  0.
         25    1    1    2    0    0  0.36273716900E+02 -0.59301992019E+02  0.11107189240E+03  0.18109244622E+03  0.12500000000E+03 0.  0.
</event>
<event>
 5    0  0.5728184E-005  0.3783263E+03  0.7546771E-02  0.1051554E+00
         21   -1    0    0  502  501  0.00000000000E+00  0.00000000000E+00  0.18057356242E+04  0.18057356242E+04  0.00000000000E+00 0.  1.
         21   -1    0    0  501  502 -0.00000000000E+00 -0.00000000000E+00 -0.79264539599E+02  0.79264539599E+02  0.00000000000E+00 0.  1.
         25    1    1    2    0    0  0.20038843947E+03  0.16038214818E+03  0.46296346964E+03  0.54391004252E+03  0.12500000000E+03 0.  0.
         25    1    1    2    0    0 -0.11371156294E+02 -0.14525302546E+03  0.82750767119E+03  0.84948319023E+03  0.12500000000E+03 0.  0.
         25    1    1    2    0    0 -0.18901728318E+03 -0.15129122718E+02  0.43599994380E+03  0.49160693108E+03  0.12500000000E+03 0.  0.
</event>
<event>
 5    0  0.5785706E-005  0.3146324E+03  0.7546771E-02  0.1078146E+00
         21   -1    0    0  502  501  0.00000000000E+00  0.00000000000E+00  0.15993529680E+03  0.15993529680E+03  0.00000000000E+00 0. -1.
         21   -1    0    0  501  502 -0.00000000000E+00 -0.00000000000E+00 -0.61896013599E+03  0.61896013599E+03  0.00000000000E+00 0. -1.
         25    1    1    2    0    0  0.21630793226E+03 -0.69642668380E+01 -0.26863435928E+03  0.36691557824E+03  0.12500000000E+03 0.  0.
         25    1    1    2    0    0 -0.10541296737E+03  0.71756021264E+02 -0.53342079099E+02  0.18636308025E+03  0.12500000000E+03 0.  0.
         25    1    1    2    0    0 -0.11089496489E+03 -0.64791754426E+02 -0.13704840081E+03  0.22561677430E+03  0.12500000000E+03 0.  0.
</event>
<event>
 5    0  0.5728184E-005  0.2799674E+03  0.7546771E-02  0.1095707E+00
         21   -1    0    0  502  501  0.00000000000E+00  0.00000000000E+00  0.44767621481E+03  0.44767621481E+03  0.00000000000E+00 0. -1.
         21   -1    0    0  501  502 -0.00000000000E+00 -0.00000000000E+00 -0.17508574813E+03  0.17508574813E+03  0.00000000000E+00 0. -1.
         25    1    1    2    0    0  0.96984188705E+02  0.88041620301E+02  0.94097471871E+02  0.20405046919E+03  0.12500000000E+03 0.  0.
         25    1    1    2    0    0  0.24085353088E+02 -0.12427235505E+03  0.16128676088E+03  0.24012942697E+03  0.12500000000E+03 0.  0.
         25    1    1    2    0    0 -0.12106954179E+03  0.36230734745E+02  0.17206233932E+02  0.17858206678E+03  0.12500000000E+03 0.  0.
</event>
<event>
 5    0  0.5728184E-005  0.2915455E+03  0.7546771E-02  0.1089545E+00
         21   -1    0    0  502  501  0.00000000000E+00  0.00000000000E+00  0.26374562519E+03  0.26374562519E+03  0.00000000000E+00 0. -1.
         21   -1    0    0  501  502 -0.00000000000E+00 -0.00000000000E+00 -0.32227551845E+03  0.32227551845E+03  0.00000000000E+00 0. -1.
         25    1    1    2    0    0  0.16466210874E+03  0.84260105743E+02 -0.45100708278E+02  0.22775524003E+03  0.12500000000E+03 0.  0.
         25    1    1    2    0    0 -0.57617013407E+02  0.21879805764E+02 -0.67861703119E+02  0.15501179595E+03  0.12500000000E+03 0.  0.
         25    1    1    2    0    0 -0.10704509534E+03 -0.10613991151E+03  0.54432518135E+02  0.20325410766E+03  0.12500000000E+03 0.  0.
</event>
<event>
 5    0  0.5728184E-005  0.3061273E+03  0.7546771E-02  0.1082217E+00
         21   -1    0    0  502  501  0.00000000000E+00  0.00000000000E+00  0.19909295650E+03  0.19909295650E+03  0.00000000000E+00 0. -1.
         21   -1    0    0  501  502 -0.00000000000E+00 -0.00000000000E+00 -0.47070436959E+03  0.47070436959E+03  0.00000000000E+00 0. -1.
         25    1    1    2    0    0 -0.76079749747E+02 -0.40508406374E+02 -0.84901853298E+02  0.17396086917E+03  0.12500000000E+03 0.  0.
         25    1    1    2    0    0  0.97138465443E+02 -0.14120198726E+03 -0.17322233002E+03  0.27387014860E+03  0.12500000000E+03 0.  0.
         25    1    1    2    0    0 -0.21058715696E+02  0.18171039364E+03 -0.13487229771E+02  0.22196630832E+03  0.12500000000E+03 0.  0.
</event>
<event>
 5    0  0.5728184E-005  0.2312781E+03  0.7546771E-02  0.1125743E+00
         21   -1    0    0  502  501  0.00000000000E+00  0.00000000000E+00  0.13020201860E+03  0.13020201860E+03  0.00000000000E+00 0.  1.
         21   -1    0    0  501  502 -0.00000000000E+00 -0.00000000000E+00 -0.41081957782E+03  0.41081957782E+03  0.00000000000E+00 0.  1.
         25    1    1    2    0    0  0.29722138373E+02  0.36059855848E+02 -0.55744988319E+02  0.14462441853E+03  0.12500000000E+03 0.  0.
         25    1    1    2    0    0 -0.10458046209E+03  0.31162981769E+02 -0.11092880175E+03  0.19959560000E+03  0.12500000000E+03 0.  0.
         25    1    1    2    0    0  0.74858323718E+02 -0.67222837617E+02 -0.11394376915E+03  0.19680157788E+03  0.12500000000E+03 0.  0.
</event>
<event>
 5    0  0.5728184E-005  0.3307867E+03  0.7546771E-02  0.1070789E+00
         21   -1    0    0  502  501  0.00000000000E+00  0.00000000000E+00  0.18172376737E+03  0.18172376737E+03  0.00000000000E+00 0. -1.
         21   -1    0    0  501  502 -0.00000000000E+00 -0.00000000000E+00 -0.60212167294E+03  0.60212167294E+03  0.00000000000E+00 0. -1.
         25    1    1    2    0    0 -0.73313427892E+02 -0.74878325205E+02 -0.40305744642E+03  0.43481251984E+03  0.12500000000E+03 0.  0.
         25    1    1    2    0    0 -0.31382101457E+02 -0.30252871094E+02  0.53098672083E+02  0.14263429278E+03  0.12500000000E+03 0.  0.
         25    1    1    2    0    0  0.10469552935E+03  0.10513119630E+03 -0.70439131224E+02  0.20639862768E+03  0.12500000000E+03 0.  0.
</event>
<event>
 5    0  0.5728184E-005  0.3949166E+03  0.7546771E-02  0.1045554E+00
         21   -1    0    0  502  501  0.00000000000E+00  0.00000000000E+00  0.17041228184E+03  0.17041228184E+03  0.00000000000E+00 0.  1.
         21   -1    0    0  501  502 -0.00000000000E+00 -0.00000000000E+00 -0.91518708733E+03  0.91518708733E+03  0.00000000000E+00 0.  1.
         25    1    1    2    0    0  0.40574054436E+02  0.11479234208E+03 -0.43644518587E+03  0.47003503695E+03  0.12500000000E+03 0.  0.
         25    1    1    2    0    0  0.13067258255E+03 -0.28077543069E+02  0.50514111788E+02  0.18984295548E+03  0.12500000000E+03 0.  0.
         25    1    1    2    0    0 -0.17124663698E+03 -0.86714799011E+02 -0.35884373141E+03  0.42572137674E+03  0.12500000000E+03 0.  0.
</event>
<event>
 5    0  0.5728184E-005  0.3848061E+03  0.7546771E-02  0.1049172E+00
         21   -1    0    0  502  501  0.00000000000E+00  0.00000000000E+00  0.68726936338E+02  0.68726936338E+02  0.00000000000E+00 0.  1.
         21   -1    0    0  501  502 -0.00000000000E+00 -0.00000000000E+00 -0.21545513264E+04  0.21545513264E+04  0.00000000000E+00 0.  1.
         25    1    1    2    0    0 -0.17953804081E+03  0.21980024015E+02 -0.46242428793E+03  0.51203344776E+03  0.12500000000E+03 0.  0.
         25    1    1    2    0    0  0.28812978084E+03  0.41300775529E+01 -0.13826917083E+04  0.14179200218E+04  0.12500000000E+03 0.  0.
         25    1    1    2    0    0 -0.10859174003E+03 -0.26110101568E+02 -0.24070839382E+03  0.29332479312E+03  0.12500000000E+03 0.  0.
</event>
<event>
 5    0  0.5728184E-005  0.2900955E+03  0.7546771E-02  0.1090299E+00
         21   -1    0    0  502  501  0.00000000000E+00  0.00000000000E+00  0.63712128290E+02  0.63712128290E+02  0.00000000000E+00 0.  1.
         21   -1    0    0  501  502 -0.00000000000E+00 -0.00000000000E+00 -0.13208694136E+04  0.13208694136E+04  0.00000000000E+00 0.  1.
         25    1    1    2    0    0 -0.46299363639E+02  0.11460180029E+03 -0.75327116583E+03  0.77351124941E+03  0.12500000000E+03 0.  0.
         25    1    1    2    0    0  0.81718155994E+02 -0.34421361761E+02 -0.11004481649E+03  0.18867312687E+03  0.12500000000E+03 0.  0.
         25    1    1    2    0    0 -0.35418792356E+02 -0.80180438525E+02 -0.39384130298E+03  0.42239716560E+03  0.12500000000E+03 0.  0.
</event>
<event>
 5    0  0.5728184E-005  0.2454006E+03  0.7546771E-02  0.1116247E+00
         21   -1    0    0  502  501  0.00000000000E+00  0.00000000000E+00  0.39981420651E+03  0.39981420651E+03  0.00000000000E+00 0.  1.
         21   -1    0    0  501  502 -0.00000000000E+00 -0.00000000000E+00 -0.15062358268E+03  0.15062358268E+03  0.00000000000E+00 0.  1.
         25    1    1    2    0    0  0.92244360584E+02  0.80731146761E+01  0.16753671996E+03  0.22862141146E+03  0.12500000000E+03 0.  0.
         25    1    1    2    0    0  0.37075998622E+02  0.35819564358E+01  0.24300556705E+02  0.13267621167E+03  0.12500000000E+03 0.  0.
         25    1    1    2    0    0 -0.12932035921E+03 -0.11655071112E+02  0.57353347159E+02  0.18914016606E+03  0.12500000000E+03 0.  0.
</event>
<event>
 5    0  0.5728184E-005  0.2073680E+03  0.7546771E-02  0.1143667E+00
         21   -1    0    0  502  501  0.00000000000E+00  0.00000000000E+00  0.18043055875E+04  0.18043055875E+04  0.00000000000E+00 0.  1.
         21   -1    0    0  501  502 -0.00000000000E+00 -0.00000000000E+00 -0.23832715913E+02  0.23832715913E+02  0.00000000000E+00 0.  1.
         25    1    1    2    0    0 -0.64219224481E+02 -0.79981670938E+01  0.66866052994E+03  0.68331543505E+03  0.12500000000E+03 0.  0.
         25    1    1    2    0    0  0.25259713991E+02  0.10140914906E+02  0.73138964348E+03  0.74249357028E+03  0.12500000000E+03 0.  0.
         25    1    1    2    0    0  0.38959510490E+02 -0.21427478117E+01  0.38042269815E+03  0.40232929808E+03  0.12500000000E+03 0.  0.
</event>
<event>
 5    0  0.5728184E-005  0.2535224E+03  0.7546771E-02  0.1111099E+00
         21   -1    0    0  502  501  0.00000000000E+00  0.00000000000E+00  0.15787909487E+03  0.15787909487E+03  0.00000000000E+00 0. -1.
         21   -1    0    0  501  502 -0.00000000000E+00 -0.00000000000E+00 -0.40710640764E+03  0.40710640764E+03  0.00000000000E+00 0. -1.
         25    1    1    2    0    0  0.19645794535E+02 -0.58293399556E+02 -0.20496202523E+03  0.24782758011E+03  0.12500000000E+03 0.  0.
         25    1    1    2    0    0 -0.80891390502E+02  0.15283538708E+02  0.31488136295E+02  0.15294935874E+03  0.12500000000E+03 0.  0.
         25    1    1    2    0    0  0.61245595967E+02  0.43009860847E+02 -0.75753423832E+02  0.16420856366E+03  0.12500000000E+03 0.  0.
</event>
<event>
 5    0  0.5728184E-005  0.4761379E+03  0.7546771E-02  0.1020202E+00
         21   -1    0    0  502  501  0.00000000000E+00  0.00000000000E+00  0.10310440777E+03  0.10310440777E+03  0.00000000000E+00 0.  1.
         21   -1    0    0  501  502 -0.00000000000E+00 -0.00000000000E+00 -0.21988131287E+04  0.21988131287E+04  0.00000000000E+00 0.  1.
         25    1    1    2    0    0  0.10423053627E+03 -0.26749703711E+03 -0.11007589635E+04  0.11444273526E+04  0.12500000000E+03 0.  0.
         25    1    1    2    0    0 -0.15439180084E+03 -0.30533977986E+01 -0.12067259635E+03  0.23245005252E+03  0.12500000000E+03 0.  0.
         25    1    1    2    0    0  0.50161264571E+02  0.27055043490E+03 -0.87427716110E+03  0.92504013141E+03  0.12500000000E+03 0.  0.
</event>
<event>
 5    0  0.5728184E-005  0.2427143E+03  0.7546771E-02  0.1117998E+00
         21   -1    0    0  502  501  0.00000000000E+00  0.00000000000E+00  0.80559115932E+03  0.80559115932E+03  0.00000000000E+00 0.  1.
         21   -1    0    0  501  502 -0.00000000000E+00 -0.00000000000E+00 -0.73126687603E+02  0.73126687603E+02  0.00000000000E+00 0.  1.
         25    1    1    2    0    0  0.13161674022E+03  0.85302923904E+01  0.20109920605E+03  0.27103804690E+03  0.12500000000E+03 0.  0.
         25    1    1    2    0    0 -0.49194391757E+02  0.33658040767E+02  0.22816005628E+03  0.26689878825E+03  0.12500000000E+03 0.  0.
         25    1    1    2    0    0 -0.82422348467E+02 -0.42188333158E+02  0.30320520938E+03  0.34078101176E+03  0.12500000000E+03 0.  0.
</event>
<event>
 5    0  0.5728184E-005  0.3709680E+03  0.7546771E-02  0.1054323E+00
         21   -1    0    0  502  501  0.00000000000E+00  0.00000000000E+00  0.52138804825E+03  0.52138804825E+03  0.00000000000E+00 0. -1.
         21   -1    0    0  501  502 -0.00000000000E+00 -0.00000000000E+00 -0.26394408367E+03  0.26394408367E+03  0.00000000000E+00 0. -1.
         25    1    1    2    0    0 -0.38274015997E+02  0.77082691613E+02  0.14992572151E+03  0.21332923760E+03  0.12500000000E+03 0.  0.
         25    1    1    2    0    0 -0.14214049304E+03  0.27993573666E+02  0.23031833829E+03  0.29943128908E+03  0.12500000000E+03 0.  0.
         25    1    1    2    0    0  0.18041450904E+03 -0.10507626528E+03 -0.12280009522E+03  0.27257160524E+03  0.12500000000E+03 0.  0.
</event>
<event>
 5    0  0.5728184E-005  0.2780705E+03  0.7546771E-02  0.1096747E+00
         21   -1    0    0  502  501  0.00000000000E+00  0.00000000000E+00  0.58908543252E+03  0.58908543252E+03  0.00000000000E+00 0. -1.
         21   -1    0    0  501  502 -0.00000000000E+00 -0.00000000000E+00 -0.13125974186E+03  0.13125974186E+03  0.00000000000E+00 0. -1.
         25    1    1    2    0    0 -0.25402566036E+02 -0.27277874226E+02  0.30382624792E+03  0.33064295200E+03  0.12500000000E+03 0.  0.
         25    1    1    2    0    0  0.13721267339E+03  0.28970226886E+02  0.10381361709E+03  0.21463657395E+03  0.12500000000E+03 0.  0.
         25    1    1    2    0    0 -0.11181010735E+03 -0.16923526599E+01  0.50185825647E+02  0.17506564843E+03  0.12500000000E+03 0.  0.
</event>
<event>
 5    0  0.5728184E-005  0.4551837E+03  0.7546771E-02  0.1026187E+00
         21   -1    0    0  502  501  0.00000000000E+00  0.00000000000E+00  0.32496535764E+03  0.32496535764E+03  0.00000000000E+00 0. -1.
         21   -1    0    0  501  502 -0.00000000000E+00 -0.00000000000E+00 -0.63758230604E+03  0.63758230604E+03  0.00000000000E+00 0. -1.
         25    1    1    2    0    0  0.34985440763E+02  0.39141993824E+03 -0.15278365369E+03  0.43977425340E+03  0.12500000000E+03 0.  0.
         25    1    1    2    0    0 -0.80445825148E+02 -0.27188160118E+03 -0.14842228946E+03  0.34357722837E+03  0.12500000000E+03 0.  0.
         25    1    1    2    0    0  0.45460384385E+02 -0.11953833706E+03 -0.11411005247E+02  0.17919618192E+03  0.12500000000E+03 0.  0.
</event>
<event>
 5    0  0.6785967E-005  0.3257611E+03  0.7546771E-02  0.1073028E+00
         21   -1    0    0  502  501  0.00000000000E+00  0.00000000000E+00  0.52882465523E+03  0.52882465523E+03  0.00000000000E+00 0.  1.
         21   -1    0    0  501  502 -0.00000000000E+00 -0.00000000000E+00 -0.20067193806E+03  0.20067193806E+03  0.00000000000E+00 0.  1.
         25    1    1    2    0    0  0.69523561909E+02 -0.54621797909E+02 -0.60002377500E+02  0.16444558910E+03  0.12500000000E+03 0.  0.
         25    1    1    2    0    0 -0.24844278224E+01  0.14619919709E+03  0.69696043758E+02  0.20460429156E+03  0.12500000000E+03 0.  0.
         25    1    1    2    0    0 -0.67039134087E+02 -0.91577399178E+02  0.31845905092E+03  0.36044671263E+03  0.12500000000E+03 0.  0.
</event>
<event>
 5    0  0.5728184E-005  0.2349967E+03  0.7546771E-02  0.1123171E+00
         21   -1    0    0  502  501  0.00000000000E+00  0.00000000000E+00  0.80205655157E+03  0.80205655157E+03  0.00000000000E+00 0. -1.
         21   -1    0    0  501  502 -0.00000000000E+00 -0.00000000000E+00 -0.68852311008E+02  0.68852311008E+02  0.00000000000E+00 0. -1.
         25    1    1    2    0    0 -0.36750636240E+02  0.13919176521E+02  0.29710195263E+03  0.32471360150E+03  0.12500000000E+03 0.  0.
         25    1    1    2    0    0 -0.19040698323E+02  0.87847639367E+02  0.25124416380E+03  0.29466656712E+03  0.12500000000E+03 0.  0.
         25    1    1    2    0    0  0.55791334564E+02 -0.10176681589E+03  0.18485812413E+03  0.25152869396E+03  0.12500000000E+03 0.  0.
</event>
<event>
 5    0  0.5728184E-005  0.3111228E+03  0.7546771E-02  0.1079809E+00
         21   -1    0    0  502  501  0.00000000000E+00  0.00000000000E+00  0.12872111377E+03  0.12872111377E+03  0.00000000000E+00 0. -1.
         21   -1    0    0  501  502 -0.00000000000E+00 -0.00000000000E+00 -0.75199303517E+03  0.75199303517E+03  0.00000000000E+00 0. -1.
         25    1    1    2    0    0 -0.11415603726E+02  0.16341261790E+03 -0.44870614013E+03  0.49375722768E+03  0.12500000000E+03 0.  0.
         25    1    1    2    0    0  0.64050338264E+01 -0.16808998193E+03 -0.15404967015E+03  0.26009914908E+03  0.12500000000E+03 0.  0.
         25    1    1    2    0    0  0.50105698994E+01  0.46773640223E+01 -0.20516111123E+02  0.12685777217E+03  0.12500000000E+03 0.  0.
</event>
<event>
 5    0  0.5728184E-005  0.2955228E+03  0.7546771E-02  0.1087500E+00
         21   -1    0    0  502  501  0.00000000000E+00  0.00000000000E+00  0.22268897498E+03  0.22268897498E+03  0.00000000000E+00 0.  1.
         21   -1    0    0  501  502 -0.00000000000E+00 -0.00000000000E+00 -0.39217794151E+03  0.39217794151E+03  0.00000000000E+00 0.  1.
         25    1    1    2    0    0 -0.15058411224E+03 -0.90036245906E+02 -0.20784019473E+03  0.29934035308E+03  0.12500000000E+03 0.  0.
         25    1    1    2    0    0  0.45539472351E+02  0.42493216782E+02 -0.59759613230E+01  0.13978636961E+03  0.12500000000E+03 0.  0.
         25    1    1    2    0    0  0.10504463988E+03  0.47543029124E+02  0.44327189532E+02  0.17574019380E+03  0.12500000000E+03 0.  0.
</event>
<event>
 5    0  0.5728184E-005  0.2749917E+03  0.7546771E-02  0.1098456E+00
         21   -1    0    0  502  501  0.00000000000E+00  0.00000000000E+00  0.34602431727E+03  0.34602431727E+03  0.00000000000E+00 0.  1.
         21   -1    0    0  501  502 -0.00000000000E+00 -0.00000000000E+00 -0.21854075903E+03  0.21854075903E+03  0.00000000000E+00 0.  1.
         25    1    1    2    0    0 -0.94372208315E+02  0.12320873359E+03  0.32170289962E+02  0.20185745785E+03  0.12500000000E+03 0.  0.
         25    1    1    2    0    0 -0.22977710925E+02  0.14819035087E+02  0.53365205916E+02  0.13863774451E+03  0.12500000000E+03 0.  0.
         25    1    1    2    0    0  0.11734991924E+03 -0.13802776867E+03  0.41948062364E+02  0.22406987394E+03  0.12500000000E+03 0.  0.
</event>
<event>
 5    0  0.5728184E-005  0.3132785E+03  0.7546771E-02  0.1078785E+00
         21   -1    0    0  502  501  0.00000000000E+00  0.00000000000E+00  0.42441356217E+03  0.42441356217E+03  0.00000000000E+00 0. -1.
         21   -1    0    0  501  502 -0.00000000000E+00 -0.00000000000E+00 -0.23124480976E+03  0.23124480976E+03  0.00000000000E+00 0. -1.
         25    1    1    2    0    0  0.83383753201E+02 -0.11082532423E+03  0.91835984752E+02  0.20807198486E+03  0.12500000000E+03 0.  0.
         25    1    1    2    0    0  0.76748117847E+02  0.11063310599E+03  0.15173649968E+03  0.23828328324E+03  0.12500000000E+03 0.  0.
         25    1    1    2    0    0 -0.16013187105E+03  0.19221823645E+00 -0.50403732022E+02  0.20930310384E+03  0.12500000000E+03 0.  0.
</event>
<event>
 5    0  0.5728184E-005  0.2625125E+03  0.7546771E-02  0.1105643E+00
         21   -1    0    0  502  501  0.00000000000E+00  0.00000000000E+00  0.20400739662E+03  0.20400739662E+03  0.00000000000E+00 0. -1.
         21   -1    0    0  501  502 -0.00000000000E+00 -0.00000000000E+00 -0.33779565487E+03  0.33779565487E+03  0.00000000000E+00 0. -1.
         25    1    1    2    0    0 -0.74791416437E+02 -0.84370991965E+02 -0.10333510082E+02  0.16865349593E+03  0.12500000000E+03 0.  0.
         25    1    1    2    0    0 -0.21616385172E+02 -0.57774072931E+02 -0.41181530931E+02  0.14534796215E+03  0.12500000000E+03 0.  0.
         25    1    1    2    0    0  0.96407801608E+02  0.14214506490E+03 -0.82273217239E+02  0.22780159341E+03  0.12500000000E+03 0.  0.
</event>
<event>
 5    0  0.5728184E-005  0.2398032E+03  0.7546771E-02  0.1119924E+00
         21   -1    0    0  502  501  0.00000000000E+00  0.00000000000E+00  0.14977680318E+03  0.14977680318E+03  0.00000000000E+00 0.  1.
         21   -1    0    0  501  502 -0.00000000000E+00 -0.00000000000E+00 -0.38394175723E+03  0.38394175723E+03  0.00000000000E+00 0.  1.
         25    1    1    2    0    0  0.21372753464E+02 -0.11879256137E+03 -0.90732453065E+02  0.19602511387E+03  0.12500000000E+03 0.  0.
         25    1    1    2    0    0 -0.22398659474E+02  0.12550749438E+03 -0.10308132158E+03  0.20616641325E+03  0.12500000000E+03 0.  0.
         25    1    1    2    0    0  0.10259060094E+01 -0.67149330077E+01 -0.40351179406E+02  0.13152703330E+03  0.12500000000E+03 0.  0.
</event>
<event>
 5    0  0.5728184E-005  0.2340552E+03  0.7546771E-02  0.1123818E+00
         21   -1    0    0  502  501  0.00000000000E+00  0.00000000000E+00  0.24397480535E+02  0.24397480535E+02  0.00000000000E+00 0.  1.
         21   -1    0    0  501  502 -0.00000000000E+00 -0.00000000000E+00 -0.22453884384E+04  0.22453884384E+04  0.00000000000E+00 0.  1.
         25    1    1    2    0    0 -0.43749411908E+02 -0.94883769563E+02 -0.67847795151E+03  0.69776376479E+03  0.12500000000E+03 0.  0.
         25    1    1    2    0    0  0.52041885674E+02  0.24597704499E+02 -0.10502907016E+04  0.10592681260E+04  0.12500000000E+03 0.  0.
         25    1    1    2    0    0 -0.82924737659E+01  0.70286065064E+02 -0.49222230478E+03  0.51275402815E+03  0.12500000000E+03 0.  0.
</event>
<event>
 5    0  0.5728184E-005  0.4063900E+03  0.7546771E-02  0.1041589E+00
         21   -1    0    0  502  501  0.00000000000E+00  0.00000000000E+00  0.18240139482E+03  0.18240139482E+03  0.00000000000E+00 0. -1.
         21   -1    0    0  501  502 -0.00000000000E+00 -0.00000000000E+00 -0.90543610944E+03  0.90543610944E+03  0.00000000000E+00 0. -1.
         25    1    1    2    0    0  0.32016896807E+03 -0.13910284255E+02 -0.48370577996E+03  0.59354691954E+03  0.12500000000E+03 0.  0.
         25    1    1    2    0    0 -0.16815250420E+03  0.10202953832E+02 -0.38869989459E+02  0.21334301258E+03  0.12500000000E+03 0.  0.
         25    1    1    2    0    0 -0.15201646387E+03  0.37073304224E+01 -0.20045894519E+03  0.28094757215E+03  0.12500000000E+03 0.  0.
</event>
<event>
 5    0  0.5728184E-005  0.3304872E+03  0.7546771E-02  0.1070921E+00
         21   -1    0    0  502  501  0.00000000000E+00  0.00000000000E+00  0.21289653951E+03  0.21289653951E+03  0.00000000000E+00 0. -1.
         21   -1    0    0  501  502 -0.00000000000E+00 -0.00000000000E+00 -0.51302757273E+03  0.51302757273E+03  0.00000000000E+00 0. -1.
         25    1    1    2    0    0 -0.12360063401E+03  0.11493231759E+03 -0.17630415862E+03  0.27421653980E+03  0.12500000000E+03 0.  0.
         25    1    1    2    0    0 -0.42364163875E+02 -0.14339131595E+03 -0.14211405811E+03  0.24119949706E+03  0.12500000000E+03 0.  0.
         25    1    1    2    0    0  0.16596479788E+03  0.28458998365E+02  0.18287183504E+02  0.21050807539E+03  0.12500000000E+03 0.  0.
</event>
<event>
 5    0  0.5728184E-005  0.2714551E+03  0.7546771E-02  0.1100450E+00
         21   -1    0    0  502  501  0.00000000000E+00  0.00000000000E+00  0.43914241121E+03  0.43914241121E+03  0.00000000000E+00 0.  1.
         21   -1    0    0  501  502 -0.00000000000E+00 -0.00000000000E+00 -0.16779948123E+03  0.16779948123E+03  0.00000000000E+00 0.  1.
         25    1    1    2    0    0  0.98733893416E+02  0.25533018157E+02  0.21813749881E+03  0.27131031148E+03  0.12500000000E+03 0.  0.
         25    1    1    2    0    0 -0.11064158329E+03 -0.85987765371E+02  0.56938158241E+02  0.19622030886E+03  0.12500000000E+03 0.  0.
         25    1    1    2    0    0  0.11907689875E+02  0.60454747214E+02 -0.37327270742E+01  0.13941127211E+03  0.12500000000E+03 0.  0.
</event>
<event>
 5    0  0.5728184E-005  0.4613871E+03  0.7546771E-02  0.1024380E+00
         21   -1    0    0  502  501  0.00000000000E+00  0.00000000000E+00  0.12872686584E+04  0.12872686584E+04  0.00000000000E+00 0.  1.
         21   -1    0    0  501  502 -0.00000000000E+00 -0.00000000000E+00 -0.16537186462E+03  0.16537186462E+03  0.00000000000E+00 0.  1.
         25    1    1    2    0    0 -0.46810521510E+02  0.80441050869E+01  0.25199545806E+02  0.13607332457E+03  0.12500000000E+03 0.  0.
         25    1    1    2    0    0  0.28733304489E+03 -0.13298373206E+03  0.26031950690E+03  0.42852794233E+03  0.12500000000E+03 0.  0.
         25    1    1    2    0    0 -0.24052252338E+03  0.12493962698E+03  0.83637774104E+03  0.88803925608E+03  0.12500000000E+03 0.  0.
</event>
<event>
 5    0  0.5728184E-005  0.2353027E+03  0.7546771E-02  0.1122962E+00
         21   -1    0    0  502  501  0.00000000000E+00  0.00000000000E+00  0.46511848637E+03  0.46511848637E+03  0.00000000000E+00 0. -1.
         21   -1    0    0  501  502 -0.00000000000E+00 -0.00000000000E+00 -0.11903931068E+03  0.11903931068E+03  0.00000000000E+00 0. -1.
         25    1    1    2    0    0  0.12670550137E+02 -0.34278009754E+02  0.78061338956E+02  0.15183575808E+03  0.12500000000E+03 0.  0.
         25    1    1    2    0    0 -0.74328469546E+01  0.12785856323E+03  0.10978464491E+03  0.20995410847E+03  0.12500000000E+03 0.  0.
         25    1    1    2    0    0 -0.52377031821E+01 -0.93580553471E+02  0.15823319182E+03  0.22236793050E+03  0.12500000000E+03 0.  0.
</event>
<event>
 5    0  0.5728184E-005  0.3880790E+03  0.7546771E-02  0.1047987E+00
         21   -1    0    0  502  501  0.00000000000E+00  0.00000000000E+00  0.69004967565E+02  0.69004967565E+02  0.00000000000E+00 0.  1.
         21   -1    0    0  501  502 -0.00000000000E+00 -0.00000000000E+00 -0.21825281069E+04  0.21825281069E+04  0.00000000000E+00 0.  1.
         25    1    1    2    0    0 -0.55325962844E+02  0.21686537831E+03 -0.84917058812E+03  0.88702155679E+03  0.12500000000E+03 0.  0.
         25    1    1    2    0    0  0.59711740168E+02 -0.78995496035E+02 -0.10643652491E+03  0.19172770833E+03  0.12500000000E+03 0.  0.
         25    1    1    2    0    0 -0.43857773233E+01 -0.13786988228E+03 -0.11579160263E+04  0.11727838093E+04  0.12500000000E+03 0.  0.
</event>
<event>
 5    0  0.5728184E-005  0.3571868E+03  0.7546771E-02  0.1059703E+00
         21   -1    0    0  502  501  0.00000000000E+00  0.00000000000E+00  0.11613081958E+04  0.11613081958E+04  0.00000000000E+00 0.  1.
         21   -1    0    0  501  502 -0.00000000000E+00 -0.00000000000E+00 -0.10986091258E+03  0.10986091258E+03  0.00000000000E+00 0.  1.
         25    1    1    2    0    0  0.14353030717E+03 -0.25716319997E+01  0.11310888873E+03  0.22141856985E+03  0.12500000000E+03 0.  0.
         25    1    1    2    0    0  0.12990670888E+02 -0.70450972250E+02  0.75480238969E+03  0.76842940112E+03  0.12500000000E+03 0.  0.
         25    1    1    2    0    0 -0.15652097806E+03  0.73022604250E+02  0.18353600484E+03  0.28132113745E+03  0.12500000000E+03 0.  0.
</event>
<event>
 5    0  0.5728184E-005  0.2237246E+03  0.7546771E-02  0.1131136E+00
         21   -1    0    0  502  501  0.00000000000E+00  0.00000000000E+00  0.47274674444E+02  0.47274674444E+02  0.00000000000E+00 0.  1.
         21   -1    0    0  501  502 -0.00000000000E+00 -0.00000000000E+00 -0.10587637622E+04  0.10587637622E+04  0.00000000000E+00 0.  1.
         25    1    1    2    0    0  0.27927231086E+02  0.34576803610E+02 -0.21092566705E+03  0.24917889678E+03  0.12500000000E+03 0.  0.
         25    1    1    2    0    0 -0.17110352495E+02 -0.10213258483E+03 -0.39855650183E+03  0.43034418109E+03  0.12500000000E+03 0.  0.
         25    1    1    2    0    0 -0.10816878590E+02  0.67555781215E+02 -0.40200691884E+03  0.42651535873E+03  0.12500000000E+03 0.  0.
</event>
<event>
 5    0  0.5728184E-005  0.2758311E+03  0.7546771E-02  0.1097988E+00
         21   -1    0    0  502  501  0.00000000000E+00  0.00000000000E+00  0.20607443583E+03  0.20607443583E+03  0.00000000000E+00 0.  1.
         21   -1    0    0  501  502 -0.00000000000E+00 -0.00000000000E+00 -0.36920059103E+03  0.36920059103E+03  0.00000000000E+00 0.  1.
         25    1    1    2    0    0 -0.39008223512E+02 -0.11495274001E+03  0.24889532307E+02  0.17601210969E+03  0.12500000000E+03 0.  0.
         25    1    1    2    0    0 -0.33418115234E+02  0.11296544079E+03 -0.12913448268E+02  0.17224900112E+03  0.12500000000E+03 0.  0.
         25    1    1    2    0    0  0.72426338746E+02  0.19872992188E+01 -0.17510223923E+03  0.22701391607E+03  0.12500000000E+03 0.  0.
</event>
<event>
 5    0  0.5728184E-005  0.4022657E+03  0.7546771E-02  0.1042998E+00
         21   -1    0    0  502  501  0.00000000000E+00  0.00000000000E+00  0.92645050394E+03  0.92645050394E+03  0.00000000000E+00 0. -1.
         21   -1    0    0  501  502 -0.00000000000E+00 -0.00000000000E+00 -0.17466414384E+03  0.17466414384E+03  0.00000000000E+00 0. -1.
         25    1    1    2    0    0  0.49556249224E+02 -0.14832893233E+03  0.21788512348E+03  0.29589900479E+03  0.12500000000E+03 0.  0.
         25    1    1    2    0    0 -0.21108594119E+03  0.26971752482E+03  0.30603151491E+03  0.47600956490E+03  0.12500000000E+03 0.  0.
         25    1    1    2    0    0  0.16152969196E+03 -0.12138859249E+03  0.22786972170E+03  0.32920607808E+03  0.12500000000E+03 0.  0.
</event>
<event>
 5    0  0.5728184E-005  0.3643587E+03  0.7546771E-02  0.1056871E+00
         21   -1    0    0  502  501  0.00000000000E+00  0.00000000000E+00  0.54912110756E+02  0.54912110756E+02  0.00000000000E+00 0. -1.
         21   -1    0    0  501  502 -0.00000000000E+00 -0.00000000000E+00 -0.24176315702E+04  0.24176315702E+04  0.00000000000E+00 0. -1.
         25    1    1    2    0    0 -0.12663929824E+03  0.54668674419E+02 -0.48204764063E+03  0.51674084768E+03  0.12500000000E+03 0.  0.
         25    1    1    2    0    0  0.25708008880E+03 -0.36964913005E+02 -0.63989510985E+03  0.70181716170E+03  0.12500000000E+03 0.  0.
         25    1    1    2    0    0 -0.13044079056E+03 -0.17703761415E+02 -0.12407767090E+04  0.12539856716E+04  0.12500000000E+03 0.  0.
</event>
<event>
 5    0  0.5728184E-005  0.3375271E+03  0.7546771E-02  0.1067854E+00
         21   -1    0    0  502  501  0.00000000000E+00  0.00000000000E+00  0.94259172513E+02  0.94259172513E+02  0.00000000000E+00 0.  1.
         21   -1    0    0  501  502 -0.00000000000E+00 -0.00000000000E+00 -0.12086308733E+04  0.12086308733E+04  0.00000000000E+00 0.  1.
         25    1    1    2    0    0  0.68473147935E+02  0.79492739165E+02 -0.38273952832E+03  0.41607957665E+03  0.12500000000E+03 0.  0.
         25    1    1    2    0    0 -0.23232957526E+03 -0.10741052696E+03 -0.34147996237E+03  0.44468822510E+03  0.12500000000E+03 0.  0.
         25    1    1    2    0    0  0.16385642733E+03  0.27917787797E+02 -0.39015221013E+03  0.44212224409E+03  0.12500000000E+03 0.  0.
</event>
<event>
 5    0  0.6179226E-005  0.3106871E+03  0.7546771E-02  0.1080017E+00
         21   -1    0    0  502  501  0.00000000000E+00  0.00000000000E+00  0.10080756657E+03  0.10080756657E+03  0.00000000000E+00 0. -1.
         21   -1    0    0  501  502 -0.00000000000E+00 -0.00000000000E+00 -0.95753192796E+03  0.95753192796E+03  0.00000000000E+00 0. -1.
         25    1    1    2    0    0 -0.10724015999E+03 -0.69886035939E+02 -0.35549694245E+03  0.39797937889E+03  0.12500000000E+03 0.  0.
         25    1    1    2    0    0  0.56455238226E+02  0.84539918415E+02 -0.22396739721E+02  0.16266777701E+03  0.12500000000E+03 0.  0.
         25    1    1    2    0    0  0.50784921765E+02 -0.14653882476E+02 -0.47883067922E+03  0.49769233861E+03  0.12500000000E+03 0.  0.
</event>
<event>
 5    0  0.5728184E-005  0.4472905E+03  0.7546771E-02  0.1028533E+00
         21   -1    0    0  502  501  0.00000000000E+00  0.00000000000E+00  0.15304969394E+04  0.15304969394E+04  0.00000000000E+00 0.  1.
         21   -1    0    0  501  502 -0.00000000000E+00 -0.00000000000E+00 -0.13072144016E+03  0.13072144016E+03  0.00000000000E+00 0.  1.
         25    1    1    2    0    0  0.17164604787E+03 -0.23355110758E+03  0.23059784333E+03  0.39090772690E+03  0.12500000000E+03 0.  0.
         25    1    1    2    0    0  0.39592221324E+02  0.11159958083E+03  0.74979477463E+03  0.76931086986E+03  0.12500000000E+03 0.  0.
         25    1    1    2    0    0 -0.21123826919E+03  0.12195152675E+03  0.41938288127E+03  0.50099978279E+03  0.12500000000E+03 0.  0.
</event>
<event>
 5    0  0.5728184E-005  0.2856123E+03  0.7546771E-02  0.1092663E+00
         21   -1    0    0  502  501  0.00000000000E+00  0.00000000000E+00  0.16707838513E+03  0.16707838513E+03  0.00000000000E+00 0. -1.
         21   -1    0    0  501  502 -0.00000000000E+00 -0.00000000000E+00 -0.48824023373E+03  0.48824023373E+03  0.00000000000E+00 0. -1.
         25    1    1    2    0    0 -0.35057799766E+02 -0.79342111394E+01 -0.96288385129E+02  0.16182847136E+03  0.12500000000E+03 0.  0.
         25    1    1    2    0    0  0.10847031429E+03  0.65731802876E+02 -0.27669836984E+03  0.32904933804E+03  0.12500000000E+03 0.  0.
         25    1    1    2    0    0 -0.73412514524E+02 -0.57797591736E+02  0.51824906367E+02  0.16444080947E+03  0.12500000000E+03 0.  0.
</event>
<event>
 5    0  0.5728184E-005  0.4015886E+03  0.7546771E-02  0.1043231E+00
         21   -1    0    0  502  501  0.00000000000E+00  0.00000000000E+00  0.27456700268E+03  0.27456700268E+03  0.00000000000E+00 0. -1.
         21   -1    0    0  501  502 -0.00000000000E+00 -0.00000000000E+00 -0.58737371557E+03  0.58737371557E+03  0.00000000000E+00 0. -1.
         25    1    1    2    0    0 -0.22481731488E+03  0.22519761277E+03 -0.11522954228E+03  0.36077643670E+03  0.12500000000E+03 0.  0.
         25    1    1    2    0    0  0.21870060140E+02 -0.84809737932E+02 -0.16147414852E+03  0.22219336583E+03  0.12500000000E+03 0.  0.
         25    1    1    2    0    0  0.20294725474E+03 -0.14038787483E+03 -0.36103022097E+02  0.27897091571E+03  0.12500000000E+03 0.  0.
</event>
<event>
 5    0  0.5728184E-005  0.3121543E+03  0.7546771E-02  0.1079318E+00
         21   -1    0    0  502  501  0.00000000000E+00  0.00000000000E+00  0.15851659458E+04  0.15851659458E+04  0.00000000000E+00 0.  1.
         21   -1    0    0  501  502 -0.00000000000E+00 -0.00000000000E+00 -0.61470098462E+02  0.61470098462E+02  0.00000000000E+00 0.  1.
         25    1    1    2    0    0 -0.49807824140E+02  0.11080620803E+03  0.90343431432E+03  0.92009640548E+03  0.12500000000E+03 0.  0.
         25    1    1    2    0    0  0.34423750881E+02 -0.18894389154E+03  0.40169018048E+03  0.46245517606E+03  0.12500000000E+03 0.  0.
         25    1    1    2    0    0  0.15384073259E+02  0.78137683511E+02  0.21857135249E+03  0.26408446267E+03  0.12500000000E+03 0.  0.
</event>
<event>
 5    0  0.5845829E-005  0.4312967E+03  0.7546771E-02  0.1033451E+00
         21   -1    0    0  502  501  0.00000000000E+00  0.00000000000E+00  0.29344722773E+03  0.29344722773E+03  0.00000000000E+00 0.  1.
         21   -1    0    0  501  502 -0.00000000000E+00 -0.00000000000E+00 -0.63390232230E+03  0.63390232230E+03  0.00000000000E+00 0.  1.
         25    1    1    2    0    0 -0.14994373980E+03 -0.76885850711E+02 -0.14214304217E+03  0.25342494665E+03  0.12500000000E+03 0.  0.
         25    1    1    2    0    0 -0.12081348548E+02  0.43398499660E+02  0.19109520243E+03  0.23274828710E+03  0.12500000000E+03 0.  0.
         25    1    1    2    0    0  0.16202508835E+03  0.33487351051E+02 -0.38940725484E+03  0.44117631629E+03  0.12500000000E+03 0.  0.
</event>
<event>
 5    0  0.5728184E-005  0.2357768E+03  0.7546771E-02  0.1122639E+00
         21   -1    0    0  502  501  0.00000000000E+00  0.00000000000E+00  0.29542890915E+03  0.29542890915E+03  0.00000000000E+00 0. -1.
         21   -1    0    0  501  502 -0.00000000000E+00 -0.00000000000E+00 -0.18816949068E+03  0.18816949068E+03  0.00000000000E+00 0. -1.
         25    1    1    2    0    0 -0.93425897418E+02 -0.22117246971E+02 -0.18311977796E+01  0.15762589954E+03  0.12500000000E+03 0.  0.
         25    1    1    2    0    0  0.82111842886E+02  0.58544984306E+02  0.81058363176E+01  0.16081223371E+03  0.12500000000E+03 0.  0.
         25    1    1    2    0    0  0.11314054532E+02 -0.36427737334E+02  0.10098477993E+03  0.16516026657E+03  0.12500000000E+03 0.  0.
</event>
<event>
 5    0  0.5728184E-005  0.5681942E+03  0.7546771E-02  0.9973683E-01
         21   -1    0    0  502  501  0.00000000000E+00  0.00000000000E+00  0.17764565477E+03  0.17764565477E+03  0.00000000000E+00 0. -1.
         21   -1    0    0  501  502 -0.00000000000E+00 -0.00000000000E+00 -0.18173515958E+04  0.18173515958E+04  0.00000000000E+00 0. -1.
         25    1    1    2    0    0 -0.48147734101E+02 -0.14087906718E+01 -0.20860157712E+03  0.24791088513E+03  0.12500000000E+03 0.  0.
         25    1    1    2    0    0 -0.27431251764E+03 -0.34744708963E+03 -0.96911469157E+03  0.10727418715E+04  0.12500000000E+03 0.  0.
         25    1    1    2    0    0  0.32246025174E+03  0.34885588030E+03 -0.46198967232E+03  0.67434449393E+03  0.12500000000E+03 0.  0.
</event>
<event>
 5    0  0.5728184E-005  0.3552575E+03  0.7546771E-02  0.1060478E+00
         21   -1    0    0  502  501  0.00000000000E+00  0.00000000000E+00  0.17877340038E+03  0.17877340038E+03  0.00000000000E+00 0.  1.
         21   -1    0    0  501  502 -0.00000000000E+00 -0.00000000000E+00 -0.70596562057E+03  0.70596562057E+03  0.00000000000E+00 0.  1.
         25    1    1    2    0    0 -0.89404385055E+02  0.65048319785E+02 -0.22616170547E+03  0.28106679810E+03  0.12500000000E+03 0.  0.
         25    1    1    2    0    0 -0.17862555198E+03  0.47872792335E+01 -0.14695290195E+03  0.26296418246E+03  0.12500000000E+03 0.  0.
         25    1    1    2    0    0  0.26802993704E+03 -0.69835599019E+02 -0.15407761277E+03  0.34070804040E+03  0.12500000000E+03 0.  0.
</event>
<event>
 5    0  0.5728184E-005  0.2305368E+03  0.7546771E-02  0.1126262E+00
         21   -1    0    0  502  501  0.00000000000E+00  0.00000000000E+00  0.68448386031E+03  0.68448386031E+03  0.00000000000E+00 0.  1.
         21   -1    0    0  501  502 -0.00000000000E+00 -0.00000000000E+00 -0.77645705056E+02  0.77645705056E+02  0.00000000000E+00 0.  1.
         25    1    1    2    0    0 -0.33287015091E+02 -0.98617862624E+01  0.14341826760E+03  0.19338841662E+03  0.12500000000E+03 0.  0.
         25    1    1    2    0    0 -0.77865265318E+02 -0.43263051766E+02  0.23492077408E+03  0.28061978064E+03  0.12500000000E+03 0.  0.
         25    1    1    2    0    0  0.11115228041E+03  0.53124838029E+02  0.22849911358E+03  0.28812136811E+03  0.12500000000E+03 0.  0.
</event>
<event>
 5    0  0.5728184E-005  0.2529373E+03  0.7546771E-02  0.1111462E+00
         21   -1    0    0  502  501  0.00000000000E+00  0.00000000000E+00  0.22260584169E+03  0.22260584169E+03  0.00000000000E+00 0.  1.
         21   -1    0    0  501  502 -0.00000000000E+00 -0.00000000000E+00 -0.28740164368E+03  0.28740164368E+03  0.00000000000E+00 0.  1.
         25    1    1    2    0    0 -0.76618792258E+02 -0.10393357584E+02 -0.14982823132E+03  0.20988558814E+03  0.12500000000E+03 0.  0.
         25    1    1    2    0    0  0.74374138593E+02  0.69818717626E+01  0.96247676208E+02  0.17455335631E+03  0.12500000000E+03 0.  0.
         25    1    1    2    0    0  0.22446536645E+01  0.34114858219E+01 -0.11215246874E+02  0.12556854092E+03  0.12500000000E+03 0.  0.
</event>
<event>
 5    0  0.5728184E-005  0.2757968E+03  0.7546771E-02  0.1098007E+00
         21   -1    0    0  502  501  0.00000000000E+00  0.00000000000E+00  0.10231958210E+04  0.10231958210E+04  0.00000000000E+00 0. -1.
         21   -1    0    0  501  502 -0.00000000000E+00 -0.00000000000E+00 -0.74339528324E+02  0.74339528324E+02  0.00000000000E+00 0. -1.
         25    1    1    2    0    0 -0.26559387852E+02  0.67945674633E+02  0.17720670248E+03  0.22879954368E+03  0.12500000000E+03 0.  0.
         25    1    1    2    0    0 -0.13748391344E+03 -0.17014954541E+02  0.35434096225E+03  0.40046704317E+03  0.12500000000E+03 0.  0.
         25    1    1    2    0    0  0.16404330130E+03 -0.50930720092E+02  0.41730862791E+03  0.46826876244E+03  0.12500000000E+03 0.  0.
</event>
<event>
 5    0  0.5728184E-005  0.3707920E+03  0.7546771E-02  0.1054391E+00
         21   -1    0    0  502  501  0.00000000000E+00  0.00000000000E+00  0.73906884705E+03  0.73906884705E+03  0.00000000000E+00 0. -1.
         21   -1    0    0  501  502 -0.00000000000E+00 -0.00000000000E+00 -0.18602689890E+03  0.18602689890E+03  0.00000000000E+00 0. -1.
         25    1    1    2    0    0  0.11898388262E+03  0.17463859320E+03  0.70210181527E+02  0.25536302032E+03  0.12500000000E+03 0.  0.
         25    1    1    2    0    0 -0.67119927411E+02 -0.15847728755E+03  0.53566965306E+02  0.21935030225E+03  0.12500000000E+03 0.  0.
         25    1    1    2    0    0 -0.51863955205E+02 -0.16161305646E+02  0.42926480131E+03  0.45038242338E+03  0.12500000000E+03 0.  0.
</event>
<event>
 5    0  0.5728184E-005  0.3576345E+03  0.7546771E-02  0.1059524E+00
         21   -1    0    0  502  501  0.00000000000E+00  0.00000000000E+00  0.94589837634E+02  0.94589837634E+02  0.00000000000E+00 0. -1.
         21   -1    0    0  501  502 -0.00000000000E+00 -0.00000000000E+00 -0.13521792744E+04  0.13521792744E+04  0.00000000000E+00 0. -1.
         25    1    1    2    0    0 -0.85532344026E+02  0.16673872883E+02 -0.10962816488E+04  0.11068207865E+04  0.12500000000E+03 0.  0.
         25    1    1    2    0    0  0.58325422666E+02  0.33502056863E+02 -0.14270361309E+03  0.20127981501E+03  0.12500000000E+03 0.  0.
         25    1    1    2    0    0  0.27206921360E+02 -0.50175929746E+02 -0.18604174903E+02  0.13866851056E+03  0.12500000000E+03 0.  0.
</event>
<event>
 5    0  0.5728184E-005  0.3730316E+03  0.7546771E-02  0.1053540E+00
         21   -1    0    0  502  501  0.00000000000E+00  0.00000000000E+00  0.13870106919E+04  0.13870106919E+04  0.00000000000E+00 0. -1.
         21   -1    0    0  501  502 -0.00000000000E+00 -0.00000000000E+00 -0.10032551982E+03  0.10032551982E+03  0.00000000000E+00 0. -1.
         25    1    1    2    0    0  0.21278052102E+03  0.26589410745E+02  0.33039758428E+03  0.41324340356E+03  0.12500000000E+03 0.  0.
         25    1    1    2    0    0  0.32105574471E+01 -0.81269944497E+02  0.68660845384E+03  0.70261744957E+03  0.12500000000E+03 0.  0.
         25    1    1    2    0    0 -0.21599107847E+03  0.54680533752E+02  0.26967913397E+03  0.37147535860E+03  0.12500000000E+03 0.  0.
</event>
<event>
 5    0  0.5728184E-005  0.3915797E+03  0.7546771E-02  0.1046735E+00
         21   -1    0    0  502  501  0.00000000000E+00  0.00000000000E+00  0.72437432650E+03  0.72437432650E+03  0.00000000000E+00 0. -1.
         21   -1    0    0  501  502 -0.00000000000E+00 -0.00000000000E+00 -0.21167874342E+03  0.21167874342E+03  0.00000000000E+00 0. -1.
         25    1    1    2    0    0  0.62119636599E+00 -0.20567119374E+03  0.26085861500E+03  0.35492709510E+03  0.12500000000E+03 0.  0.
         25    1    1    2    0    0 -0.68898101604E+01  0.27683249249E+03  0.30227102850E+03  0.42857493283E+03  0.12500000000E+03 0.  0.
         25    1    1    2    0    0  0.62686137944E+01 -0.71161298750E+02 -0.50434060416E+02  0.15255104198E+03  0.12500000000E+03 0.  0.
</event>
<event>
 5    0  0.5728184E-005  0.3767946E+03  0.7546771E-02  0.1052125E+00
         21   -1    0    0  502  501  0.00000000000E+00  0.00000000000E+00  0.11300023514E+04  0.11300023514E+04  0.00000000000E+00 0.  1.
         21   -1    0    0  501  502 -0.00000000000E+00 -0.00000000000E+00 -0.12564057855E+03  0.12564057855E+03  0.00000000000E+00 0.  1.
         25    1    1    2    0    0 -0.21036591455E+03 -0.28097572530E+02  0.14900397175E+03  0.28787232445E+03  0.12500000000E+03 0.  0.
         25    1    1    2    0    0  0.16863936766E+03 -0.11626155694E+03  0.33632606805E+03  0.41315397855E+03  0.12500000000E+03 0.  0.
         25    1    1    2    0    0  0.41726546888E+02  0.14435912947E+03  0.51903173305E+03  0.55461662695E+03  0.12500000000E+03 0.  0.
</event>
<event>
 5    0  0.5728184E-005  0.2143420E+03  0.7546771E-02  0.1138173E+00
         21   -1    0    0  502  501  0.00000000000E+00  0.00000000000E+00  0.35436584623E+03  0.35436584623E+03  0.00000000000E+00 0. -1.
         21   -1    0    0  501  502 -0.00000000000E+00 -0.00000000000E+00 -0.12964711609E+03  0.12964711609E+03  0.00000000000E+00 0. -1.
         25    1    1    2    0    0  0.87276566252E+02  0.88602157878E+01  0.10083886821E+03  0.18300049121E+03  0.12500000000E+03 0.  0.
         25    1    1    2    0    0 -0.60575065609E+02  0.21884384143E+02  0.44735023377E+02  0.14756180793E+03  0.12500000000E+03 0.  0.
         25    1    1    2    0    0 -0.26701500643E+02 -0.30744599931E+02  0.79144838559E+02  0.15345066319E+03  0.12500000000E+03 0.  0.
</event>
<event>
 5    0  0.5728184E-005  0.2712333E+03  0.7546771E-02  0.1100576E+00
         21   -1    0    0  502  501  0.00000000000E+00  0.00000000000E+00  0.11508861232E+03  0.11508861232E+03  0.00000000000E+00 0.  1.
         21   -1    0    0  501  502 -0.00000000000E+00 -0.00000000000E+00 -0.63922474245E+03  0.63922474245E+03  0.00000000000E+00 0.  1.
         25    1    1    2    0    0  0.13146522881E+03  0.12675971173E+03 -0.28947653745E+03  0.36438001679E+03  0.12500000000E+03 0.  0.
         25    1    1    2    0    0 -0.53463268212E+02 -0.49795302304E+02 -0.99358443561E+02  0.17559895639E+03  0.12500000000E+03 0.  0.
         25    1    1    2    0    0 -0.78001960597E+02 -0.76964409421E+02 -0.13530114913E+03  0.21433438159E+03  0.12500000000E+03 0.  0.
</event>
<event>
 5    0  0.5728184E-005  0.2770939E+03  0.7546771E-02  0.1097287E+00
         21   -1    0    0  502  501  0.00000000000E+00  0.00000000000E+00  0.87924286011E+03  0.87924286011E+03  0.00000000000E+00 0.  1.
         21   -1    0    0  501  502 -0.00000000000E+00 -0.00000000000E+00 -0.87326306864E+02  0.87326306864E+02  0.00000000000E+00 0.  1.
         25    1    1    2    0    0  0.59200895989E+02  0.14145766895E+03  0.53519978077E+03  0.57059514853E+03  0.12500000000E+03 0.  0.
         25    1    1    2    0    0 -0.60108295599E+02 -0.57502938893E+02  0.11417527502E+03  0.18862817554E+03  0.12500000000E+03 0.  0.
         25    1    1    2    0    0  0.90739961045E+00 -0.83954730055E+02  0.14254149745E+03  0.20734584290E+03  0.12500000000E+03 0.  0.
</event>
<event>
 5    0  0.5728184E-005  0.3336246E+03  0.7546771E-02  0.1069544E+00
         21   -1    0    0  502  501  0.00000000000E+00  0.00000000000E+00  0.96997233369E+02  0.96997233369E+02  0.00000000000E+00 0. -1.
         21   -1    0    0  501  502 -0.00000000000E+00 -0.00000000000E+00 -0.11475109862E+04  0.11475109862E+04  0.00000000000E+00 0. -1.
         25    1    1    2    0    0 -0.19307324360E+03 -0.13098691493E+02 -0.15580637504E+03  0.27811774416E+03  0.12500000000E+03 0.  0.
         25    1    1    2    0    0  0.25079909995E+02 -0.55943374819E+02 -0.43109246728E+03  0.45301697365E+03  0.12500000000E+03 0.  0.
         25    1    1    2    0    0  0.16799333360E+03  0.69042066312E+02 -0.46361491050E+03  0.51337350174E+03  0.12500000000E+03 0.  0.
</event>
<event>
 5    0  0.5728184E-005  0.3317315E+03  0.7546771E-02  0.1070373E+00
         21   -1    0    0  502  501  0.00000000000E+00  0.00000000000E+00  0.48088763052E+02  0.48088763052E+02  0.00000000000E+00 0.  1.
         21   -1    0    0  501  502 -0.00000000000E+00 -0.00000000000E+00 -0.22883893241E+04  0.22883893241E+04  0.00000000000E+00 0.  1.
         25    1    1    2    0    0 -0.14804714590E+02 -0.45406784563E+02 -0.75020091622E+03  0.76204158046E+03  0.12500000000E+03 0.  0.
         25    1    1    2    0    0  0.10348448542E+03  0.75174406939E+02 -0.17540417405E+03  0.25050320248E+03  0.12500000000E+03 0.  0.
         25    1    1    2    0    0 -0.88679770827E+02 -0.29767622376E+02 -0.13146954708E+04  0.13239333042E+04  0.12500000000E+03 0.  0.
</event>
<event>
 5    0  0.5728184E-005  0.4410797E+03  0.7546771E-02  0.1030416E+00
         21   -1    0    0  502  501  0.00000000000E+00  0.00000000000E+00  0.60239753185E+03  0.60239753185E+03  0.00000000000E+00 0.  1.
         21   -1    0    0  501  502 -0.00000000000E+00 -0.00000000000E+00 -0.32296158278E+03  0.32296158278E+03  0.00000000000E+00 0. -1.
         25    1    1    2    0    0 -0.29488816532E+02  0.33315605635E+03  0.25058493743E+03  0.43621136969E+03  0.12500000000E+03 0.  0.
         25    1    1    2    0    0 -0.47130149653E+02 -0.28176629816E+03  0.86226364469E+02  0.32353281706E+03  0.12500000000E+03 0.  0.
         25    1    1    2    0    0  0.76618966185E+02 -0.51389758192E+02 -0.57375352825E+02  0.16561492788E+03  0.12500000000E+03 0.  0.
</event>
<event>
 5    0  0.5728184E-005  0.3743657E+03  0.7546771E-02  0.1053036E+00
         21   -1    0    0  502  501  0.00000000000E+00  0.00000000000E+00  0.16753820065E+03  0.16753820065E+03  0.00000000000E+00 0.  1.
         21   -1    0    0  501  502 -0.00000000000E+00 -0.00000000000E+00 -0.83652389160E+03  0.83652389160E+03  0.00000000000E+00 0.  1.
         25    1    1    2    0    0 -0.14425877931E+03  0.19852003350E+03 -0.95884678278E+02  0.29161562139E+03  0.12500000000E+03 0.  0.
         25    1    1    2    0    0  0.14361978594E+03 -0.13769563622E+03 -0.18151314627E+03  0.29691539774E+03  0.12500000000E+03 0.  0.
         25    1    1    2    0    0  0.63899336280E+00 -0.60824397287E+02 -0.39158786641E+03  0.41553107313E+03  0.12500000000E+03 0.  0.
</event>
<event>
 5    0  0.5728184E-005  0.2383009E+03  0.7546771E-02  0.1120930E+00
         21   -1    0    0  502  501  0.00000000000E+00  0.00000000000E+00  0.12884558255E+03  0.12884558255E+03  0.00000000000E+00 0.  1.
         21   -1    0    0  501  502 -0.00000000000E+00 -0.00000000000E+00 -0.44073924737E+03  0.44073924737E+03  0.00000000000E+00 0.  1.
         25    1    1    2    0    0 -0.80336964045E+01  0.14505626855E+02 -0.67846479975E+02  0.14318903007E+03  0.12500000000E+03 0.  0.
         25    1    1    2    0    0  0.50912485864E+02 -0.35256686440E+02 -0.25657015492E+03  0.29204170858E+03  0.12500000000E+03 0.  0.
         25    1    1    2    0    0 -0.42878789460E+02  0.20751059585E+02  0.12522970073E+02  0.13435409126E+03  0.12500000000E+03 0.  0.
</event>
<event>
 5    0  0.5728184E-005  0.2466712E+03  0.7546771E-02  0.1115427E+00
         21   -1    0    0  502  501  0.00000000000E+00  0.00000000000E+00  0.21689621547E+03  0.21689621547E+03  0.00000000000E+00 0.  1.
         21   -1    0    0  501  502 -0.00000000000E+00 -0.00000000000E+00 -0.28053371773E+03  0.28053371773E+03  0.00000000000E+00 0.  1.
         25    1    1    2    0    0 -0.11289324349E+03 -0.11779794358E+02 -0.64627080875E+02  0.18079078396E+03  0.12500000000E+03 0.  0.
         25    1    1    2    0    0  0.17838812198E+02  0.75417989297E+02 -0.39186679355E+01  0.14712733359E+03  0.12500000000E+03 0.  0.
         25    1    1    2    0    0  0.95054431295E+02 -0.63638194939E+02  0.49082465470E+01  0.16951181566E+03  0.12500000000E+03 0.  0.
</event>
<event>
 5    0  0.5728184E-005  0.4779664E+03  0.7546771E-02  0.1019696E+00
         21   -1    0    0  502  501  0.00000000000E+00  0.00000000000E+00  0.85411653448E+03  0.85411653448E+03  0.00000000000E+00 0.  1.
         21   -1    0    0  501  502 -0.00000000000E+00 -0.00000000000E+00 -0.26747159467E+03  0.26747159467E+03  0.00000000000E+00 0.  1.
         25    1    1    2    0    0  0.21514097592E+03  0.23007055123E+03  0.38168468894E+03  0.51041776991E+03  0.12500000000E+03 0.  0.
         25    1    1    2    0    0 -0.22653934487E+03 -0.29276208716E+03  0.24996072813E+03  0.46382656248E+03  0.12500000000E+03 0.  0.
         25    1    1    2    0    0  0.11398368951E+02  0.62691535934E+02 -0.45000477255E+02  0.14734379677E+03  0.12500000000E+03 0.  0.
</event>
<event>
 5    0  0.5728184E-005  0.3598592E+03  0.7546771E-02  0.1058640E+00
         21   -1    0    0  502  501  0.00000000000E+00  0.00000000000E+00  0.29026665308E+03  0.29026665308E+03  0.00000000000E+00 0.  1.
         21   -1    0    0  501  502 -0.00000000000E+00 -0.00000000000E+00 -0.44613680246E+03  0.44613680246E+03  0.00000000000E+00 0.  1.
         25    1    1    2    0    0  0.18538903997E+03 -0.14397804041E+03 -0.24091323644E+03  0.35883556088E+03  0.12500000000E+03 0.  0.
         25    1    1    2    0    0 -0.10417442150E+03  0.95835105747E+01  0.66373217529E+02  0.17599590272E+03  0.12500000000E+03 0.  0.
         25    1    1    2    0    0 -0.81214618471E+02  0.13439452984E+03  0.18669869533E+02  0.20157199193E+03  0.12500000000E+03 0.  0.
</event>
<event>
 5    0  0.5728184E-005  0.2942181E+03  0.7546771E-02  0.1088167E+00
         21   -1    0    0  502  501  0.00000000000E+00  0.00000000000E+00  0.42320510336E+02  0.42320510336E+02  0.00000000000E+00 0. -1.
         21   -1    0    0  501  502 -0.00000000000E+00 -0.00000000000E+00 -0.20454449719E+04  0.20454449719E+04  0.00000000000E+00 0. -1.
         25    1    1    2    0    0  0.98154375096E+02 -0.11283227438E+02 -0.33343129384E+03  0.36954434143E+03  0.12500000000E+03 0.  0.
         25    1    1    2    0    0  0.59276357177E+02 -0.10417007828E+03 -0.75561778648E+03  0.77520857256E+03  0.12500000000E+03 0.  0.
         25    1    1    2    0    0 -0.15743073227E+03  0.11545330572E+03 -0.91407538122E+03  0.94301256822E+03  0.12500000000E+03 0.  0.
</event>
<event>
 5    0  0.7685183E-005  0.4637949E+03  0.7546771E-02  0.1023686E+00
         21   -1    0    0  502  501  0.00000000000E+00  0.00000000000E+00  0.68125502692E+03  0.68125502692E+03  0.00000000000E+00 0.  1.
         21   -1    0    0  501  502 -0.00000000000E+00 -0.00000000000E+00 -0.31574912067E+03  0.31574912067E+03  0.00000000000E+00 0.  1.
         25    1    1    2    0    0 -0.15954780419E+03  0.14091379070E+03 -0.53811257459E+02  0.25265163697E+03  0.12500000000E+03 0.  0.
         25    1    1    2    0    0  0.15944548875E+03 -0.22952340672E+03  0.89154637505E+01  0.30628147774E+03  0.12500000000E+03 0.  0.
         25    1    1    2    0    0  0.10231544154E+00  0.88609616013E+02  0.41040169996E+03  0.43807103288E+03  0.12500000000E+03 0.  0.
</event>
<event>
 5    0  0.5728184E-005  0.4768491E+03  0.7546771E-02  0.1020005E+00
         21   -1    0    0  502  501  0.00000000000E+00  0.00000000000E+00  0.22404896893E+03  0.22404896893E+03  0.00000000000E+00 0. -1.
         21   -1    0    0  501  502 -0.00000000000E+00 -0.00000000000E+00 -0.10148901048E+04  0.10148901048E+04  0.00000000000E+00 0. -1.
         25    1    1    2    0    0  0.15489417015E+03 -0.10485329592E+03 -0.24293009182E+03  0.33109884797E+03  0.12500000000E+03 0.  0.
         25    1    1    2    0    0 -0.10105070508E+03 -0.26894952436E+03 -0.32670059689E+03  0.45266253618E+03  0.12500000000E+03 0.  0.
         25    1    1    2    0    0 -0.53843465066E+02  0.37380282028E+03 -0.22121044720E+03  0.45517768963E+03  0.12500000000E+03 0.  0.
</event>
<event>
 5    0  0.5728184E-005  0.2779034E+03  0.7546771E-02  0.1096840E+00
         21   -1    0    0  502  501  0.00000000000E+00  0.00000000000E+00  0.11361925126E+03  0.11361925126E+03  0.00000000000E+00 0. -1.
         21   -1    0    0  501  502 -0.00000000000E+00 -0.00000000000E+00 -0.67972890841E+03  0.67972890841E+03  0.00000000000E+00 0. -1.
         25    1    1    2    0    0 -0.44320584391E+02 -0.10104970669E+02 -0.15118478953E+03  0.20136599817E+03  0.12500000000E+03 0.  0.
         25    1    1    2    0    0 -0.10504514954E+03 -0.84602243920E+02 -0.28575380409E+03  0.33981209464E+03  0.12500000000E+03 0.  0.
         25    1    1    2    0    0  0.14936573393E+03  0.94707214590E+02 -0.12917106354E+03  0.25217006686E+03  0.12500000000E+03 0.  0.
</event>
<event>
 5    0  0.5728184E-005  0.5464318E+03  0.7546771E-02  0.1002323E+00
         21   -1    0    0  502  501  0.00000000000E+00  0.00000000000E+00  0.45765047191E+03  0.45765047191E+03  0.00000000000E+00 0.  1.
         21   -1    0    0  501  502 -0.00000000000E+00 -0.00000000000E+00 -0.65243607766E+03  0.65243607766E+03  0.00000000000E+00 0.  1.
         25    1    1    2    0    0 -0.24778438144E+03  0.41747885604E+02  0.12487956807E+03  0.30718055303E+03  0.12500000000E+03 0.  0.
         25    1    1    2    0    0 -0.18994586528E+03 -0.51991239859E+02 -0.25059677211E+03  0.34235400239E+03  0.12500000000E+03 0.  0.
         25    1    1    2    0    0  0.43773024673E+03  0.10243354255E+02 -0.69068401716E+02  0.46055199416E+03  0.12500000000E+03 0.  0.
</event>
<event>
 5    0  0.5728184E-005  0.2336352E+03  0.7546771E-02  0.1124107E+00
         21   -1    0    0  502  501  0.00000000000E+00  0.00000000000E+00  0.28611231197E+03  0.28611231197E+03  0.00000000000E+00 0.  1.
         21   -1    0    0  501  502 -0.00000000000E+00 -0.00000000000E+00 -0.19078315647E+03  0.19078315647E+03  0.00000000000E+00 0.  1.
         25    1    1    2    0    0 -0.25511916775E+02  0.17150077804E+01  0.10922998561E+03  0.16795829514E+03  0.12500000000E+03 0.  0.
         25    1    1    2    0    0 -0.26312119434E+02 -0.64904830509E+02  0.42255948003E+02  0.14938383378E+03  0.12500000000E+03 0.  0.
         25    1    1    2    0    0  0.51824036209E+02  0.63189822729E+02 -0.56156778108E+02  0.15955333952E+03  0.12500000000E+03 0.  0.
</event>
<event>
 5    0  0.5728184E-005  0.3720526E+03  0.7546771E-02  0.1053911E+00
         21   -1    0    0  502  501  0.00000000000E+00  0.00000000000E+00  0.25358119711E+03  0.25358119711E+03  0.00000000000E+00 0.  1.
         21   -1    0    0  501  502 -0.00000000000E+00 -0.00000000000E+00 -0.54587314312E+03  0.54587314312E+03  0.00000000000E+00 0.  1.
         25    1    1    2    0    0 -0.19174648066E+03 -0.19378441154E+03 -0.10300024778E+03  0.31710118582E+03  0.12500000000E+03 0.  0.
         25    1    1    2    0    0  0.23382983532E+03  0.14639643659E+03 -0.11730837718E+03  0.32479926707E+03  0.12500000000E+03 0.  0.
         25    1    1    2    0    0 -0.42083354657E+02  0.47387974949E+02 -0.71983321053E+02  0.15755388735E+03  0.12500000000E+03 0.  0.
</event>
<event>
 5    0  0.5728184E-005  0.5029498E+03  0.7546771E-02  0.1013012E+00
         21   -1    0    0  502  501  0.00000000000E+00  0.00000000000E+00  0.58079207532E+03  0.58079207532E+03  0.00000000000E+00 0.  1.
         21   -1    0    0  501  502 -0.00000000000E+00 -0.00000000000E+00 -0.43554061225E+03  0.43554061225E+03  0.00000000000E+00 0.  1.
         25    1    1    2    0    0 -0.65592944794E+02  0.21754714365E+03  0.15959730099E+02  0.25982476229E+03  0.12500000000E+03 0.  0.
         25    1    1    2    0    0 -0.26582822566E+02  0.36931114748E+02  0.35725084952E+03  0.38121348766E+03  0.12500000000E+03 0.  0.
         25    1    1    2    0    0  0.92175767359E+02 -0.25447825840E+03 -0.22795911655E+03  0.37529443761E+03  0.12500000000E+03 0.  0.
</event>
<event>
 5    0  0.5728184E-005  0.4237507E+03  0.7546771E-02  0.1035852E+00
         21   -1    0    0  502  501  0.00000000000E+00  0.00000000000E+00  0.12595857182E+03  0.12595857182E+03  0.00000000000E+00 0.  1.
         21   -1    0    0  501  502 -0.00000000000E+00 -0.00000000000E+00 -0.14255849726E+04  0.14255849726E+04  0.00000000000E+00 0.  1.
         25    1    1    2    0    0 -0.11289274303E+03 -0.90114072966E+01 -0.70243075320E+03  0.72239874026E+03  0.12500000000E+03 0.  0.
         25    1    1    2    0    0 -0.11999000380E+03  0.85009275902E+02 -0.50248466730E+03  0.53827504017E+03  0.12500000000E+03 0.  0.
         25    1    1    2    0    0  0.23288274684E+03 -0.75997868605E+02 -0.94710980263E+02  0.29086976397E+03  0.12500000000E+03 0.  0.
</event>
<event>
 5    0  0.5728184E-005  0.3791722E+03  0.7546771E-02  0.1051240E+00
         21   -1    0    0  502  501  0.00000000000E+00  0.00000000000E+00  0.95730742764E+03  0.95730742764E+03  0.00000000000E+00 0. -1.
         21   -1    0    0  501  502 -0.00000000000E+00 -0.00000000000E+00 -0.15018323160E+03  0.15018323160E+03  0.00000000000E+00 0. -1.
         25    1    1    2    0    0 -0.11051216213E+03 -0.80994065297E+02  0.46658716783E+03  0.50209716368E+03  0.12500000000E+03 0.  0.
         25    1    1    2    0    0  0.23216245613E+03  0.12289163691E+03  0.30693131339E+03  0.42288720907E+03  0.12500000000E+03 0.  0.
         25    1    1    2    0    0 -0.12165029400E+03 -0.41897571615E+02  0.33605714822E+02  0.18250628648E+03  0.12500000000E+03 0.  0.
</event>
<event>
 5    0  0.5728184E-005  0.3226463E+03  0.7546771E-02  0.1074438E+00
         21   -1    0    0  502  501  0.00000000000E+00  0.00000000000E+00  0.49615972201E+03  0.49615972201E+03  0.00000000000E+00 0.  1.
         21   -1    0    0  501  502 -0.00000000000E+00 -0.00000000000E+00 -0.20981272521E+03  0.20981272521E+03  0.00000000000E+00 0.  1.
         25    1    1    2    0    0 -0.13869749746E+02  0.55333288503E+02  0.24418796213E+03  0.28019083429E+03  0.12500000000E+03 0.  0.
         25    1    1    2    0    0 -0.13809410595E+03 -0.92920777439E+02  0.77967610869E+02  0.22227955669E+03  0.12500000000E+03 0.  0.
         25    1    1    2    0    0  0.15196385570E+03  0.37587488936E+02 -0.35808576194E+02  0.20350205624E+03  0.12500000000E+03 0.  0.
</event>
<event>
 5    0  0.5728184E-005  0.2369181E+03  0.7546771E-02  0.1121863E+00
         21   -1    0    0  502  501  0.00000000000E+00  0.00000000000E+00  0.12104169238E+04  0.12104169238E+04  0.00000000000E+00 0. -1.
         21   -1    0    0  501  502 -0.00000000000E+00 -0.00000000000E+00 -0.46372623342E+02  0.46372623342E+02  0.00000000000E+00 0. -1.
         25    1    1    2    0    0 -0.49606060236E+02  0.40646812881E+02  0.31889341442E+03  0.34846941669E+03  0.12500000000E+03 0.  0.
         25    1    1    2    0    0 -0.64412671040E+02 -0.64780563865E+02  0.49571511116E+03  0.51933032366E+03  0.12500000000E+03 0.  0.
         25    1    1    2    0    0  0.11401873128E+03  0.24133750983E+02  0.34943577488E+03  0.38898980679E+03  0.12500000000E+03 0.  0.
</event>
<event>
 5    0  0.5728184E-005  0.3206232E+03  0.7546771E-02  0.1075363E+00
         21   -1    0    0  502  501  0.00000000000E+00  0.00000000000E+00  0.83866791748E+02  0.83866791748E+02  0.00000000000E+00 0. -1.
         21   -1    0    0  501  502 -0.00000000000E+00 -0.00000000000E+00 -0.12257444221E+04  0.12257444221E+04  0.00000000000E+00 0. -1.
         25    1    1    2    0    0  0.41228900656E+02 -0.38567838523E+02 -0.94905649676E+02  0.16679143491E+03  0.12500000000E+03 0.  0.
         25    1    1    2    0    0 -0.42665375385E+02 -0.86960779826E+02 -0.89662944931E+03  0.91046794609E+03  0.12500000000E+03 0.  0.
         25    1    1    2    0    0  0.14364747287E+01  0.12552861835E+03 -0.15034253132E+03  0.23235183280E+03  0.12500000000E+03 0.  0.
</event>
<event>
 5    0  0.5728184E-005  0.5183245E+03  0.7546771E-02  0.1009104E+00
         21   -1    0    0  502  501  0.00000000000E+00  0.00000000000E+00  0.49469207798E+03  0.49469207798E+03  0.00000000000E+00 0.  1.
         21   -1    0    0  501  502 -0.00000000000E+00 -0.00000000000E+00 -0.54308579775E+03  0.54308579775E+03  0.00000000000E+00 0. -1.
         25    1    1    2    0    0 -0.58674349410E+01 -0.11291552890E+03  0.11063915833E+03  0.20161936121E+03  0.12500000000E+03 0.  0.
         25    1    1    2    0    0 -0.21077594305E+03 -0.26903738094E+03 -0.83869951218E+02  0.37345251268E+03  0.12500000000E+03 0.  0.
         25    1    1    2    0    0  0.21664337799E+03  0.38195290984E+03 -0.75162926880E+02  0.46270600184E+03  0.12500000000E+03 0.  0.
</event>
<event>
 5    0  0.5728184E-005  0.3039874E+03  0.7546771E-02  0.1083264E+00
         21   -1    0    0  502  501  0.00000000000E+00  0.00000000000E+00  0.45042346055E+03  0.45042346055E+03  0.00000000000E+00 0. -1.
         21   -1    0    0  501  502 -0.00000000000E+00 -0.00000000000E+00 -0.20515875733E+03  0.20515875733E+03  0.00000000000E+00 0. -1.
         25    1    1    2    0    0 -0.16547796714E+03 -0.94619356605E+02  0.17224811529E+02  0.22859893785E+03  0.12500000000E+03 0.  0.
         25    1    1    2    0    0  0.15623808247E+03  0.30805667634E+01  0.16536980342E+03  0.25959969220E+03  0.12500000000E+03 0.  0.
         25    1    1    2    0    0  0.92398846663E+01  0.91538789841E+02  0.62670088266E+02  0.16738358784E+03  0.12500000000E+03 0.  0.
</event>
<event>
 5    0  0.5728184E-005  0.4190728E+03  0.7546771E-02  0.1037369E+00
         21   -1    0    0  502  501  0.00000000000E+00  0.00000000000E+00  0.37394469013E+03  0.37394469013E+03  0.00000000000E+00 0. -1.
         21   -1    0    0  501  502 -0.00000000000E+00 -0.00000000000E+00 -0.46964694275E+03  0.46964694275E+03  0.00000000000E+00 0. -1.
         25    1    1    2    0    0 -0.26435103843E+03  0.17356894587E+03 -0.77119241513E+02  0.34868327735E+03  0.12500000000E+03 0.  0.
         25    1    1    2    0    0  0.12962693042E+03  0.66163389102E+02 -0.19488530185E+02  0.19283552048E+03  0.12500000000E+03 0.  0.
         25    1    1    2    0    0  0.13472410801E+03 -0.23973233497E+03  0.90551908008E+00  0.30207283505E+03  0.12500000000E+03 0.  0.
</event>
<event>
 5    0  0.5728184E-005  0.2842290E+03  0.7546771E-02  0.1093401E+00
         21   -1    0    0  502  501  0.00000000000E+00  0.00000000000E+00  0.48773784101E+02  0.48773784101E+02  0.00000000000E+00 0.  1.
         21   -1    0    0  501  502 -0.00000000000E+00 -0.00000000000E+00 -0.16563428432E+04  0.16563428432E+04  0.00000000000E+00 0.  1.
         25    1    1    2    0    0  0.12769020641E+03 -0.75575077230E+02 -0.10301399667E+04  0.10482507964E+04  0.12500000000E+03 0.  0.
         25    1    1    2    0    0 -0.11128509560E+03  0.74159909432E+01 -0.27138130832E+03  0.31892347660E+03  0.12500000000E+03 0.  0.
         25    1    1    2    0    0 -0.16405110808E+02  0.68159086287E+02 -0.30604778410E+03  0.33794235434E+03  0.12500000000E+03 0.  0.
</event>
<event>
 5    0  0.5728184E-005  0.5713650E+03  0.7546771E-02  0.9966663E-01
         21   -1    0    0  502  501  0.00000000000E+00  0.00000000000E+00  0.96234557722E+03  0.96234557722E+03  0.00000000000E+00 0. -1.
         21   -1    0    0  501  502 -0.00000000000E+00 -0.00000000000E+00 -0.33923151099E+03  0.33923151099E+03  0.00000000000E+00 0. -1.
         25    1    1    2    0    0 -0.30604278204E+03  0.30615294025E+03  0.47065575428E+03  0.65156246538E+03  0.12500000000E+03 0.  0.
         25    1    1    2    0    0  0.15739094980E+03 -0.73145415672E+02 -0.11742106866E+03  0.24399768498E+03  0.12500000000E+03 0.  0.
         25    1    1    2    0    0  0.14865183223E+03 -0.23300752457E+03  0.26987938061E+03  0.40601693784E+03  0.12500000000E+03 0.  0.
</event>
<event>
 5    0  0.5728184E-005  0.2597306E+03  0.7546771E-02  0.1107305E+00
         21   -1    0    0  502  501  0.00000000000E+00  0.00000000000E+00  0.67827660500E+03  0.67827660500E+03  0.00000000000E+00 0. -1.
         21   -1    0    0  501  502 -0.00000000000E+00 -0.00000000000E+00 -0.99457894156E+02  0.99457894156E+02  0.00000000000E+00 0. -1.
         25    1    1    2    0    0  0.22008957612E+02  0.87115854869E+02  0.82624131553E+02  0.17471494927E+03  0.12500000000E+03 0.  0.
         25    1    1    2    0    0  0.91585193098E+02 -0.74201568561E+02  0.22199822539E+03  0.28071681896E+03  0.12500000000E+03 0.  0.
         25    1    1    2    0    0 -0.11359415071E+03 -0.12914286308E+02  0.27419635390E+03  0.32230273092E+03  0.12500000000E+03 0.  0.
</event>
<event>
 5    0  0.5728184E-005  0.2167095E+03  0.7546771E-02  0.1136360E+00
         21   -1    0    0  502  501  0.00000000000E+00  0.00000000000E+00  0.39116472034E+03  0.39116472034E+03  0.00000000000E+00 0. -1.
         21   -1    0    0  501  502 -0.00000000000E+00 -0.00000000000E+00 -0.12005938636E+03  0.12005938636E+03  0.00000000000E+00 0. -1.
         25    1    1    2    0    0  0.65755701683E+02 -0.20683342456E+02  0.13922227145E+03  0.19939772774E+03  0.12500000000E+03 0.  0.
         25    1    1    2    0    0  0.28862609487E+00  0.45561151225E+02  0.31677866296E+02  0.13676399021E+03  0.12500000000E+03 0.  0.
         25    1    1    2    0    0 -0.66044327777E+02 -0.24877808769E+02  0.10020519623E+03  0.17506238874E+03  0.12500000000E+03 0.  0.
</event>
<event>
 5    0  0.5728184E-005  0.5325794E+03  0.7546771E-02  0.1005608E+00
         21   -1    0    0  502  501  0.00000000000E+00  0.00000000000E+00  0.18888295347E+04  0.18888295347E+04  0.00000000000E+00 0.  1.
         21   -1    0    0  501  502 -0.00000000000E+00 -0.00000000000E+00 -0.15016751181E+03  0.15016751181E+03  0.00000000000E+00 0.  1.
         25    1    1    2    0    0 -0.26015527622E+03  0.30034479608E+03  0.67518542935E+03  0.79333985673E+03  0.12500000000E+03 0.  0.
         25    1    1    2    0    0 -0.72481136502E+02 -0.24300172425E+03  0.38552199156E+03  0.47807484677E+03  0.12500000000E+03 0.  0.
         25    1    1    2    0    0  0.33263641273E+03 -0.57343071824E+02  0.67795460201E+03  0.76758234304E+03  0.12500000000E+03 0.  0.
</event>
<event>
 5    0  0.5728184E-005  0.3397864E+03  0.7546771E-02  0.1066887E+00
         21   -1    0    0  502  501  0.00000000000E+00  0.00000000000E+00  0.15612163560E+03  0.15612163560E+03  0.00000000000E+00 0.  1.
         21   -1    0    0  501  502 -0.00000000000E+00 -0.00000000000E+00 -0.73951837965E+03  0.73951837965E+03  0.00000000000E+00 0.  1.
         25    1    1    2    0    0 -0.95979685450E+02  0.13084637636E+03 -0.30230529093E+03  0.36516621304E+03  0.12500000000E+03 0.  0.
         25    1    1    2    0    0  0.17222881432E+03 -0.15921990150E+03 -0.27315301946E+03  0.38111850329E+03  0.12500000000E+03 0.  0.
         25    1    1    2    0    0 -0.76249128873E+02  0.28373525139E+02 -0.79384336635E+01  0.14935529891E+03  0.12500000000E+03 0.  0.
</event>
<event>
 5    0  0.5728184E-005  0.3097797E+03  0.7546771E-02  0.1080452E+00
         21   -1    0    0  502  501  0.00000000000E+00  0.00000000000E+00  0.71668783867E+02  0.71668783867E+02  0.00000000000E+00 0.  1.
         21   -1    0    0  501  502 -0.00000000000E+00 -0.00000000000E+00 -0.13389855343E+04  0.13389855343E+04  0.00000000000E+00 0.  1.
         25    1    1    2    0    0 -0.56019690167E+02  0.22313684501E+03 -0.44987918552E+03  0.52052333170E+03  0.12500000000E+03 0.  0.
         25    1    1    2    0    0  0.29219831904E+02 -0.11599549098E+03 -0.53317528146E+03  0.56054405114E+03  0.12500000000E+03 0.  0.
         25    1    1    2    0    0  0.26799858263E+02 -0.10714135402E+03 -0.28426228347E+03  0.32958693535E+03  0.12500000000E+03 0.  0.
</event>
<event>
 5    0  0.5728184E-005  0.2738971E+03  0.7546771E-02  0.1099070E+00
         21   -1    0    0  502  501  0.00000000000E+00  0.00000000000E+00  0.25054993265E+03  0.25054993265E+03  0.00000000000E+00 0. -1.
         21   -1    0    0  501  502 -0.00000000000E+00 -0.00000000000E+00 -0.29941989604E+03  0.29941989604E+03  0.00000000000E+00 0. -1.
         25    1    1    2    0    0 -0.54010761924E+02 -0.14433330639E+03  0.22166654682E+01  0.19844187901E+03  0.12500000000E+03 0.  0.
         25    1    1    2    0    0 -0.17327403801E+00  0.15420021519E+03  0.16387088119E+02  0.19917648718E+03  0.12500000000E+03 0.  0.
         25    1    1    2    0    0  0.54184035962E+02 -0.98669087967E+01 -0.67473716984E+02  0.15235146250E+03  0.12500000000E+03 0.  0.
</event>
<event>
 5    0  0.5728184E-005  0.2270568E+03  0.7546771E-02  0.1128729E+00
         21   -1    0    0  502  501  0.00000000000E+00  0.00000000000E+00  0.21878992112E+03  0.21878992112E+03  0.00000000000E+00 0. -1.
         21   -1    0    0  501  502 -0.00000000000E+00 -0.00000000000E+00 -0.23563602149E+03  0.23563602149E+03  0.00000000000E+00 0. -1.
         25    1    1    2    0    0 -0.65132842924E+02 -0.82439289807E+02 -0.47586738623E+02  0.17008239599E+03  0.12500000000E+03 0.  0.
         25    1    1    2    0    0  0.43801041868E+02  0.75610326371E+02 -0.44104732985E+01  0.15257753766E+03  0.12500000000E+03 0.  0.
         25    1    1    2    0    0  0.21331801057E+02  0.68289634361E+01  0.35151111552E+02  0.13176600898E+03  0.12500000000E+03 0.  0.
</event>
<event>
 5    0  0.5728184E-005  0.3009314E+03  0.7546771E-02  0.1084776E+00
         21   -1    0    0  502  501  0.00000000000E+00  0.00000000000E+00  0.15989519137E+03  0.15989519137E+03  0.00000000000E+00 0. -1.
         21   -1    0    0  501  502 -0.00000000000E+00 -0.00000000000E+00 -0.56636935848E+03  0.56636935848E+03  0.00000000000E+00 0. -1.
         25    1    1    2    0    0 -0.38073110839E+02 -0.17308625726E+02 -0.43687848030E+02  0.13886244402E+03  0.12500000000E+03 0.  0.
         25    1    1    2    0    0  0.54269090627E+02 -0.91967339293E+01  0.57224519463E+02  0.14808565001E+03  0.12500000000E+03 0.  0.
         25    1    1    2    0    0 -0.16195979788E+02  0.26505359656E+02 -0.42001083855E+03  0.43931645581E+03  0.12500000000E+03 0.  0.
</event>
<event>
 5    0  0.5728184E-005  0.3604730E+03  0.7546771E-02  0.1058397E+00
         21   -1    0    0  502  501  0.00000000000E+00  0.00000000000E+00  0.23846249849E+03  0.23846249849E+03  0.00000000000E+00 0.  1.
         21   -1    0    0  501  502 -0.00000000000E+00 -0.00000000000E+00 -0.54491074275E+03  0.54491074275E+03  0.00000000000E+00 0.  1.
         25    1    1    2    0    0 -0.12667567843E+03  0.13681944622E+02 -0.39854618057E+03  0.43668979970E+03  0.12500000000E+03 0.  0.
         25    1    1    2    0    0  0.96567035794E+02 -0.83832996537E+02  0.90013092721E+02  0.20020120023E+03  0.12500000000E+03 0.  0.
         25    1    1    2    0    0  0.30108642638E+02  0.70151051916E+02  0.20848435950E+01  0.14648224131E+03  0.12500000000E+03 0.  0.
</event>
<event>
 5    0  0.5728184E-005  0.2665017E+03  0.7546771E-02  0.1103299E+00
         21   -1    0    0  502  501  0.00000000000E+00  0.00000000000E+00  0.10282516716E+04  0.10282516716E+04  0.00000000000E+00 0. -1.
         21   -1    0    0  501  502 -0.00000000000E+00 -0.00000000000E+00 -0.69071761038E+02  0.69071761038E+02  0.00000000000E+00 0. -1.
         25    1    1    2    0    0  0.10494151409E+03 -0.23082833389E+02  0.29369296341E+03  0.33678790853E+03  0.12500000000E+03 0.  0.
         25    1    1    2    0    0  0.26104598735E+02 -0.31993186205E+02  0.47135187239E+03  0.48939003019E+03  0.12500000000E+03 0.  0.
         25    1    1    2    0    0 -0.13104611283E+03  0.55076019594E+02  0.19413507476E+03  0.27114549392E+03  0.12500000000E+03 0.  0.
</event>
<event>
 5    0  0.5728184E-005  0.4144726E+03  0.7546771E-02  0.1038880E+00
         21   -1    0    0  502  501  0.00000000000E+00  0.00000000000E+00  0.29219969530E+03  0.29219969530E+03  0.00000000000E+00 0. -1.
         21   -1    0    0  501  502 -0.00000000000E+00 -0.00000000000E+00 -0.58791151133E+03  0.58791151133E+03  0.00000000000E+00 0. -1.
         25    1    1    2    0    0 -0.39818595964E+02  0.30622848455E+03 -0.69115974220E+01  0.33321790995E+03  0.12500000000E+03 0.  0.
         25    1    1    2    0    0  0.10755236815E+02 -0.19587105486E+03 -0.25661035231E+02  0.23401844795E+03  0.12500000000E+03 0.  0.
         25    1    1    2    0    0  0.29063359150E+02 -0.11035742969E+03 -0.26313918339E+03  0.31287484873E+03  0.12500000000E+03 0.  0.
</event>
<event>
 5    0  0.5882718E-005  0.2813054E+03  0.7546771E-02  0.1094978E+00
         21   -1    0    0  502  501  0.00000000000E+00  0.00000000000E+00  0.16186526038E+03  0.16186526038E+03  0.00000000000E+00 0.  1.
         21   -1    0    0  501  502 -0.00000000000E+00 -0.00000000000E+00 -0.48888034481E+03  0.48888034481E+03  0.00000000000E+00 0.  1.
         25    1    1    2    0    0  0.24983999629E+02 -0.13727082272E+03 -0.21422381650E+03  0.28457744563E+03  0.12500000000E+03 0.  0.
         25    1    1    2    0    0 -0.27560439846E+02  0.18498672773E+02  0.40409023065E+02  0.13549785195E+03  0.12500000000E+03 0.  0.
         25    1    1    2    0    0  0.25764402170E+01  0.11877214994E+03 -0.15320029100E+03  0.23067030760E+03  0.12500000000E+03 0.  0.
</event>
<event>
 5    0  0.5728184E-005  0.3001400E+03  0.7546771E-02  0.1085171E+00
         21   -1    0    0  502  501  0.00000000000E+00  0.00000000000E+00  0.19868623293E+03  0.19868623293E+03  0.00000000000E+00 0.  1.
         21   -1    0    0  501  502 -0.00000000000E+00 -0.00000000000E+00 -0.45339836814E+03  0.45339836814E+03  0.00000000000E+00 0.  1.
         25    1    1    2    0    0  0.78445364338E+02  0.12018591309E+01 -0.25769331103E+03  0.29696121330E+03  0.12500000000E+03 0.  0.
         25    1    1    2    0    0 -0.85672119071E+02  0.46952398452E+02  0.10180511577E+03  0.18850337213E+03  0.12500000000E+03 0.  0.
         25    1    1    2    0    0  0.72267547334E+01 -0.48154257583E+02 -0.98823939946E+02  0.16662001565E+03  0.12500000000E+03 0.  0.
</event>
<event>
 5    0  0.5728184E-005  0.2646297E+03  0.7546771E-02  0.1104393E+00
         21   -1    0    0  502  501  0.00000000000E+00  0.00000000000E+00  0.42710974855E+03  0.42710974855E+03  0.00000000000E+00 0. -1.
         21   -1    0    0  501  502 -0.00000000000E+00 -0.00000000000E+00 -0.16395986184E+03  0.16395986184E+03  0.00000000000E+00 0. -1.
         25    1    1    2    0    0  0.10042745741E+02  0.14888641310E+03  0.87957242258E+02  0.21361062055E+03  0.12500000000E+03 0.  0.
         25    1    1    2    0    0 -0.79008893316E+02 -0.10891098815E+03  0.11939085636E+03  0.21905064516E+03  0.12500000000E+03 0.  0.
         25    1    1    2    0    0  0.68966147575E+02 -0.39975424942E+02  0.55801788091E+02  0.15840834468E+03  0.12500000000E+03 0.  0.
</event>
<event>
 5    0  0.5728184E-005  0.3122494E+03  0.7546771E-02  0.1079273E+00
         21   -1    0    0  502  501  0.00000000000E+00  0.00000000000E+00  0.67065886454E+03  0.67065886454E+03  0.00000000000E+00 0. -1.
         21   -1    0    0  501  502 -0.00000000000E+00 -0.00000000000E+00 -0.14537892443E+03  0.14537892443E+03  0.00000000000E+00 0. -1.
         25    1    1    2    0    0  0.13573302072E+03  0.56350196694E+02  0.28751796557E+03  0.34625189979E+03  0.12500000000E+03 0.  0.
         25    1    1    2    0    0 -0.44368767089E+02  0.10752679716E+03  0.54470011186E+02  0.17922773702E+03  0.12500000000E+03 0.  0.
         25    1    1    2    0    0 -0.91364253635E+02 -0.16387699385E+03  0.18329196335E+03  0.29055815216E+03  0.12500000000E+03 0.  0.
</event>
<event>
 5    0  0.6075884E-005  0.3577062E+03  0.7546771E-02  0.1059496E+00
         21   -1    0    0  502  501  0.00000000000E+00  0.00000000000E+00  0.17484107322E+03  0.17484107322E+03  0.00000000000E+00 0.  1.
         21   -1    0    0  501  502 -0.00000000000E+00 -0.00000000000E+00 -0.73182876112E+03  0.73182876112E+03  0.00000000000E+00 0.  1.
         25    1    1    2    0    0 -0.14390067176E+03  0.20260228823E+03 -0.25300637469E+03  0.37602169640E+03  0.12500000000E+03 0.  0.
         25    1    1    2    0    0 -0.38659617873E+02 -0.16484745824E+03 -0.14361843793E+03  0.25479502793E+03  0.12500000000E+03 0.  0.
         25    1    1    2    0    0  0.18256028963E+03 -0.37754829983E+02 -0.16036287528E+03  0.27585311002E+03  0.12500000000E+03 0.  0.
</event>
<event>
 5    0  0.5728184E-005  0.4051966E+03  0.7546771E-02  0.1041995E+00
         21   -1    0    0  502  501  0.00000000000E+00  0.00000000000E+00  0.24108061544E+04  0.24108061544E+04  0.00000000000E+00 0.  1.
         21   -1    0    0  501  502 -0.00000000000E+00 -0.00000000000E+00 -0.68103473199E+02  0.68103473199E+02  0.00000000000E+00 0.  1.
         25    1    1    2    0    0  0.15158368310E+03 -0.11641288917E+03  0.12302159575E+04  0.12512337415E+04  0.12500000000E+03 0.  0.
         25    1    1    2    0    0 -0.26750723404E+03  0.12406777651E+03  0.51652792645E+03  0.60776560633E+03  0.12500000000E+03 0.  0.
         25    1    1    2    0    0  0.11592355094E+03 -0.76548873331E+01  0.59595879726E+03  0.61991027980E+03  0.12500000000E+03 0.  0.
</event>
<event>
 5    0  0.5728184E-005  0.2218232E+03  0.7546771E-02  0.1132531E+00
         21   -1    0    0  502  501  0.00000000000E+00  0.00000000000E+00  0.58303891654E+03  0.58303891654E+03  0.00000000000E+00 0.  1.
         21   -1    0    0  501  502 -0.00000000000E+00 -0.00000000000E+00 -0.84394905650E+02  0.84394905650E+02  0.00000000000E+00 0.  1.
         25    1    1    2    0    0 -0.21085049647E+02 -0.54860496044E+02  0.13568878849E+03  0.19362515505E+03  0.12500000000E+03 0.  0.
         25    1    1    2    0    0  0.78017024592E+02  0.70566856164E+01  0.11788780946E+03  0.18883587730E+03  0.12500000000E+03 0.  0.
         25    1    1    2    0    0 -0.56931974945E+02  0.47803810428E+02  0.24506741294E+03  0.28497278984E+03  0.12500000000E+03 0.  0.
</event>
<event>
 5    0  0.5728184E-005  0.3507533E+03  0.7546771E-02  0.1062306E+00
         21   -1    0    0  502  501  0.00000000000E+00  0.00000000000E+00  0.16410892558E+04  0.16410892558E+04  0.00000000000E+00 0. -1.
         21   -1    0    0  501  502 -0.00000000000E+00 -0.00000000000E+00 -0.74967225671E+02  0.74967225671E+02  0.00000000000E+00 0.  1.
         25    1    1    2    0    0  0.11266762567E+03 -0.12175125642E+03  0.22866791022E+03  0.30891969099E+03  0.12500000000E+03 0.  0.
         25    1    1    2    0    0 -0.21828858915E+03  0.42547832297E+02  0.81024980580E+03  0.84946452191E+03  0.12500000000E+03 0.  0.
         25    1    1    2    0    0  0.10562096348E+03  0.79203424125E+02  0.52720431406E+03  0.55767226853E+03  0.12500000000E+03 0.  0.
</event>
<event>
 5    0  0.5728184E-005  0.2152320E+03  0.7546771E-02  0.1137488E+00
         21   -1    0    0  502  501  0.00000000000E+00  0.00000000000E+00  0.22562557230E+04  0.22562557230E+04  0.00000000000E+00 0. -1.
         21   -1    0    0  501  502 -0.00000000000E+00 -0.00000000000E+00 -0.20531727842E+02  0.20531727842E+02  0.00000000000E+00 0. -1.
         25    1    1    2    0    0  0.16536095442E+02 -0.77105212219E+02  0.54281632358E+03  0.56257729900E+03  0.12500000000E+03 0.  0.
         25    1    1    2    0    0  0.16277336579E+02  0.33903803479E+02  0.94754815901E+03  0.95649722071E+03  0.12500000000E+03 0.  0.
         25    1    1    2    0    0 -0.32813432021E+02  0.43201408740E+02  0.74535951262E+03  0.75771293118E+03  0.12500000000E+03 0.  0.
</event>
<event>
 5    0  0.5728184E-005  0.2449255E+03  0.7546771E-02  0.1116554E+00
         21   -1    0    0  502  501  0.00000000000E+00  0.00000000000E+00  0.61333564724E+03  0.61333564724E+03  0.00000000000E+00 0. -1.
         21   -1    0    0  501  502 -0.00000000000E+00 -0.00000000000E+00 -0.97806990667E+02  0.97806990667E+02  0.00000000000E+00 0. -1.
         25    1    1    2    0    0  0.11149669453E+03 -0.43463588849E+02  0.22729294408E+03  0.28567057754E+03  0.12500000000E+03 0.  0.
         25    1    1    2    0    0 -0.10671539703E+03 -0.14447359157E+02  0.20969185400E+03  0.26681936921E+03  0.12500000000E+03 0.  0.
         25    1    1    2    0    0 -0.47812974972E+01  0.57910948006E+02  0.78543858498E+02  0.15865269116E+03  0.12500000000E+03 0.  0.
</event>
<event>
 5    0  0.5728184E-005  0.7076071E+03  0.7546771E-02  0.9704311E-01
         21   -1    0    0  502  501  0.00000000000E+00  0.00000000000E+00  0.73017882810E+03  0.73017882810E+03  0.00000000000E+00 0. -1.
         21   -1    0    0  501  502 -0.00000000000E+00 -0.00000000000E+00 -0.68573315363E+03  0.68573315363E+03  0.00000000000E+00 0. -1.
         25    1    1    2    0    0  0.58943047064E+03 -0.28418877766E+03 -0.10982065764E+03  0.67518672818E+03  0.12500000000E+03 0.  0.
         25    1    1    2    0    0 -0.23264230862E+03  0.19931719364E+03  0.23141840748E+02  0.33167805510E+03  0.12500000000E+03 0.  0.
         25    1    1    2    0    0 -0.35678816202E+03  0.84871584018E+02  0.13112449136E+03  0.40904719846E+03  0.12500000000E+03 0.  0.
</event>
<event>
 5    0  0.5728184E-005  0.2728801E+03  0.7546771E-02  0.1099642E+00
         21   -1    0    0  502  501  0.00000000000E+00  0.00000000000E+00  0.10586931777E+03  0.10586931777E+03  0.00000000000E+00 0.  1.
         21   -1    0    0  501  502 -0.00000000000E+00 -0.00000000000E+00 -0.70335326475E+03  0.70335326475E+03  0.00000000000E+00 0.  1.
         25    1    1    2    0    0  0.13224357920E+02 -0.61366810133E+02 -0.36598494030E+02  0.14458637140E+03  0.12500000000E+03 0.  0.
         25    1    1    2    0    0  0.82354249042E+02 -0.48925261487E+02 -0.31863120281E+03  0.35542474161E+03  0.12500000000E+03 0.  0.
         25    1    1    2    0    0 -0.95578606963E+02  0.11029207162E+03 -0.24225425014E+03  0.30921146952E+03  0.12500000000E+03 0.  0.
</event>
<event>
 5    0  0.5912075E-005  0.3561277E+03  0.7546771E-02  0.1060128E+00
         21   -1    0    0  502  501  0.00000000000E+00  0.00000000000E+00  0.85063462986E+03  0.85063462986E+03  0.00000000000E+00 0.  1.
         21   -1    0    0  501  502 -0.00000000000E+00 -0.00000000000E+00 -0.14909682944E+03  0.14909682944E+03  0.00000000000E+00 0.  1.
         25    1    1    2    0    0  0.14578031973E+03 -0.13197465241E+03  0.53639320063E+02  0.23910538922E+03  0.12500000000E+03 0.  0.
         25    1    1    2    0    0 -0.21095677855E+02  0.46512444692E+02  0.49163237181E+03  0.50983901788E+03  0.12500000000E+03 0.  0.
         25    1    1    2    0    0 -0.12468464188E+03  0.85462207717E+02  0.15626610855E+03  0.25078705219E+03  0.12500000000E+03 0.  0.
</event>
<event>
 5    0  0.5728184E-005  0.2562179E+03  0.7546771E-02  0.1109437E+00
         21   -1    0    0  502  501  0.00000000000E+00  0.00000000000E+00  0.27861572913E+03  0.27861572913E+03  0.00000000000E+00 0. -1.
         21   -1    0    0  501  502 -0.00000000000E+00 -0.00000000000E+00 -0.23562058015E+03  0.23562058015E+03  0.00000000000E+00 0. -1.
         25    1    1    2    0    0  0.91060693294E+02  0.16761974744E+02  0.54388749145E+02  0.16479123063E+03  0.12500000000E+03 0.  0.
         25    1    1    2    0    0 -0.14168103500E+03  0.63050253671E+01  0.55672218488E+02  0.19707274021E+03  0.12500000000E+03 0.  0.
         25    1    1    2    0    0  0.50620341703E+02 -0.23067000111E+02 -0.67065818652E+02  0.15237233843E+03  0.12500000000E+03 0.  0.
</event>
<event>
 5    0  0.6963134E-005  0.3279879E+03  0.7546771E-02  0.1072031E+00
         21   -1    0    0  502  501  0.00000000000E+00  0.00000000000E+00  0.59892606762E+03  0.59892606762E+03  0.00000000000E+00 0. -1.
         21   -1    0    0  501  502 -0.00000000000E+00 -0.00000000000E+00 -0.17961488788E+03  0.17961488788E+03  0.00000000000E+00 0. -1.
         25    1    1    2    0    0 -0.14967091464E+03  0.32964876215E+02  0.17108504753E+03  0.26150173851E+03  0.12500000000E+03 0.  0.
         25    1    1    2    0    0  0.39627101268E+02  0.10482027328E+03  0.24970120484E+03  0.30088750148E+03  0.12500000000E+03 0.  0.
         25    1    1    2    0    0  0.11004381337E+03 -0.13778514949E+03 -0.14750726384E+01  0.21615171552E+03  0.12500000000E+03 0.  0.
</event>
<event>
 5    0  0.5728184E-005  0.3552668E+03  0.7546771E-02  0.1060474E+00
         21   -1    0    0  502  501  0.00000000000E+00  0.00000000000E+00  0.75718171696E+03  0.75718171696E+03  0.00000000000E+00 0. -1.
         21   -1    0    0  501  502 -0.00000000000E+00 -0.00000000000E+00 -0.16668982444E+03  0.16668982444E+03  0.00000000000E+00 0. -1.
         25    1    1    2    0    0 -0.14189301115E+03  0.17837835621E+03  0.37028161747E+03  0.45242230362E+03  0.12500000000E+03 0.  0.
         25    1    1    2    0    0  0.47185570568E+02  0.34043983555E+02  0.18367222649E+02  0.13909646205E+03  0.12500000000E+03 0.  0.
         25    1    1    2    0    0  0.94707440579E+02 -0.21242233976E+03  0.20184305240E+03  0.33235277573E+03  0.12500000000E+03 0.  0.
</event>
<event>
 5    0  0.5728184E-005  0.4079306E+03  0.7546771E-02  0.1041068E+00
         21   -1    0    0  502  501  0.00000000000E+00  0.00000000000E+00  0.27774592640E+04  0.27774592640E+04  0.00000000000E+00 0.  1.
         21   -1    0    0  501  502 -0.00000000000E+00 -0.00000000000E+00 -0.59913524472E+02  0.59913524472E+02  0.00000000000E+00 0.  1.
         25    1    1    2    0    0  0.31593177156E+03 -0.11328837243E+03  0.14058666988E+04  0.14507699040E+04  0.12500000000E+03 0.  0.
         25    1    1    2    0    0 -0.93994451760E+02  0.39757918626E+01  0.66255851773E+03  0.68077863751E+03  0.12500000000E+03 0.  0.
         25    1    1    2    0    0 -0.22193731980E+03  0.10931258057E+03  0.64912052304E+03  0.70582424697E+03  0.12500000000E+03 0.  0.
</event>
<event>
 5    0  0.5927364E-005  0.3103752E+03  0.7546771E-02  0.1080166E+00
         21   -1    0    0  502  501  0.00000000000E+00  0.00000000000E+00  0.91995887055E+02  0.91995887055E+02  0.00000000000E+00 0.  1.
         21   -1    0    0  501  502 -0.00000000000E+00 -0.00000000000E+00 -0.10471422002E+04  0.10471422002E+04  0.00000000000E+00 0.  1.
         25    1    1    2    0    0 -0.71873961539E+02  0.17770294093E+02 -0.56447954217E+02  0.15586218667E+03  0.12500000000E+03 0.  0.
         25    1    1    2    0    0  0.17439213592E+03 -0.34444522505E+02 -0.65709674167E+03  0.69209838181E+03  0.12500000000E+03 0.  0.
         25    1    1    2    0    0 -0.10251817439E+03  0.16674228412E+02 -0.24160161728E+03  0.29117751878E+03  0.12500000000E+03 0.  0.
</event>
<event>
 5    0  0.5728184E-005  0.3114760E+03  0.7546771E-02  0.1079641E+00
         21   -1    0    0  502  501  0.00000000000E+00  0.00000000000E+00  0.17488818744E+03  0.17488818744E+03  0.00000000000E+00 0. -1.
         21   -1    0    0  501  502 -0.00000000000E+00 -0.00000000000E+00 -0.55473892407E+03  0.55473892407E+03  0.00000000000E+00 0. -1.
         25    1    1    2    0    0 -0.32824312315E+02  0.14381406577E+03 -0.14496739799E+03  0.24166188668E+03  0.12500000000E+03 0.  0.
         25    1    1    2    0    0 -0.72849831733E+02 -0.12718563381E+03  0.10058329248E+02  0.19289752051E+03  0.12500000000E+03 0.  0.
         25    1    1    2    0    0  0.10567414405E+03 -0.16628431953E+02 -0.24494166788E+03  0.29506770432E+03  0.12500000000E+03 0.  0.
</event>
<event>
 5    0  0.5728184E-005  0.5458269E+03  0.7546771E-02  0.1002464E+00
         21   -1    0    0  502  501  0.00000000000E+00  0.00000000000E+00  0.84955735027E+03  0.84955735027E+03  0.00000000000E+00 0. -1.
         21   -1    0    0  501  502 -0.00000000000E+00 -0.00000000000E+00 -0.35068497580E+03  0.35068497580E+03  0.00000000000E+00 0. -1.
         25    1    1    2    0    0  0.20284001192E+03 -0.78839471687E+02  0.23529513165E+03  0.34401821421E+03  0.12500000000E+03 0.  0.
         25    1    1    2    0    0 -0.47801201192E+03 -0.15281172224E+02  0.12024367688E+03  0.50873621809E+03  0.12500000000E+03 0.  0.
         25    1    1    2    0    0  0.27517200000E+03  0.94120643912E+02  0.14333356594E+03  0.34748789377E+03  0.12500000000E+03 0.  0.
</event>
<event>
 5    0  0.5728184E-005  0.2687078E+03  0.7546771E-02  0.1102021E+00
         21   -1    0    0  502  501  0.00000000000E+00  0.00000000000E+00  0.43962814121E+03  0.43962814121E+03  0.00000000000E+00 0.  1.
         21   -1    0    0  501  502 -0.00000000000E+00 -0.00000000000E+00 -0.16423857285E+03  0.16423857285E+03  0.00000000000E+00 0.  1.
         25    1    1    2    0    0  0.47103389431E+00 -0.67524541234E+02 -0.32473461646E+02  0.14573713066E+03  0.12500000000E+03 0.  0.
         25    1    1    2    0    0 -0.12803672304E+02 -0.65791622012E+02  0.20120166551E+03  0.24616982300E+03  0.12500000000E+03 0.  0.
         25    1    1    2    0    0  0.12332638409E+02  0.13331616325E+03  0.10666136450E+03  0.21195976040E+03  0.12500000000E+03 0.  0.
</event>
<event>
 5    0  0.5728184E-005  0.2358775E+03  0.7546771E-02  0.1122570E+00
         21   -1    0    0  502  501  0.00000000000E+00  0.00000000000E+00  0.34294229835E+03  0.34294229835E+03  0.00000000000E+00 0.  1.
         21   -1    0    0  501  502 -0.00000000000E+00 -0.00000000000E+00 -0.16223779079E+03  0.16223779079E+03  0.00000000000E+00 0.  1.
         25    1    1    2    0    0  0.76811366686E+02  0.20891175725E+02  0.87388818119E+02  0.17204136947E+03  0.12500000000E+03 0.  0.
         25    1    1    2    0    0 -0.11551270119E+03 -0.58958203399E+02  0.76984902084E+02  0.19588498930E+03  0.12500000000E+03 0.  0.
         25    1    1    2    0    0  0.38701334502E+02  0.38067027674E+02  0.16330787354E+02  0.13725373038E+03  0.12500000000E+03 0.  0.
</event>
<event>
 5    0  0.5728184E-005  0.2594337E+03  0.7546771E-02  0.1107484E+00
         21   -1    0    0  502  501  0.00000000000E+00  0.00000000000E+00  0.69536319256E+03  0.69536319256E+03  0.00000000000E+00 0. -1.
         21   -1    0    0  501  502 -0.00000000000E+00 -0.00000000000E+00 -0.96792346387E+02  0.96792346387E+02  0.00000000000E+00 0. -1.
         25    1    1    2    0    0  0.18381615154E+02  0.10608177284E+03  0.14785813553E+03  0.22153612470E+03  0.12500000000E+03 0.  0.
         25    1    1    2    0    0 -0.63985442683E+02  0.45512571461E+02  0.20744720229E+03  0.25460729128E+03  0.12500000000E+03 0.  0.
         25    1    1    2    0    0  0.45603827528E+02 -0.15159434430E+03  0.24326550835E+03  0.31601212297E+03  0.12500000000E+03 0.  0.
</event>
<event>
 5    0  0.5728184E-005  0.2515800E+03  0.7546771E-02  0.1112310E+00
         21   -1    0    0  502  501  0.00000000000E+00  0.00000000000E+00  0.74602014079E+03  0.74602014079E+03  0.00000000000E+00 0. -1.
         21   -1    0    0  501  502 -0.00000000000E+00 -0.00000000000E+00 -0.84840199697E+02  0.84840199697E+02  0.00000000000E+00 0. -1.
         25    1    1    2    0    0 -0.53489867305E+00 -0.83902831626E+02  0.10264892378E+03  0.18221353634E+03  0.12500000000E+03 0.  0.
         25    1    1    2    0    0 -0.47901923299E+02  0.13006466637E+03  0.28751634118E+03  0.34278573211E+03  0.12500000000E+03 0.  0.
         25    1    1    2    0    0  0.48436821972E+02 -0.46161834739E+02  0.27101467613E+03  0.30586107204E+03  0.12500000000E+03 0.  0.
</event>
<event>
 5    0  0.5728184E-005  0.2826059E+03  0.7546771E-02  0.1094274E+00
         21   -1    0    0  502  501  0.00000000000E+00  0.00000000000E+00  0.29314112572E+04  0.29314112572E+04  0.00000000000E+00 0.  1.
         21   -1    0    0  501  502 -0.00000000000E+00 -0.00000000000E+00 -0.27244936070E+02  0.27244936070E+02  0.00000000000E+00 0.  1.
         25    1    1    2    0    0  0.15189099435E+03 -0.54280994025E+02  0.14376995647E+04  0.14521096166E+04  0.12500000000E+03 0.  0.
         25    1    1    2    0    0 -0.11567512380E+03  0.38704941099E+02  0.11621986329E+04  0.11752486839E+04  0.12500000000E+03 0.  0.
         25    1    1    2    0    0 -0.36215870548E+02  0.15576052926E+02  0.30426812356E+03  0.33129789271E+03  0.12500000000E+03 0.  0.
</event>
<event>
 5    0  0.5728184E-005  0.2602117E+03  0.7546771E-02  0.1107016E+00
         21   -1    0    0  502  501  0.00000000000E+00  0.00000000000E+00  0.31700276959E+02  0.31700276959E+02  0.00000000000E+00 0. -1.
         21   -1    0    0  501  502 -0.00000000000E+00 -0.00000000000E+00 -0.21359473576E+04  0.21359473576E+04  0.00000000000E+00 0. -1.
         25    1    1    2    0    0  0.41688907863E-02  0.36426748798E+02 -0.50527850043E+03  0.52178373973E+03  0.12500000000E+03 0.  0.
         25    1    1    2    0    0 -0.12211018448E+03  0.55846680189E+02 -0.94702140404E+03  0.96462650210E+03  0.12500000000E+03 0.  0.
         25    1    1    2    0    0  0.12210601559E+03 -0.92273428988E+02 -0.65194717613E+03  0.68123739269E+03  0.12500000000E+03 0.  0.
</event>
<event>
 5    0  0.5728184E-005  0.3385064E+03  0.7546771E-02  0.1067434E+00
         21   -1    0    0  502  501  0.00000000000E+00  0.00000000000E+00  0.25508683651E+03  0.25508683651E+03  0.00000000000E+00 0.  1.
         21   -1    0    0  501  502 -0.00000000000E+00 -0.00000000000E+00 -0.44920623911E+03  0.44920623911E+03  0.00000000000E+00 0.  1.
         25    1    1    2    0    0 -0.33593825716E+02 -0.22050268984E+03 -0.12956354448E+03  0.28663861117E+03  0.12500000000E+03 0.  0.
         25    1    1    2    0    0  0.24464985518E+01  0.19378705127E+03 -0.13621529289E+03  0.26784139451E+03  0.12500000000E+03 0.  0.
         25    1    1    2    0    0  0.31147327164E+02  0.26715638572E+02  0.71659434768E+02  0.14981306994E+03  0.12500000000E+03 0.  0.
</event>
<event>
 5    0  0.5728184E-005  0.2511899E+03  0.7546771E-02  0.1112555E+00
         21   -1    0    0  502  501  0.00000000000E+00  0.00000000000E+00  0.61292613175E+02  0.61292613175E+02  0.00000000000E+00 0.  1.
         21   -1    0    0  501  502 -0.00000000000E+00 -0.00000000000E+00 -0.10294285531E+04  0.10294285531E+04  0.00000000000E+00 0.  1.
         25    1    1    2    0    0 -0.18928966525E+02 -0.37120210995E+02 -0.19598174047E+03  0.23615685134E+03  0.12500000000E+03 0.  0.
         25    1    1    2    0    0 -0.14304256980E+02 -0.52333557973E+02 -0.11334152269E+03  0.17724196406E+03  0.12500000000E+03 0.  0.
         25    1    1    2    0    0  0.33233223505E+02  0.89453768968E+02 -0.65881267676E+03  0.67732235087E+03  0.12500000000E+03 0.  0.
</event>
<event>
 5    0  0.5728184E-005  0.2814467E+03  0.7546771E-02  0.1094901E+00
         21   -1    0    0  502  501  0.00000000000E+00  0.00000000000E+00  0.36310993656E+03  0.36310993656E+03  0.00000000000E+00 0.  1.
         21   -1    0    0  501  502 -0.00000000000E+00 -0.00000000000E+00 -0.21814941567E+03  0.21814941567E+03  0.00000000000E+00 0.  1.
         25    1    1    2    0    0  0.15318679288E+02 -0.67609957606E+02  0.48217642520E+02  0.15084995642E+03  0.12500000000E+03 0.  0.
         25    1    1    2    0    0 -0.13614500745E+03 -0.66624531758E+02  0.72566482671E+02  0.20944017211E+03  0.12500000000E+03 0.  0.
         25    1    1    2    0    0  0.12082632817E+03  0.13423448936E+03  0.24176395705E+02  0.22096922370E+03  0.12500000000E+03 0.  0.
</event>
<event>
 5    0  0.5728184E-005  0.2952324E+03  0.7546771E-02  0.1087648E+00
         21   -1    0    0  502  501  0.00000000000E+00  0.00000000000E+00  0.81540607740E+02  0.81540607740E+02  0.00000000000E+00 0.  1.
         21   -1    0    0  501  502 -0.00000000000E+00 -0.00000000000E+00 -0.10689415531E+04  0.10689415531E+04  0.00000000000E+00 0.  1.
         25    1    1    2    0    0 -0.10980277750E+03  0.18592284551E+03 -0.47955731799E+03  0.54057763149E+03  0.12500000000E+03 0.  0.
         25    1    1    2    0    0  0.20605767278E+02 -0.74153137228E+02 -0.19797499921E+03  0.24645970405E+03  0.12500000000E+03 0.  0.
         25    1    1    2    0    0  0.89197010222E+02 -0.11176970828E+03 -0.30986862815E+03  0.36344482530E+03  0.12500000000E+03 0.  0.
</event>
<event>
 5    0  0.5728184E-005  0.3723982E+03  0.7546771E-02  0.1053780E+00
         21   -1    0    0  502  501  0.00000000000E+00  0.00000000000E+00  0.40694983985E+03  0.40694983985E+03  0.00000000000E+00 0.  1.
         21   -1    0    0  501  502 -0.00000000000E+00 -0.00000000000E+00 -0.34078018827E+03  0.34078018827E+03  0.00000000000E+00 0.  1.
         25    1    1    2    0    0 -0.60604831088E+02 -0.24009444446E+03  0.41901947757E+02  0.28053352926E+03  0.12500000000E+03 0.  0.
         25    1    1    2    0    0 -0.29141823463E+02  0.27875166727E+03  0.13358133119E+01  0.30688519397E+03  0.12500000000E+03 0.  0.
         25    1    1    2    0    0  0.89746654552E+02 -0.38657222809E+02  0.22931890511E+02  0.16031130491E+03  0.12500000000E+03 0.  0.
</event>
<event>
 5    0  0.5728184E-005  0.6575655E+03  0.7546771E-02  0.9792686E-01
         21   -1    0    0  502  501  0.00000000000E+00  0.00000000000E+00  0.39647704721E+03  0.39647704721E+03  0.00000000000E+00 0. -1.
         21   -1    0    0  501  502 -0.00000000000E+00 -0.00000000000E+00 -0.10905860801E+04  0.10905860801E+04  0.00000000000E+00 0. -1.
         25    1    1    2    0    0  0.43524900637E+02  0.50999197558E+02 -0.29368828914E+03  0.32614896337E+03  0.12500000000E+03 0.  0.
         25    1    1    2    0    0  0.45740417900E+03  0.12834882165E+01 -0.43140745184E+03  0.64105976306E+03  0.12500000000E+03 0.  0.
         25    1    1    2    0    0 -0.50092907964E+03 -0.52282685775E+02  0.30986708060E+02  0.51985440090E+03  0.12500000000E+03 0.  0.
</event>
<event>
 5    0  0.5728184E-005  0.2617332E+03  0.7546771E-02  0.1106106E+00
         21   -1    0    0  502  501  0.00000000000E+00  0.00000000000E+00  0.45479875076E+03  0.45479875076E+03  0.00000000000E+00 0. -1.
         21   -1    0    0  501  502 -0.00000000000E+00 -0.00000000000E+00 -0.15062547338E+03  0.15062547338E+03  0.00000000000E+00 0. -1.
         25    1    1    2    0    0  0.57525543454E+02  0.99751270718E+02  0.14702212653E+03  0.22472207246E+03  0.12500000000E+03 0.  0.
         25    1    1    2    0    0  0.48253071808E+02  0.22803504550E+02  0.98724145998E+02  0.16798754645E+03  0.12500000000E+03 0.  0.
         25    1    1    2    0    0 -0.10577861526E+03 -0.12255477527E+03  0.58427004848E+02  0.21271460524E+03  0.12500000000E+03 0.  0.
</event>
<event>
 5    0  0.5728184E-005  0.4722901E+03  0.7546771E-02  0.1021276E+00
         21   -1    0    0  502  501  0.00000000000E+00  0.00000000000E+00  0.94202371527E+03  0.94202371527E+03  0.00000000000E+00 0.  1.
         21   -1    0    0  501  502 -0.00000000000E+00 -0.00000000000E+00 -0.23678587863E+03  0.23678587863E+03  0.00000000000E+00 0.  1.
         25    1    1    2    0    0 -0.72464749617E+02  0.68749782557E+02 -0.66549311614E+02  0.17329594172E+03  0.12500000000E+03 0.  0.
         25    1    1    2    0    0 -0.65794985016E+02  0.23595854374E+03  0.43463090100E+03  0.51432911110E+03  0.12500000000E+03 0.  0.
         25    1    1    2    0    0  0.13825973463E+03 -0.30470832630E+03  0.33715624726E+03  0.49118454109E+03  0.12500000000E+03 0.  0.
</event>
<event>
 5    0  0.5728184E-005  0.5414059E+03  0.7546771E-02  0.1003503E+00
         21   -1    0    0  502  501  0.00000000000E+00  0.00000000000E+00  0.28627495141E+03  0.28627495141E+03  0.00000000000E+00 0. -1.
         21   -1    0    0  501  502 -0.00000000000E+00 -0.00000000000E+00 -0.10239118475E+04  0.10239118475E+04  0.00000000000E+00 0. -1.
         25    1    1    2    0    0  0.40427727070E+03  0.10061122786E+03 -0.24192294352E+03  0.49770919359E+03  0.12500000000E+03 0.  0.
         25    1    1    2    0    0 -0.27743278073E+03 -0.16325486813E+03 -0.51782413480E+03  0.62240496011E+03  0.12500000000E+03 0.  0.
         25    1    1    2    0    0 -0.12684448997E+03  0.62643640271E+02  0.22110182223E+02  0.19007264522E+03  0.12500000000E+03 0.  0.
</event>
<event>
 5    0  0.5728184E-005  0.4098127E+03  0.7546771E-02  0.1040434E+00
         21   -1    0    0  502  501  0.00000000000E+00  0.00000000000E+00  0.25095173244E+03  0.25095173244E+03  0.00000000000E+00 0.  1.
         21   -1    0    0  501  502 -0.00000000000E+00 -0.00000000000E+00 -0.66923802515E+03  0.66923802515E+03  0.00000000000E+00 0.  1.
         25    1    1    2    0    0 -0.26268848925E+03  0.15752786813E+03 -0.34064410973E+03  0.47485121998E+03  0.12500000000E+03 0.  0.
         25    1    1    2    0    0  0.11271765005E+03 -0.13803389028E+03  0.32879275891E+02  0.22014692885E+03  0.12500000000E+03 0.  0.
         25    1    1    2    0    0  0.14997083920E+03 -0.19493977857E+02 -0.11052145888E+03  0.22519160876E+03  0.12500000000E+03 0.  0.
</event>
<event>
 5    0  0.5728184E-005  0.2806423E+03  0.7546771E-02  0.1095339E+00
         21   -1    0    0  502  501  0.00000000000E+00  0.00000000000E+00  0.96694370841E+03  0.96694370841E+03  0.00000000000E+00 0.  1.
         21   -1    0    0  501  502 -0.00000000000E+00 -0.00000000000E+00 -0.81452603754E+02  0.81452603754E+02  0.00000000000E+00 0.  1.
         25    1    1    2    0    0  0.13263559995E+03 -0.71159995142E+02  0.44574196883E+03  0.48679240962E+03  0.12500000000E+03 0.  0.
         25    1    1    2    0    0  0.10788830914E+01  0.48210731671E+02  0.30507973458E+03  0.33320276572E+03  0.12500000000E+03 0.  0.
         25    1    1    2    0    0 -0.13371448304E+03  0.22949263470E+02  0.13466940124E+03  0.22840113682E+03  0.12500000000E+03 0.  0.
</event>
<event>
 5    0  0.5728184E-005  0.2234935E+03  0.7546771E-02  0.1131305E+00
         21   -1    0    0  502  501  0.00000000000E+00  0.00000000000E+00  0.46946428321E+03  0.46946428321E+03  0.00000000000E+00 0. -1.
         21   -1    0    0  501  502 -0.00000000000E+00 -0.00000000000E+00 -0.10639646543E+03  0.10639646543E+03  0.00000000000E+00 0. -1.
         25    1    1    2    0    0  0.52743219140E+02  0.27828416561E+02  0.12369118698E+03  0.18569000423E+03  0.12500000000E+03 0.  0.
         25    1    1    2    0    0 -0.11116861476E+03 -0.27540126856E+00  0.12450990603E+03  0.20853357872E+03  0.12500000000E+03 0.  0.
         25    1    1    2    0    0  0.58425395617E+02 -0.27553015292E+02  0.11486672477E+03  0.18163716570E+03  0.12500000000E+03 0.  0.
</event>
<event>
 5    0  0.5728184E-005  0.3196739E+03  0.7546771E-02  0.1075799E+00
         21   -1    0    0  502  501  0.00000000000E+00  0.00000000000E+00  0.29588445124E+03  0.29588445124E+03  0.00000000000E+00 0. -1.
         21   -1    0    0  501  502 -0.00000000000E+00 -0.00000000000E+00 -0.34537599106E+03  0.34537599106E+03  0.00000000000E+00 0. -1.
         25    1    1    2    0    0 -0.78997328158E+01 -0.52532281325E+01 -0.22573819577E+03  0.25821064117E+03  0.12500000000E+03 0.  0.
         25    1    1    2    0    0 -0.86390674287E+02  0.21787467154E+02  0.16475932032E+03  0.22518586980E+03  0.12500000000E+03 0.  0.
         25    1    1    2    0    0  0.94290407103E+02 -0.16534239021E+02  0.11487335642E+02  0.15786393132E+03  0.12500000000E+03 0.  0.
</event>
<event>
 5    0  0.5728184E-005  0.4614303E+03  0.7546771E-02  0.1024367E+00
         21   -1    0    0  502  501  0.00000000000E+00  0.00000000000E+00  0.12711517743E+03  0.12711517743E+03  0.00000000000E+00 0.  1.
         21   -1    0    0  501  502 -0.00000000000E+00 -0.00000000000E+00 -0.16750002580E+04  0.16750002580E+04  0.00000000000E+00 0.  1.
         25    1    1    2    0    0 -0.13113537040E+03  0.14882314425E+03 -0.35817100338E+03  0.42808443244E+03  0.12500000000E+03 0.  0.
         25    1    1    2    0    0  0.31813003016E+03 -0.14456522030E+03 -0.10388805168E+04  0.11031788373E+04  0.12500000000E+03 0.  0.
         25    1    1    2    0    0 -0.18699465976E+03 -0.42579239547E+01 -0.15083356045E+03  0.27085216568E+03  0.12500000000E+03 0.  0.
</event>
<event>
 5    0  0.7467627E-005  0.2946327E+03  0.7546771E-02  0.1087955E+00
         21   -1    0    0  502  501  0.00000000000E+00  0.00000000000E+00  0.25664868421E+03  0.25664868421E+03  0.00000000000E+00 0. -1.
         21   -1    0    0  501  502 -0.00000000000E+00 -0.00000000000E+00 -0.33823843531E+03  0.33823843531E+03  0.00000000000E+00 0. -1.
         25    1    1    2    0    0  0.71679992191E+02 -0.40517937217E+02  0.70173694899E+02  0.16531506880E+03  0.12500000000E+03 0.  0.
         25    1    1    2    0    0 -0.14990751288E+03 -0.78428916010E+02 -0.10151619069E+03  0.23356775089E+03  0.12500000000E+03 0.  0.
         25    1    1    2    0    0  0.78227520689E+02  0.11894685323E+03 -0.50247255311E+02  0.19600429983E+03  0.12500000000E+03 0.  0.
</event>
<event>
 5    0  0.5728184E-005  0.3247656E+03  0.7546771E-02  0.1073477E+00
         21   -1    0    0  502  501  0.00000000000E+00  0.00000000000E+00  0.53128016353E+03  0.53128016353E+03  0.00000000000E+00 0.  1.
         21   -1    0    0  501  502 -0.00000000000E+00 -0.00000000000E+00 -0.19852558718E+03  0.19852558718E+03  0.00000000000E+00 0.  1.
         25    1    1    2    0    0  0.17493229191E+03  0.18633104757E+02  0.37811207190E+01  0.21584206314E+03  0.12500000000E+03 0.  0.
         25    1    1    2    0    0 -0.19133402646E+03  0.87624127408E+01  0.96806334395E+02  0.24835852298E+03  0.12500000000E+03 0.  0.
         25    1    1    2    0    0  0.16401734555E+02 -0.27395517498E+02  0.23216712124E+03  0.26560516459E+03  0.12500000000E+03 0.  0.
</event>
<event>
 5    0  0.5728184E-005  0.3247168E+03  0.7546771E-02  0.1073499E+00
         21   -1    0    0  502  501  0.00000000000E+00  0.00000000000E+00  0.91971168253E+03  0.91971168253E+03  0.00000000000E+00 0.  1.
         21   -1    0    0  501  502 -0.00000000000E+00 -0.00000000000E+00 -0.11464570943E+03  0.11464570943E+03  0.00000000000E+00 0.  1.
         25    1    1    2    0    0 -0.13429005919E+03  0.12838925585E+03  0.50237513721E+03  0.55002127186E+03  0.12500000000E+03 0.  0.
         25    1    1    2    0    0  0.14665082057E+03 -0.16169166787E+02  0.23106105492E+03  0.30130070731E+03  0.12500000000E+03 0.  0.
         25    1    1    2    0    0 -0.12360761376E+02 -0.11222008906E+03  0.71629780985E+02  0.18303541279E+03  0.12500000000E+03 0.  0.
</event>
<event>
 5    0  0.5728184E-005  0.3210333E+03  0.7546771E-02  0.1075175E+00
         21   -1    0    0  502  501  0.00000000000E+00  0.00000000000E+00  0.52691442230E+03  0.52691442230E+03  0.00000000000E+00 0.  1.
         21   -1    0    0  501  502 -0.00000000000E+00 -0.00000000000E+00 -0.19559603505E+03  0.19559603505E+03  0.00000000000E+00 0.  1.
         25    1    1    2    0    0 -0.16219244443E+03 -0.16194561973E+02  0.10644453688E+02  0.20568655100E+03  0.12500000000E+03 0.  0.
         25    1    1    2    0    0  0.32015218994E+02  0.12968308488E+03  0.20316134086E+03  0.27339021045E+03  0.12500000000E+03 0.  0.
         25    1    1    2    0    0  0.13017722543E+03 -0.11348852291E+03  0.11751259271E+03  0.24343369590E+03  0.12500000000E+03 0.  0.
</event>
<event>
 5    0  0.5728184E-005  0.5187189E+03  0.7546771E-02  0.1009005E+00
         21   -1    0    0  502  501  0.00000000000E+00  0.00000000000E+00  0.31672727497E+03  0.31672727497E+03  0.00000000000E+00 0. -1.
         21   -1    0    0  501  502 -0.00000000000E+00 -0.00000000000E+00 -0.84952987558E+03  0.84952987558E+03  0.00000000000E+00 0. -1.
         25    1    1    2    0    0  0.12551345603E+03 -0.20834210188E+02  0.36889297916E+01  0.17839927175E+03  0.12500000000E+03 0.  0.
         25    1    1    2    0    0 -0.84908117755E+02  0.22039187823E+03 -0.66490173929E+03  0.71659004414E+03  0.12500000000E+03 0.  0.
         25    1    1    2    0    0 -0.40605338272E+02 -0.19955766804E+03  0.12841020889E+03  0.27126783465E+03  0.12500000000E+03 0.  0.
</event>
<event>
 5    0  0.5728184E-005  0.2574300E+03  0.7546771E-02  0.1108697E+00
         21   -1    0    0  502  501  0.00000000000E+00  0.00000000000E+00  0.27810177097E+03  0.27810177097E+03  0.00000000000E+00 0.  1.
         21   -1    0    0  501  502 -0.00000000000E+00 -0.00000000000E+00 -0.23829480116E+03  0.23829480116E+03  0.00000000000E+00 0.  1.
         25    1    1    2    0    0 -0.11690261649E+03 -0.57985081887E+02  0.40125255082E+02  0.18510409925E+03  0.12500000000E+03 0.  0.
         25    1    1    2    0    0  0.40839469535E+02 -0.46079980677E+02 -0.44694569487E+02  0.14633465561E+03  0.12500000000E+03 0.  0.
         25    1    1    2    0    0  0.76063146955E+02  0.10406506256E+03  0.44376284216E+02  0.18495781728E+03  0.12500000000E+03 0.  0.
</event>
<event>
 5    0  0.5728184E-005  0.4494596E+03  0.7546771E-02  0.1027883E+00
         21   -1    0    0  502  501  0.00000000000E+00  0.00000000000E+00  0.79238196481E+03  0.79238196481E+03  0.00000000000E+00 0.  1.
         21   -1    0    0  501  502 -0.00000000000E+00 -0.00000000000E+00 -0.25494516694E+03  0.25494516694E+03  0.00000000000E+00 0.  1.
         25    1    1    2    0    0  0.90691487839E+02 -0.28174459552E+03  0.26093093644E+03  0.41390206168E+03  0.12500000000E+03 0.  0.
         25    1    1    2    0    0  0.10641087589E+03  0.13204775254E+01  0.20330314107E+03  0.26130860173E+03  0.12500000000E+03 0.  0.
         25    1    1    2    0    0 -0.19710236373E+03  0.28042411799E+03  0.73202720366E+02  0.37211646834E+03  0.12500000000E+03 0.  0.
</event>
<event>
 5    0  0.5728184E-005  0.2358572E+03  0.7546771E-02  0.1122584E+00
         21   -1    0    0  502  501  0.00000000000E+00  0.00000000000E+00  0.31418443139E+03  0.31418443139E+03  0.00000000000E+00 0.  1.
         21   -1    0    0  501  502 -0.00000000000E+00 -0.00000000000E+00 -0.17705716878E+03  0.17705716878E+03  0.00000000000E+00 0.  1.
         25    1    1    2    0    0  0.50131498624E+02  0.54528776767E+02  0.91403339903E+02  0.17165699868E+03  0.12500000000E+03 0.  0.
         25    1    1    2    0    0 -0.48472749161E+02 -0.19386432637E+02  0.11017722049E+03  0.17461231657E+03  0.12500000000E+03 0.  0.
         25    1    1    2    0    0 -0.16587494631E+01 -0.35142344129E+02 -0.64453297789E+02  0.14497228493E+03  0.12500000000E+03 0.  0.
</event>
<event>
 5    0  0.5728184E-005  0.5064633E+03  0.7546771E-02  0.1012106E+00
         21   -1    0    0  502  501  0.00000000000E+00  0.00000000000E+00  0.56329433151E+03  0.56329433151E+03  0.00000000000E+00 0. -1.
         21   -1    0    0  501  502 -0.00000000000E+00 -0.00000000000E+00 -0.45536604298E+03  0.45536604298E+03  0.00000000000E+00 0. -1.
         25    1    1    2    0    0  0.12308263742E+03 -0.22587778381E+00 -0.36313411345E+03  0.40328745456E+03  0.12500000000E+03 0.  0.
         25    1    1    2    0    0 -0.17524058402E+03 -0.15154923536E+02  0.41545259942E+03  0.46815039929E+03  0.12500000000E+03 0.  0.
         25    1    1    2    0    0  0.52157946601E+02  0.15380801320E+02  0.55609802565E+02  0.14722252064E+03  0.12500000000E+03 0.  0.
</event>
<event>
 5    0  0.5728184E-005  0.2832172E+03  0.7546771E-02  0.1093945E+00
         21   -1    0    0  502  501  0.00000000000E+00  0.00000000000E+00  0.30312021031E+03  0.30312021031E+03  0.00000000000E+00 0. -1.
         21   -1    0    0  501  502 -0.00000000000E+00 -0.00000000000E+00 -0.26462095667E+03  0.26462095667E+03  0.00000000000E+00 0. -1.
         25    1    1    2    0    0  0.12207919398E+03  0.37756772080E+02 -0.63545697978E+02  0.18971546898E+03  0.12500000000E+03 0.  0.
         25    1    1    2    0    0 -0.18228611351E+03 -0.53593399713E+01  0.53132001569E+02  0.22738724524E+03  0.12500000000E+03 0.  0.
         25    1    1    2    0    0  0.60206919538E+02 -0.32397432109E+02  0.48912950054E+02  0.15063845276E+03  0.12500000000E+03 0.  0.
</event>
<event>
 5    0  0.5728184E-005  0.2590723E+03  0.7546771E-02  0.1107702E+00
         21   -1    0    0  502  501  0.00000000000E+00  0.00000000000E+00  0.98139761373E+02  0.98139761373E+02  0.00000000000E+00 0. -1.
         21   -1    0    0  501  502 -0.00000000000E+00 -0.00000000000E+00 -0.68390684499E+03  0.68390684499E+03  0.00000000000E+00 0. -1.
         25    1    1    2    0    0 -0.28949482881E+02  0.12967648617E+02 -0.41530227825E+03  0.43486459362E+03  0.12500000000E+03 0.  0.
         25    1    1    2    0    0 -0.38612983864E+02 -0.34175018276E+02 -0.15019446127E+03  0.20209470699E+03  0.12500000000E+03 0.  0.
         25    1    1    2    0    0  0.67562466746E+02  0.21207369660E+02 -0.20270344105E+02  0.14508730575E+03  0.12500000000E+03 0.  0.
</event>
<event>
 5    0  0.5728184E-005  0.3144598E+03  0.7546771E-02  0.1078228E+00
         21   -1    0    0  502  501  0.00000000000E+00  0.00000000000E+00  0.85619642373E+02  0.85619642373E+02  0.00000000000E+00 0. -1.
         21   -1    0    0  501  502 -0.00000000000E+00 -0.00000000000E+00 -0.11549328383E+04  0.11549328383E+04  0.00000000000E+00 0. -1.
         25    1    1    2    0    0 -0.61975561446E+02 -0.70450826912E+02 -0.62020878574E+02  0.16815432973E+03  0.12500000000E+03 0.  0.
         25    1    1    2    0    0  0.30850703385E+02  0.29907957572E+02 -0.86940179312E+03  0.87939225020E+03  0.12500000000E+03 0.  0.
         25    1    1    2    0    0  0.31124858062E+02  0.40542869341E+02 -0.13789052420E+03  0.19300590070E+03  0.12500000000E+03 0.  0.
</event>
<event>
 5    0  0.5728184E-005  0.3821002E+03  0.7546771E-02  0.1050160E+00
         21   -1    0    0  502  501  0.00000000000E+00  0.00000000000E+00  0.66173784232E+03  0.66173784232E+03  0.00000000000E+00 0. -1.
         21   -1    0    0  501  502 -0.00000000000E+00 -0.00000000000E+00 -0.22063207366E+03  0.22063207366E+03  0.00000000000E+00 0. -1.
         25    1    1    2    0    0  0.10049733965E+03  0.17462565034E+02  0.17229883253E+03  0.23604352172E+03  0.12500000000E+03 0.  0.
         25    1    1    2    0    0 -0.23352407213E+03 -0.65697189847E+02  0.34743854834E+03  0.44180103881E+03  0.12500000000E+03 0.  0.
         25    1    1    2    0    0  0.13302673248E+03  0.48234624813E+02 -0.78631612218E+02  0.20452535546E+03  0.12500000000E+03 0.  0.
</event>
<event>
 5    0  0.5728184E-005  0.4075753E+03  0.7546771E-02  0.1041188E+00
         21   -1    0    0  502  501  0.00000000000E+00  0.00000000000E+00  0.18354174843E+03  0.18354174843E+03  0.00000000000E+00 0. -1.
         21   -1    0    0  501  502 -0.00000000000E+00 -0.00000000000E+00 -0.90506702913E+03  0.90506702913E+03  0.00000000000E+00 0. -1.
         25    1    1    2    0    0 -0.20679342323E+03 -0.22821444852E+03 -0.21018804185E+03  0.39325483766E+03  0.12500000000E+03 0.  0.
         25    1    1    2    0    0  0.20015276311E+03  0.31538558674E+02 -0.26102813953E+03  0.35329378552E+03  0.12500000000E+03 0.  0.
         25    1    1    2    0    0  0.66406601225E+01  0.19667588985E+03 -0.25030909932E+03  0.34206015438E+03  0.12500000000E+03 0.  0.
</event>
<event>
 5    0  0.5728184E-005  0.4286756E+03  0.7546771E-02  0.1034279E+00
         21   -1    0    0  502  501  0.00000000000E+00  0.00000000000E+00  0.28395752302E+03  0.28395752302E+03  0.00000000000E+00 0. -1.
         21   -1    0    0  501  502 -0.00000000000E+00 -0.00000000000E+00 -0.64714868377E+03  0.64714868377E+03  0.00000000000E+00 0. -1.
         25    1    1    2    0    0  0.16378361025E+03  0.50527069260E+02 -0.17615301956E+03  0.27574071519E+03  0.12500000000E+03 0.  0.
         25    1    1    2    0    0 -0.16124047178E+03 -0.20900058950E+03 -0.30441165024E+03  0.42186631644E+03  0.12500000000E+03 0.  0.
         25    1    1    2    0    0 -0.25431384723E+01  0.15847352023E+03  0.11737350905E+03  0.23349917515E+03  0.12500000000E+03 0.  0.
</event>
<event>
 5    0  0.5728184E-005  0.5059631E+03  0.7546771E-02  0.1012234E+00
         21   -1    0    0  502  501  0.00000000000E+00  0.00000000000E+00  0.14007369943E+03  0.14007369943E+03  0.00000000000E+00 0.  1.
         21   -1    0    0  501  502 -0.00000000000E+00 -0.00000000000E+00 -0.18275994923E+04  0.18275994923E+04  0.00000000000E+00 0.  1.
         25    1    1    2    0    0 -0.24721036742E+02  0.21331307654E+03 -0.11469567683E+04  0.11735622807E+04  0.12500000000E+03 0.  0.
         25    1    1    2    0    0  0.99614441753E+02  0.37501972837E+02 -0.46676407725E+03  0.49479605777E+03  0.12500000000E+03 0.  0.
         25    1    1    2    0    0 -0.74893405011E+02 -0.25081504938E+03 -0.73804947230E+02  0.29931485320E+03  0.12500000000E+03 0.  0.
</event>
<event>
 5    0  0.5728184E-005  0.4560689E+03  0.7546771E-02  0.1025928E+00
         21   -1    0    0  502  501  0.00000000000E+00  0.00000000000E+00  0.44145979111E+03  0.44145979111E+03  0.00000000000E+00 0.  1.
         21   -1    0    0  501  502 -0.00000000000E+00 -0.00000000000E+00 -0.47116146984E+03  0.47116146984E+03  0.00000000000E+00 0.  1.
         25    1    1    2    0    0 -0.21066722661E+02  0.10069702741E+03 -0.12286328371E+03  0.20323406362E+03  0.12500000000E+03 0.  0.
         25    1    1    2    0    0  0.15653530666E+03 -0.11117724414E+03 -0.23792786048E+03  0.33030039152E+03  0.12500000000E+03 0.  0.
         25    1    1    2    0    0 -0.13546858400E+03  0.10480216736E+02  0.33108946546E+03  0.37908680580E+03  0.12500000000E+03 0.  0.
</event>
<event>
 5    0  0.5728184E-005  0.2221577E+03  0.7546771E-02  0.1132285E+00
         21   -1    0    0  502  501  0.00000000000E+00  0.00000000000E+00  0.68443520146E+03  0.68443520146E+03  0.00000000000E+00 0. -1.
         21   -1    0    0  501  502 -0.00000000000E+00 -0.00000000000E+00 -0.72109127030E+02  0.72109127030E+02  0.00000000000E+00 0. -1.
         25    1    1    2    0    0 -0.49430491608E+01  0.60362576766E+01  0.12259122155E+03  0.17525546423E+03  0.12500000000E+03 0.  0.
         25    1    1    2    0    0  0.18455498772E+02 -0.87657869160E+02  0.17693014165E+03  0.23442223121E+03  0.12500000000E+03 0.  0.
         25    1    1    2    0    0 -0.13512449611E+02  0.81621611483E+02  0.31280471124E+03  0.34686663305E+03  0.12500000000E+03 0.  0.
</event>
<event>
 5    0  0.5728184E-005  0.3095181E+03  0.7546771E-02  0.1080577E+00
         21   -1    0    0  502  501  0.00000000000E+00  0.00000000000E+00  0.21282290248E+03  0.21282290248E+03  0.00000000000E+00 0.  1.
         21   -1    0    0  501  502 -0.00000000000E+00 -0.00000000000E+00 -0.45014623571E+03  0.45014623571E+03  0.00000000000E+00 0.  1.
         25    1    1    2    0    0 -0.28775158853E+02  0.11686532287E+03 -0.10255660213E+03  0.20156480371E+03  0.12500000000E+03 0.  0.
         25    1    1    2    0    0  0.77862980715E+02 -0.20604923107E+03 -0.15802993672E+03  0.29852535955E+03  0.12500000000E+03 0.  0.
         25    1    1    2    0    0 -0.49087821863E+02  0.89183908207E+02  0.23263205613E+02  0.16287897493E+03  0.12500000000E+03 0.  0.
</event>
<event>
 5    0  0.5728184E-005  0.4114419E+03  0.7546771E-02  0.1039888E+00
         21   -1    0    0  502  501  0.00000000000E+00  0.00000000000E+00  0.46939170038E+03  0.46939170038E+03  0.00000000000E+00 0.  1.
         21   -1    0    0  501  502 -0.00000000000E+00 -0.00000000000E+00 -0.36064636795E+03  0.36064636795E+03  0.00000000000E+00 0.  1.
         25    1    1    2    0    0 -0.10303526216E+03  0.10368343828E+03  0.10489002057E+03  0.21907404465E+03  0.12500000000E+03 0.  0.
         25    1    1    2    0    0  0.26838538420E+03  0.60605487200E+02 -0.11188899206E+03  0.32225438100E+03  0.12500000000E+03 0.  0.
         25    1    1    2    0    0 -0.16535012203E+03 -0.16428892548E+03  0.11574430391E+03  0.28870964269E+03  0.12500000000E+03 0.  0.
</event>
<event>
 5    0  0.5728184E-005  0.3315707E+03  0.7546771E-02  0.1070444E+00
         21   -1    0    0  502  501  0.00000000000E+00  0.00000000000E+00  0.51828344819E+03  0.51828344819E+03  0.00000000000E+00 0.  1.
         21   -1    0    0  501  502 -0.00000000000E+00 -0.00000000000E+00 -0.21212162041E+03  0.21212162041E+03  0.00000000000E+00 0.  1.
         25    1    1    2    0    0  0.21824236285E+03 -0.54496994534E+02  0.15201014523E+03  0.29888415081E+03  0.12500000000E+03 0.  0.
         25    1    1    2    0    0 -0.19663642987E+03 -0.47477332286E+02  0.67776602228E+02  0.24726231100E+03  0.12500000000E+03 0.  0.
         25    1    1    2    0    0 -0.21605932979E+02  0.10197432682E+03  0.86375080326E+02  0.18425860678E+03  0.12500000000E+03 0.  0.
</event>
<event>
 5    0  0.5728184E-005  0.2525826E+03  0.7546771E-02  0.1111683E+00
         21   -1    0    0  502  501  0.00000000000E+00  0.00000000000E+00  0.60561623694E+02  0.60561623694E+02  0.00000000000E+00 0.  1.
         21   -1    0    0  501  502 -0.00000000000E+00 -0.00000000000E+00 -0.10534390102E+04  0.10534390102E+04  0.00000000000E+00 0.  1.
         25    1    1    2    0    0  0.12616731773E+02  0.14508441161E+03 -0.53445430555E+03  0.56786888727E+03  0.12500000000E+03 0.  0.
         25    1    1    2    0    0 -0.48208183432E+01 -0.35979245219E+02 -0.21822066102E+03  0.25409250928E+03  0.12500000000E+03 0.  0.
         25    1    1    2    0    0 -0.77959134297E+01 -0.10910516640E+03 -0.24020241992E+03  0.29203923732E+03  0.12500000000E+03 0.  0.
</event>
<event>
 5    0  0.5728184E-005  0.2215617E+03  0.7546771E-02  0.1132724E+00
         21   -1    0    0  502  501  0.00000000000E+00  0.00000000000E+00  0.15767363834E+03  0.15767363834E+03  0.00000000000E+00 0. -1.
         21   -1    0    0  501  502 -0.00000000000E+00 -0.00000000000E+00 -0.31133663679E+03  0.31133663679E+03  0.00000000000E+00 0. -1.
         25    1    1    2    0    0  0.30825465673E+02 -0.23125319128E+02 -0.55732927759E+02  0.14218350451E+03  0.12500000000E+03 0.  0.
         25    1    1    2    0    0  0.76157828480E+02  0.82068959617E+01 -0.46514704318E+02  0.15380502494E+03  0.12500000000E+03 0.  0.
         25    1    1    2    0    0 -0.10698329415E+03  0.14918423166E+02 -0.51415366371E+02  0.17302174568E+03  0.12500000000E+03 0.  0.
</event>
<event>
 5    0  0.5728184E-005  0.2791565E+03  0.7546771E-02  0.1096151E+00
         21   -1    0    0  502  501  0.00000000000E+00  0.00000000000E+00  0.26628378407E+02  0.26628378407E+02  0.00000000000E+00 0.  1.
         21   -1    0    0  501  502 -0.00000000000E+00 -0.00000000000E+00 -0.29265153772E+04  0.29265153772E+04  0.00000000000E+00 0.  1.
         25    1    1    2    0    0  0.16175856221E+02 -0.40376311234E+02 -0.13873581040E+04  0.13936568493E+04  0.12500000000E+03 0.  0.
         25    1    1    2    0    0 -0.12797843593E+02  0.79055366989E+01 -0.17418861442E+03  0.21492546547E+03  0.12500000000E+03 0.  0.
         25    1    1    2    0    0 -0.33780126282E+01  0.32470774535E+02 -0.13383402804E+04  0.13445614409E+04  0.12500000000E+03 0.  0.
</event>
<event>
 5    0  0.5728184E-005  0.2813782E+03  0.7546771E-02  0.1094939E+00
         21   -1    0    0  502  501  0.00000000000E+00  0.00000000000E+00  0.36957656813E+03  0.36957656813E+03  0.00000000000E+00 0. -1.
         21   -1    0    0  501  502 -0.00000000000E+00 -0.00000000000E+00 -0.21422809636E+03  0.21422809636E+03  0.00000000000E+00 0. -1.
         25    1    1    2    0    0 -0.11735074973E+03 -0.11659184171E+03 -0.19369479258E+02  0.20824272554E+03  0.12500000000E+03 0.  0.
         25    1    1    2    0    0  0.70592480863E+02  0.88853888718E+02  0.21030279436E+02  0.17013401937E+03  0.12500000000E+03 0.  0.
         25    1    1    2    0    0  0.46758268865E+02  0.27737952989E+02  0.15368767159E+03  0.20542791957E+03  0.12500000000E+03 0.  0.
</event>
<event>
 5    0  0.5728184E-005  0.2565422E+03  0.7546771E-02  0.1109239E+00
         21   -1    0    0  502  501  0.00000000000E+00  0.00000000000E+00  0.19394159667E+03  0.19394159667E+03  0.00000000000E+00 0. -1.
         21   -1    0    0  501  502 -0.00000000000E+00 -0.00000000000E+00 -0.33934912930E+03  0.33934912930E+03  0.00000000000E+00 0. -1.
         25    1    1    2    0    0  0.93640199231E+02 -0.36384027460E+02  0.61122684647E+00  0.16036725964E+03  0.12500000000E+03 0.  0.
         25    1    1    2    0    0 -0.70461512826E+02  0.22097314540E+02 -0.18867527012E+03  0.23806821219E+03  0.12500000000E+03 0.  0.
         25    1    1    2    0    0 -0.23178686404E+02  0.14286712920E+02  0.42656510643E+02  0.13485525414E+03  0.12500000000E+03 0.  0.
</event>
<event>
 5    0  0.5728184E-005  0.2650989E+03  0.7546771E-02  0.1104118E+00
         21   -1    0    0  502  501  0.00000000000E+00  0.00000000000E+00  0.33677734469E+03  0.33677734469E+03  0.00000000000E+00 0.  1.
         21   -1    0    0  501  502 -0.00000000000E+00 -0.00000000000E+00 -0.20867618598E+03  0.20867618598E+03  0.00000000000E+00 0.  1.
         25    1    1    2    0    0 -0.96460090083E+02  0.11680444480E+03  0.70573513658E+02  0.20869462891E+03  0.12500000000E+03 0.  0.
         25    1    1    2    0    0  0.12535838378E+03 -0.64016858563E+02  0.61290031645E+02  0.19797563118E+03  0.12500000000E+03 0.  0.
         25    1    1    2    0    0 -0.28898293694E+02 -0.52787586239E+02 -0.37623865888E+01  0.13878327058E+03  0.12500000000E+03 0.  0.
</event>
<event>
 5    0  0.5728184E-005  0.2898630E+03  0.7546771E-02  0.1090421E+00
         21   -1    0    0  502  501  0.00000000000E+00  0.00000000000E+00  0.14220508846E+03  0.14220508846E+03  0.00000000000E+00 0.  1.
         21   -1    0    0  501  502 -0.00000000000E+00 -0.00000000000E+00 -0.59084073165E+03  0.59084073165E+03  0.00000000000E+00 0.  1.
         25    1    1    2    0    0  0.59269186465E+02 -0.50116251819E+00  0.44040806264E+02  0.14518154237E+03  0.12500000000E+03 0.  0.
         25    1    1    2    0    0  0.16417989796E+02 -0.31274898277E+02 -0.89219047462E+02  0.15758397152E+03  0.12500000000E+03 0.  0.
         25    1    1    2    0    0 -0.75687176260E+02  0.31776060795E+02 -0.40345740199E+03  0.43028030621E+03  0.12500000000E+03 0.  0.
</event>
<event>
 5    0  0.5728184E-005  0.4344105E+03  0.7546771E-02  0.1032476E+00
         21   -1    0    0  502  501  0.00000000000E+00  0.00000000000E+00  0.13738365704E+03  0.13738365704E+03  0.00000000000E+00 0.  1.
         21   -1    0    0  501  502 -0.00000000000E+00 -0.00000000000E+00 -0.13736164860E+04  0.13736164860E+04  0.00000000000E+00 0.  1.
         25    1    1    2    0    0  0.22807962629E+03 -0.19734080549E+03 -0.58407676520E+03  0.66912956675E+03  0.12500000000E+03 0.  0.
         25    1    1    2    0    0  0.59013106147E+02  0.13486853357E+03 -0.14074848138E+03  0.23897113436E+03  0.12500000000E+03 0.  0.
         25    1    1    2    0    0 -0.28709273244E+03  0.62472271925E+02 -0.51140758240E+03  0.60289944196E+03  0.12500000000E+03 0.  0.
</event>
<event>
 5    0  0.5728184E-005  0.2509509E+03  0.7546771E-02  0.1112705E+00
         21   -1    0    0  502  501  0.00000000000E+00  0.00000000000E+00  0.88278684801E+02  0.88278684801E+02  0.00000000000E+00 0.  1.
         21   -1    0    0  501  502 -0.00000000000E+00 -0.00000000000E+00 -0.71338109446E+03  0.71338109446E+03  0.00000000000E+00 0.  1.
         25    1    1    2    0    0 -0.10203295812E+02  0.49136540762E+02 -0.55097842824E+02  0.14553102476E+03  0.12500000000E+03 0.  0.
         25    1    1    2    0    0 -0.37829094063E+02  0.12143012927E+02 -0.44185672280E+03  0.46091306838E+03  0.12500000000E+03 0.  0.
         25    1    1    2    0    0  0.48032389875E+02 -0.61279553689E+02 -0.12814784403E+03  0.19521568612E+03  0.12500000000E+03 0.  0.
</event>
<event>
 5    0  0.5728184E-005  0.2894933E+03  0.7546771E-02  0.1090614E+00
         21   -1    0    0  502  501  0.00000000000E+00  0.00000000000E+00  0.23550588387E+03  0.23550588387E+03  0.00000000000E+00 0. -1.
         21   -1    0    0  501  502 -0.00000000000E+00 -0.00000000000E+00 -0.35585671607E+03  0.35585671607E+03  0.00000000000E+00 0. -1.
         25    1    1    2    0    0  0.20962818135E+02 -0.76342545651E+02 -0.16187197538E+03  0.21930608846E+03  0.12500000000E+03 0.  0.
         25    1    1    2    0    0 -0.56649016670E+02  0.14383886883E+03 -0.42356108686E+02  0.20326773286E+03  0.12500000000E+03 0.  0.
         25    1    1    2    0    0  0.35686198535E+02 -0.67496323183E+02  0.83877251873E+02  0.16878877863E+03  0.12500000000E+03 0.  0.
</event>
<event>
 5    0  0.5728184E-005  0.3274501E+03  0.7546771E-02  0.1072271E+00
         21   -1    0    0  502  501  0.00000000000E+00  0.00000000000E+00  0.54305932660E+03  0.54305932660E+03  0.00000000000E+00 0.  1.
         21   -1    0    0  501  502 -0.00000000000E+00 -0.00000000000E+00 -0.19744352292E+03  0.19744352292E+03  0.00000000000E+00 0.  1.
         25    1    1    2    0    0 -0.93013244742E+02  0.24241043763E+03  0.11896938135E+03  0.31175791517E+03  0.12500000000E+03 0.  0.
         25    1    1    2    0    0  0.58146331679E+02 -0.12697725105E+03  0.14424042978E+03  0.23650479859E+03  0.12500000000E+03 0.  0.
         25    1    1    2    0    0  0.34866913063E+02 -0.11543318659E+03  0.82405992544E+02  0.19224013577E+03  0.12500000000E+03 0.  0.
</event>
<event>
 5    0  0.5728184E-005  0.4554536E+03  0.7546771E-02  0.1026108E+00
         21   -1    0    0  502  501  0.00000000000E+00  0.00000000000E+00  0.25486052189E+03  0.25486052189E+03  0.00000000000E+00 0.  1.
         21   -1    0    0  501  502 -0.00000000000E+00 -0.00000000000E+00 -0.81392765606E+03  0.81392765606E+03  0.00000000000E+00 0.  1.
         25    1    1    2    0    0 -0.21330611834E+02 -0.13647788148E+03 -0.14293571516E+03  0.23481232038E+03  0.12500000000E+03 0.  0.
         25    1    1    2    0    0 -0.19037400994E+03 -0.14332275366E+03 -0.37168373688E+03  0.45886542214E+03  0.12500000000E+03 0.  0.
         25    1    1    2    0    0  0.21170462178E+03  0.27980063515E+03 -0.44447682133E+02  0.37511043541E+03  0.12500000000E+03 0.  0.
</event>
<event>
 5    0  0.5728184E-005  0.3868941E+03  0.7546771E-02  0.1048415E+00
         21   -1    0    0  502  501  0.00000000000E+00  0.00000000000E+00  0.19390566667E+03  0.19390566667E+03  0.00000000000E+00 0.  1.
         21   -1    0    0  501  502 -0.00000000000E+00 -0.00000000000E+00 -0.77195795607E+03  0.77195795607E+03  0.00000000000E+00 0.  1.
         25    1    1    2    0    0  0.42264775497E+01 -0.30487004444E+03 -0.41698568768E+03  0.53147499550E+03  0.12500000000E+03 0.  0.
         25    1    1    2    0    0 -0.43570451607E+02  0.13766020944E+03 -0.76111852896E+02  0.20558874402E+03  0.12500000000E+03 0.  0.
         25    1    1    2    0    0  0.39343974057E+02  0.16720983499E+03 -0.84954748830E+02  0.22879988322E+03  0.12500000000E+03 0.  0.
</event>
<event>
 5    0  0.5728184E-005  0.2888879E+03  0.7546771E-02  0.1090931E+00
         21   -1    0    0  502  501  0.00000000000E+00  0.00000000000E+00  0.29733725069E+03  0.29733725069E+03  0.00000000000E+00 0. -1.
         21   -1    0    0  501  502 -0.00000000000E+00 -0.00000000000E+00 -0.28067864290E+03  0.28067864290E+03  0.00000000000E+00 0.  1.
         25    1    1    2    0    0  0.47827942450E+01  0.13103897195E+02 -0.12054263572E+03  0.17421284186E+03  0.12500000000E+03 0.  0.
         25    1    1    2    0    0 -0.34342683238E+02 -0.10335300248E+03  0.17631651213E+03  0.24202019639E+03  0.12500000000E+03 0.  0.
         25    1    1    2    0    0  0.29559888993E+02  0.90249105285E+02 -0.39115268616E+02  0.16178285534E+03  0.12500000000E+03 0.  0.
</event>
<event>
 5    0  0.5728184E-005  0.2810830E+03  0.7546771E-02  0.1095099E+00
         21   -1    0    0  502  501  0.00000000000E+00  0.00000000000E+00  0.19974161596E+03  0.19974161596E+03  0.00000000000E+00 0. -1.
         21   -1    0    0  501  502 -0.00000000000E+00 -0.00000000000E+00 -0.39554935788E+03  0.39554935788E+03  0.00000000000E+00 0. -1.
         25    1    1    2    0    0  0.43198898066E+02 -0.82891857693E+02 -0.10991831768E+03  0.19090374912E+03  0.12500000000E+03 0.  0.
         25    1    1    2    0    0 -0.57490714602E+02  0.10672833901E+03  0.82626479995E+02  0.19273882798E+03  0.12500000000E+03 0.  0.
         25    1    1    2    0    0  0.14291816536E+02 -0.23836481319E+02 -0.16851590424E+03  0.21164839674E+03  0.12500000000E+03 0.  0.
</event>
<event>
 5    0  0.5728184E-005  0.3092930E+03  0.7546771E-02  0.1080685E+00
         21   -1    0    0  502  501  0.00000000000E+00  0.00000000000E+00  0.93937074994E+03  0.93937074994E+03  0.00000000000E+00 0. -1.
         21   -1    0    0  501  502 -0.00000000000E+00 -0.00000000000E+00 -0.10183639796E+03  0.10183639796E+03  0.00000000000E+00 0. -1.
         25    1    1    2    0    0 -0.13556577174E+03  0.98006147348E+02  0.26883572946E+03  0.34041288580E+03  0.12500000000E+03 0.  0.
         25    1    1    2    0    0  0.14156848130E+03  0.67267481616E+02  0.24755634239E+03  0.31855249432E+03  0.12500000000E+03 0.  0.
         25    1    1    2    0    0 -0.60027095620E+01 -0.16527362896E+03  0.32114228013E+03  0.38224176778E+03  0.12500000000E+03 0.  0.
</event>
<event>
 5    0  0.5728184E-005  0.3345611E+03  0.7546771E-02  0.1069136E+00
         21   -1    0    0  502  501  0.00000000000E+00  0.00000000000E+00  0.61006859883E+02  0.61006859883E+02  0.00000000000E+00 0.  1.
         21   -1    0    0  501  502 -0.00000000000E+00 -0.00000000000E+00 -0.18347300100E+04  0.18347300100E+04  0.00000000000E+00 0.  1.
         25    1    1    2    0    0 -0.78376280444E+02 -0.13075685680E+03 -0.19936599864E+03  0.28037831291E+03  0.12500000000E+03 0.  0.
         25    1    1    2    0    0 -0.42441004303E+02  0.12893773674E+03 -0.70212112865E+03  0.72596505295E+03  0.12500000000E+03 0.  0.
         25    1    1    2    0    0  0.12081728475E+03  0.18191200552E+01 -0.87223602283E+03  0.88939350403E+03  0.12500000000E+03 0.  0.
</event>
<event>
 5    0  0.5728184E-005  0.2590283E+03  0.7546771E-02  0.1107728E+00
         21   -1    0    0  502  501  0.00000000000E+00  0.00000000000E+00  0.11926547766E+03  0.11926547766E+03  0.00000000000E+00 0.  1.
         21   -1    0    0  501  502 -0.00000000000E+00 -0.00000000000E+00 -0.56257389356E+03  0.56257389356E+03  0.00000000000E+00 0.  1.
         25    1    1    2    0    0  0.89420589344E+02  0.44753553819E+02 -0.18690617607E+03  0.24608502805E+03  0.12500000000E+03 0.  0.
         25    1    1    2    0    0 -0.12030357683E+03  0.13044959910E+02 -0.23593158038E+03  0.29314131779E+03  0.12500000000E+03 0.  0.
         25    1    1    2    0    0  0.30882987489E+02 -0.57798513729E+02 -0.20470659451E+02  0.14261302537E+03  0.12500000000E+03 0.  0.
</event>
<event>
 5    0  0.5728184E-005  0.3501142E+03  0.7546771E-02  0.1062568E+00
         21   -1    0    0  502  501  0.00000000000E+00  0.00000000000E+00  0.58804286266E+03  0.58804286266E+03  0.00000000000E+00 0. -1.
         21   -1    0    0  501  502 -0.00000000000E+00 -0.00000000000E+00 -0.20845407241E+03  0.20845407241E+03  0.00000000000E+00 0. -1.
         25    1    1    2    0    0  0.11505141444E+02 -0.12944236880E+02  0.24661935221E+03  0.27703073193E+03  0.12500000000E+03 0.  0.
         25    1    1    2    0    0 -0.14454663278E+03  0.24761068499E+02  0.23979515432E+03  0.30762567448E+03  0.12500000000E+03 0.  0.
         25    1    1    2    0    0  0.13304149133E+03 -0.11816831619E+02 -0.10682571628E+03  0.21184052867E+03  0.12500000000E+03 0.  0.
</event>
<event>
 5    0  0.5728184E-005  0.2572888E+03  0.7546771E-02  0.1108783E+00
         21   -1    0    0  502  501  0.00000000000E+00  0.00000000000E+00  0.51962465345E+03  0.51962465345E+03  0.00000000000E+00 0.  1.
         21   -1    0    0  501  502 -0.00000000000E+00 -0.00000000000E+00 -0.12739485886E+03  0.12739485886E+03  0.00000000000E+00 0.  1.
         25    1    1    2    0    0  0.86583446945E+02  0.69778099095E+02  0.23943035758E+03  0.29209171938E+03  0.12500000000E+03 0.  0.
         25    1    1    2    0    0 -0.61181108975E+02 -0.11665197844E+03  0.11064189304E+03  0.21264392930E+03  0.12500000000E+03 0.  0.
         25    1    1    2    0    0 -0.25402337970E+02  0.46873879349E+02  0.42157543965E+02  0.14228386364E+03  0.12500000000E+03 0.  0.
</event>
<event>
 5    0  0.7346865E-005  0.6823684E+03  0.7546771E-02  0.9747869E-01
         21   -1    0    0  502  501  0.00000000000E+00  0.00000000000E+00  0.46884012088E+03  0.46884012088E+03  0.00000000000E+00 0.  1.
         21   -1    0    0  501  502 -0.00000000000E+00 -0.00000000000E+00 -0.99314580647E+03  0.99314580647E+03  0.00000000000E+00 0.  1.
         25    1    1    2    0    0 -0.29464479844E+03 -0.25731867472E+03 -0.34793837232E+03  0.53825139902E+03  0.12500000000E+03 0.  0.
         25    1    1    2    0    0  0.45536039819E+03 -0.97465375443E+02 -0.18000143155E+03  0.51466310050E+03  0.12500000000E+03 0.  0.
         25    1    1    2    0    0 -0.16071559975E+03  0.35478405016E+03  0.36341182791E+01  0.40907142783E+03  0.12500000000E+03 0.  0.
</event>
<event>
 5    0  0.5728184E-005  0.7046573E+03  0.7546771E-02  0.9709301E-01
         21   -1    0    0  502  501  0.00000000000E+00  0.00000000000E+00  0.46896097872E+03  0.46896097872E+03  0.00000000000E+00 0.  1.
         21   -1    0    0  501  502 -0.00000000000E+00 -0.00000000000E+00 -0.10588128542E+04  0.10588128542E+04  0.00000000000E+00 0. -1.
         25    1    1    2    0    0  0.39873611023E+02  0.76664802102E+02 -0.17306069958E+03  0.23030936254E+03  0.12500000000E+03 0.  0.
         25    1    1    2    0    0 -0.57527600143E+03 -0.26758334327E+03 -0.21460400351E+03  0.68133927066E+03  0.12500000000E+03 0.  0.
         25    1    1    2    0    0  0.53540239041E+03  0.19091854117E+03 -0.20218717237E+03  0.61612519969E+03  0.12500000000E+03 0.  0.
</event>
<event>
 5    0  0.5728184E-005  0.3361894E+03  0.7546771E-02  0.1068431E+00
         21   -1    0    0  502  501  0.00000000000E+00  0.00000000000E+00  0.11953563092E+03  0.11953563092E+03  0.00000000000E+00 0.  1.
         21   -1    0    0  501  502 -0.00000000000E+00 -0.00000000000E+00 -0.94552008789E+03  0.94552008789E+03  0.00000000000E+00 0.  1.
         25    1    1    2    0    0 -0.34765848634E+02 -0.23475367240E+03 -0.29657669656E+03  0.39987584058E+03  0.12500000000E+03 0.  0.
         25    1    1    2    0    0 -0.19842169556E+02  0.12479621655E+03 -0.10599551128E+03  0.20694892068E+03  0.12500000000E+03 0.  0.
         25    1    1    2    0    0  0.54608018190E+02  0.10995745585E+03 -0.42341224913E+03  0.45823095755E+03  0.12500000000E+03 0.  0.
</event>
<event>
 5    0  0.5728184E-005  0.3404284E+03  0.7546771E-02  0.1066614E+00
         21   -1    0    0  502  501  0.00000000000E+00  0.00000000000E+00  0.32962770117E+03  0.32962770117E+03  0.00000000000E+00 0.  1.
         21   -1    0    0  501  502 -0.00000000000E+00 -0.00000000000E+00 -0.35158290345E+03  0.35158290345E+03  0.00000000000E+00 0.  1.
         25    1    1    2    0    0  0.86185954796E+02 -0.12197734118E+03 -0.21054808180E+03  0.28681350267E+03  0.12500000000E+03 0.  0.
         25    1    1    2    0    0 -0.69319208517E+02  0.14540811803E+03  0.16856588332E+03  0.26455269887E+03  0.12500000000E+03 0.  0.
         25    1    1    2    0    0 -0.16866746279E+02 -0.23430776851E+02  0.20026996193E+02  0.12984440308E+03  0.12500000000E+03 0.  0.
</event>
<event>
 5    0  0.5728184E-005  0.5395888E+03  0.7546771E-02  0.1003933E+00
         21   -1    0    0  502  501  0.00000000000E+00  0.00000000000E+00  0.82792688354E+03  0.82792688354E+03  0.00000000000E+00 0.  1.
         21   -1    0    0  501  502 -0.00000000000E+00 -0.00000000000E+00 -0.35166888065E+03  0.35166888065E+03  0.00000000000E+00 0.  1.
         25    1    1    2    0    0 -0.26315806106E+03 -0.20582466656E+03  0.46762360095E+03  0.58814351194E+03  0.12500000000E+03 0.  0.
         25    1    1    2    0    0  0.11051235266E+03 -0.17146343792E+02  0.18153773793E+03  0.24715972060E+03  0.12500000000E+03 0.  0.
         25    1    1    2    0    0  0.15264570840E+03  0.22297101036E+03 -0.17290333600E+03  0.34429253165E+03  0.12500000000E+03 0.  0.
</event>
<event>
 5    0  0.5728184E-005  0.2977279E+03  0.7546771E-02  0.1086382E+00
         21   -1    0    0  502  501  0.00000000000E+00  0.00000000000E+00  0.47928599463E+03  0.47928599463E+03  0.00000000000E+00 0.  1.
         21   -1    0    0  501  502 -0.00000000000E+00 -0.00000000000E+00 -0.18494569259E+03  0.18494569259E+03  0.00000000000E+00 0.  1.
         25    1    1    2    0    0 -0.45243709129E+02  0.21024008529E+03  0.69825538762E+02  0.25835729628E+03  0.12500000000E+03 0.  0.
         25    1    1    2    0    0  0.52221099729E+02 -0.80261599437E+02  0.97737319011E+02  0.18532822540E+03  0.12500000000E+03 0.  0.
         25    1    1    2    0    0 -0.69773906006E+01 -0.12997848585E+03  0.12677744426E+03  0.22054616554E+03  0.12500000000E+03 0.  0.
</event>
<event>
 5    0  0.5728184E-005  0.2824323E+03  0.7546771E-02  0.1094368E+00
         21   -1    0    0  502  501  0.00000000000E+00  0.00000000000E+00  0.15879100197E+03  0.15879100197E+03  0.00000000000E+00 0.  1.
         21   -1    0    0  501  502 -0.00000000000E+00 -0.00000000000E+00 -0.50234594763E+03  0.50234594763E+03  0.00000000000E+00 0.  1.
         25    1    1    2    0    0 -0.91084872708E+02  0.16703065655E+02 -0.94263401835E+01  0.15585025610E+03  0.12500000000E+03 0.  0.
         25    1    1    2    0    0 -0.27063859097E+02  0.10422855820E+03 -0.18271903894E+03  0.24618548293E+03  0.12500000000E+03 0.  0.
         25    1    1    2    0    0  0.11814873181E+03 -0.12093162386E+03 -0.15140956655E+03  0.25910121057E+03  0.12500000000E+03 0.  0.
</event>
<event>
 5    0  0.5728184E-005  0.5314664E+03  0.7546771E-02  0.1005877E+00
         21   -1    0    0  502  501  0.00000000000E+00  0.00000000000E+00  0.42807752610E+03  0.42807752610E+03  0.00000000000E+00 0. -1.
         21   -1    0    0  501  502 -0.00000000000E+00 -0.00000000000E+00 -0.65982569125E+03  0.65982569125E+03  0.00000000000E+00 0. -1.
         25    1    1    2    0    0 -0.93010649330E+01  0.35034599839E+03  0.10729226626E+03  0.38725373955E+03  0.12500000000E+03 0.  0.
         25    1    1    2    0    0  0.13976718086E+03 -0.35994652138E+03 -0.13450040238E+03  0.42756487384E+03  0.12500000000E+03 0.  0.
         25    1    1    2    0    0 -0.13046611593E+03  0.96005229947E+01 -0.20454002903E+03  0.27308460397E+03  0.12500000000E+03 0.  0.
</event>
<event>
 5    0  0.5728184E-005  0.3372030E+03  0.7546771E-02  0.1067993E+00
         21   -1    0    0  502  501  0.00000000000E+00  0.00000000000E+00  0.17439517920E+03  0.17439517920E+03  0.00000000000E+00 0. -1.
         21   -1    0    0  501  502 -0.00000000000E+00 -0.00000000000E+00 -0.65200116750E+03  0.65200116750E+03  0.00000000000E+00 0. -1.
         25    1    1    2    0    0 -0.22874527777E+03  0.90207790853E+02 -0.10660796846E+03  0.29572302340E+03  0.12500000000E+03 0.  0.
         25    1    1    2    0    0  0.12032562096E+03 -0.69290454653E+02 -0.98545307245E+02  0.21122405106E+03  0.12500000000E+03 0.  0.
         25    1    1    2    0    0  0.10841965681E+03 -0.20917336199E+02 -0.27245271259E+03  0.31944927224E+03  0.12500000000E+03 0.  0.
</event>
<event>
 5    0  0.5868759E-005  0.3489129E+03  0.7546771E-02  0.1063062E+00
         21   -1    0    0  502  501  0.00000000000E+00  0.00000000000E+00  0.29581398137E+03  0.29581398137E+03  0.00000000000E+00 0. -1.
         21   -1    0    0  501  502 -0.00000000000E+00 -0.00000000000E+00 -0.41154321061E+03  0.41154321061E+03  0.00000000000E+00 0. -1.
         25    1    1    2    0    0  0.10865876388E+03  0.26653145944E+01  0.13067088461E+02  0.16616130618E+03  0.12500000000E+03 0.  0.
         25    1    1    2    0    0 -0.16009201586E+03 -0.30902626029E+01 -0.27512497892E+03  0.34199087311E+03  0.12500000000E+03 0.  0.
         25    1    1    2    0    0  0.51433251975E+02  0.42494800847E+00  0.14632866122E+03  0.19920501269E+03  0.12500000000E+03 0.  0.
</event>
<event>
 5    0  0.5728184E-005  0.3610983E+03  0.7546771E-02  0.1058150E+00
         21   -1    0    0  502  501  0.00000000000E+00  0.00000000000E+00  0.17794501673E+03  0.17794501673E+03  0.00000000000E+00 0.  1.
         21   -1    0    0  501  502 -0.00000000000E+00 -0.00000000000E+00 -0.73276556059E+03  0.73276556059E+03  0.00000000000E+00 0.  1.
         25    1    1    2    0    0 -0.43623730475E+02  0.94996766698E+02 -0.17712602108E+03  0.24067829750E+03  0.12500000000E+03 0.  0.
         25    1    1    2    0    0  0.12895474904E+03 -0.14341075772E+03  0.30646650153E+02  0.23186243744E+03  0.12500000000E+03 0.  0.
         25    1    1    2    0    0 -0.85331018567E+02  0.48413991019E+02 -0.40834117294E+03  0.43816984238E+03  0.12500000000E+03 0.  0.
</event>
<event>
 5    0  0.5728184E-005  0.2460565E+03  0.7546771E-02  0.1115823E+00
         21   -1    0    0  502  501  0.00000000000E+00  0.00000000000E+00  0.19587460047E+03  0.19587460047E+03  0.00000000000E+00 0. -1.
         21   -1    0    0  501  502 -0.00000000000E+00 -0.00000000000E+00 -0.30909460076E+03  0.30909460076E+03  0.00000000000E+00 0. -1.
         25    1    1    2    0    0 -0.20485002525E+02 -0.56868811286E+02  0.14811768770E+02  0.13963554533E+03  0.12500000000E+03 0.  0.
         25    1    1    2    0    0  0.41627235500E+02 -0.74102179435E+02 -0.17518739240E+02  0.15217051606E+03  0.12500000000E+03 0.  0.
         25    1    1    2    0    0 -0.21142232975E+02  0.13097099072E+03 -0.11051302982E+03  0.21316313984E+03  0.12500000000E+03 0.  0.
</event>
<event>
 5    0  0.5728184E-005  0.3714180E+03  0.7546771E-02  0.1054152E+00
         21   -1    0    0  502  501  0.00000000000E+00  0.00000000000E+00  0.20943702065E+03  0.20943702065E+03  0.00000000000E+00 0.  1.
         21   -1    0    0  501  502 -0.00000000000E+00 -0.00000000000E+00 -0.65867701481E+03  0.65867701481E+03  0.00000000000E+00 0.  1.
         25    1    1    2    0    0  0.24354676989E+03  0.71758961827E+02 -0.16188994542E+03  0.32603332982E+03  0.12500000000E+03 0.  0.
         25    1    1    2    0    0 -0.23012877954E+03 -0.12863619531E+03 -0.27922796479E+03  0.40385614052E+03  0.12500000000E+03 0.  0.
         25    1    1    2    0    0 -0.13417990347E+02  0.56877233485E+02 -0.81220839541E+01  0.13822456512E+03  0.12500000000E+03 0.  0.
</event>
<event>
 5    0  0.5728184E-005  0.3636860E+03  0.7546771E-02  0.1057134E+00
         21   -1    0    0  502  501  0.00000000000E+00  0.00000000000E+00  0.16848924786E+04  0.16848924786E+04  0.00000000000E+00 0.  1.
         21   -1    0    0  501  502 -0.00000000000E+00 -0.00000000000E+00 -0.78502062245E+02  0.78502062245E+02  0.00000000000E+00 0.  1.
         25    1    1    2    0    0 -0.12809822485E+03 -0.17195278517E+03  0.31741184205E+03  0.40292951371E+03  0.12500000000E+03 0.  0.
         25    1    1    2    0    0 -0.52644079318E+02  0.16058170468E+03  0.52775672111E+03  0.56807573407E+03  0.12500000000E+03 0.  0.
         25    1    1    2    0    0  0.18074230417E+03  0.11371080492E+02  0.76122185318E+03  0.79238929306E+03  0.12500000000E+03 0.  0.
</event>
<event>
 5    0  0.5728184E-005  0.3141458E+03  0.7546771E-02  0.1078376E+00
         21   -1    0    0  502  501  0.00000000000E+00  0.00000000000E+00  0.21057662917E+03  0.21057662917E+03  0.00000000000E+00 0.  1.
         21   -1    0    0  501  502 -0.00000000000E+00 -0.00000000000E+00 -0.46865400615E+03  0.46865400615E+03  0.00000000000E+00 0.  1.
         25    1    1    2    0    0  0.13945589204E+03  0.10247948676E+03 -0.23230724299E+02  0.21474323641E+03  0.12500000000E+03 0.  0.
         25    1    1    2    0    0 -0.20875816905E+03 -0.49799404680E+02 -0.14925976680E+03  0.28976444198E+03  0.12500000000E+03 0.  0.
         25    1    1    2    0    0  0.69302277004E+02 -0.52680082077E+02 -0.85586885878E+02  0.17472295693E+03  0.12500000000E+03 0.  0.
</event>
<event>
 5    0  0.5728184E-005  0.3149693E+03  0.7546771E-02  0.1077988E+00
         21   -1    0    0  502  501  0.00000000000E+00  0.00000000000E+00  0.40214182216E+03  0.40214182216E+03  0.00000000000E+00 0.  1.
         21   -1    0    0  501  502 -0.00000000000E+00 -0.00000000000E+00 -0.24669324159E+03  0.24669324159E+03  0.00000000000E+00 0.  1.
         25    1    1    2    0    0 -0.66669618662E+02 -0.52562950580E+02 -0.85540535166E+02  0.17363722234E+03  0.12500000000E+03 0.  0.
         25    1    1    2    0    0  0.18837728993E+03  0.63147242611E+02  0.14147659517E+03  0.27406970754E+03  0.12500000000E+03 0.  0.
         25    1    1    2    0    0 -0.12170767127E+03 -0.10584292031E+02  0.99512520569E+02  0.20112813387E+03  0.12500000000E+03 0.  0.
</event>
<event>
 5    0  0.5728184E-005  0.4436401E+03  0.7546771E-02  0.1029636E+00
         21   -1    0    0  502  501  0.00000000000E+00  0.00000000000E+00  0.16549717517E+03  0.16549717517E+03  0.00000000000E+00 0. -1.
         21   -1    0    0  501  502 -0.00000000000E+00 -0.00000000000E+00 -0.11892443563E+04  0.11892443563E+04  0.00000000000E+00 0. -1.
         25    1    1    2    0    0  0.31492865276E+03 -0.35629223564E+02 -0.53208226663E+03  0.63181170958E+03  0.12500000000E+03 0.  0.
         25    1    1    2    0    0 -0.24400671765E+02 -0.28209496014E+02  0.51352725540E+01  0.13054707761E+03  0.12500000000E+03 0.  0.
         25    1    1    2    0    0 -0.29052798100E+03  0.63838719579E+02 -0.49680018707E+03  0.59238274429E+03  0.12500000000E+03 0.  0.
</event>
<event>
 5    0  0.5728184E-005  0.2483941E+03  0.7546771E-02  0.1114324E+00
         21   -1    0    0  502  501  0.00000000000E+00  0.00000000000E+00  0.16987341549E+03  0.16987341549E+03  0.00000000000E+00 0. -1.
         21   -1    0    0  501  502 -0.00000000000E+00 -0.00000000000E+00 -0.36320945220E+03  0.36320945220E+03  0.00000000000E+00 0. -1.
         25    1    1    2    0    0 -0.59152057730E+02  0.26787783082E+02 -0.15193889738E+03  0.20718827137E+03  0.12500000000E+03 0.  0.
         25    1    1    2    0    0  0.11289824287E+03  0.18152946386E+02  0.18834209525E+02  0.17045606517E+03  0.12500000000E+03 0.  0.
         25    1    1    2    0    0 -0.53746185139E+02 -0.44940729468E+02 -0.60231348852E+02  0.15543853115E+03  0.12500000000E+03 0.  0.
</event>
<event>
 5    0  0.5728184E-005  0.2681116E+03  0.7546771E-02  0.1102365E+00
         21   -1    0    0  502  501  0.00000000000E+00  0.00000000000E+00  0.28665705315E+02  0.28665705315E+02  0.00000000000E+00 0.  1.
         21   -1    0    0  501  502 -0.00000000000E+00 -0.00000000000E+00 -0.25076604217E+04  0.25076604217E+04  0.00000000000E+00 0.  1.
         25    1    1    2    0    0 -0.20226313497E+02 -0.16813755568E+02 -0.32027886499E+03  0.34481206112E+03  0.12500000000E+03 0.  0.
         25    1    1    2    0    0  0.10872996664E+03  0.50365246224E+02 -0.16531341224E+04  0.16621781765E+04  0.12500000000E+03 0.  0.
         25    1    1    2    0    0 -0.88503653140E+02 -0.33551490655E+02 -0.50558172894E+03  0.52933588938E+03  0.12500000000E+03 0.  0.
</event>
<event>
 5    0  0.5728184E-005  0.3636270E+03  0.7546771E-02  0.1057157E+00
         21   -1    0    0  502  501  0.00000000000E+00  0.00000000000E+00  0.44205846819E+03  0.44205846819E+03  0.00000000000E+00 0. -1.
         21   -1    0    0  501  502 -0.00000000000E+00 -0.00000000000E+00 -0.29911110038E+03  0.29911110038E+03  0.00000000000E+00 0. -1.
         25    1    1    2    0    0  0.28203397166E+01 -0.17054945468E+02 -0.36692803844E+02  0.13141608477E+03  0.12500000000E+03 0.  0.
         25    1    1    2    0    0  0.99132485481E+02  0.21099829993E+03 -0.49321816238E+02  0.26908209492E+03  0.12500000000E+03 0.  0.
         25    1    1    2    0    0 -0.10195282520E+03 -0.19394335446E+03  0.22896198789E+03  0.34067138889E+03  0.12500000000E+03 0.  0.
</event>
<event>
 5    0  0.5728184E-005  0.2311916E+03  0.7546771E-02  0.1125804E+00
         21   -1    0    0  502  501  0.00000000000E+00  0.00000000000E+00  0.69470664982E+02  0.69470664982E+02  0.00000000000E+00 0. -1.
         21   -1    0    0  501  502 -0.00000000000E+00 -0.00000000000E+00 -0.76938315121E+03  0.76938315121E+03  0.00000000000E+00 0. -1.
         25    1    1    2    0    0 -0.36159527644E+02  0.87893658278E+02 -0.12411761825E+03  0.20015741247E+03  0.12500000000E+03 0.  0.
         25    1    1    2    0    0  0.17576837259E+02 -0.24291288228E+02 -0.34283748783E+03  0.36614417236E+03  0.12500000000E+03 0.  0.
         25    1    1    2    0    0  0.18582690385E+02 -0.63602370050E+02 -0.23295738015E+03  0.27255223137E+03  0.12500000000E+03 0.  0.
</event>
<event>
 5    0  0.5728184E-005  0.5230692E+03  0.7546771E-02  0.1007927E+00
         21   -1    0    0  502  501  0.00000000000E+00  0.00000000000E+00  0.25406513786E+03  0.25406513786E+03  0.00000000000E+00 0. -1.
         21   -1    0    0  501  502 -0.00000000000E+00 -0.00000000000E+00 -0.10768946739E+04  0.10768946739E+04  0.00000000000E+00 0. -1.
         25    1    1    2    0    0 -0.11210984069E+03 -0.36244823003E+03 -0.83986068766E+02  0.40818622660E+03  0.12500000000E+03 0.  0.
         25    1    1    2    0    0  0.20149998278E+03  0.26655083540E+03 -0.38261569596E+03  0.52313608335E+03  0.12500000000E+03 0.  0.
         25    1    1    2    0    0 -0.89390142085E+02  0.95897394638E+02 -0.35622777128E+03  0.39963750178E+03  0.12500000000E+03 0.  0.
</event>
<event>
 5    0  0.5728184E-005  0.3767080E+03  0.7546771E-02  0.1052157E+00
         21   -1    0    0  502  501  0.00000000000E+00  0.00000000000E+00  0.12945449135E+04  0.12945449135E+04  0.00000000000E+00 0.  1.
         21   -1    0    0  501  502 -0.00000000000E+00 -0.00000000000E+00 -0.10962069414E+03  0.10962069414E+03  0.00000000000E+00 0.  1.
         25    1    1    2    0    0  0.70051058053E+02 -0.13549696325E+03  0.39287081185E+03  0.43958964113E+03  0.12500000000E+03 0.  0.
         25    1    1    2    0    0 -0.26915544310E+03  0.81248542780E+02  0.47960061403E+03  0.56981376539E+03  0.12500000000E+03 0.  0.
         25    1    1    2    0    0  0.19910438505E+03  0.54248420468E+02  0.31245279348E+03  0.39476220111E+03  0.12500000000E+03 0.  0.
</event>
<event>
 5    0  0.5728184E-005  0.2556558E+03  0.7546771E-02  0.1109782E+00
         21   -1    0    0  502  501  0.00000000000E+00  0.00000000000E+00  0.43059298710E+03  0.43059298710E+03  0.00000000000E+00 0.  1.
         21   -1    0    0  501  502 -0.00000000000E+00 -0.00000000000E+00 -0.15179039412E+03  0.15179039412E+03  0.00000000000E+00 0.  1.
         25    1    1    2    0    0 -0.42165476357E+02 -0.10870380872E+03  0.25856101872E+02  0.17288141436E+03  0.12500000000E+03 0.  0.
         25    1    1    2    0    0  0.56468228629E+02  0.87651225090E+02  0.22699167690E+03  0.27932350328E+03  0.12500000000E+03 0.  0.
         25    1    1    2    0    0 -0.14302752272E+02  0.21052583625E+02  0.25954814217E+02  0.13017846358E+03  0.12500000000E+03 0.  0.
</event>
<event>
 5    0  0.5728184E-005  0.5040739E+03  0.7546771E-02  0.1012721E+00
         21   -1    0    0  502  501  0.00000000000E+00  0.00000000000E+00  0.84242308867E+03  0.84242308867E+03  0.00000000000E+00 0.  1.
         21   -1    0    0  501  502 -0.00000000000E+00 -0.00000000000E+00 -0.30161866878E+03  0.30161866878E+03  0.00000000000E+00 0.  1.
         25    1    1    2    0    0 -0.14369135702E+03 -0.10659364398E+03 -0.13596962511E+03  0.25714227574E+03  0.12500000000E+03 0.  0.
         25    1    1    2    0    0 -0.17670955859E+03  0.21988603712E+02  0.22714663086E+03  0.31453196770E+03  0.12500000000E+03 0.  0.
         25    1    1    2    0    0  0.32040091561E+03  0.84605040264E+02  0.44962741414E+03  0.57236751402E+03  0.12500000000E+03 0.  0.
</event>
<event>
 5    0  0.5728184E-005  0.2708589E+03  0.7546771E-02  0.1100789E+00
         21   -1    0    0  502  501  0.00000000000E+00  0.00000000000E+00  0.22418037821E+04  0.22418037821E+04  0.00000000000E+00 0. -1.
         21   -1    0    0  501  502 -0.00000000000E+00 -0.00000000000E+00 -0.32725678313E+02  0.32725678313E+02  0.00000000000E+00 0. -1.
         25    1    1    2    0    0  0.78375151950E+02  0.92858554187E+02  0.79964335933E+03  0.81842524255E+03  0.12500000000E+03 0.  0.
         25    1    1    2    0    0 -0.63782275512E+00 -0.13151559222E+03  0.45899815131E+03  0.49355958173E+03  0.12500000000E+03 0.  0.
         25    1    1    2    0    0 -0.77737329195E+02  0.38657038035E+02  0.95043659318E+03  0.96254463616E+03  0.12500000000E+03 0.  0.
</event>
<event>
 5    0  0.5728184E-005  0.2921032E+03  0.7546771E-02  0.1089256E+00
         21   -1    0    0  502  501  0.00000000000E+00  0.00000000000E+00  0.19131153456E+04  0.19131153456E+04  0.00000000000E+00 0.  1.
         21   -1    0    0  501  502 -0.00000000000E+00 -0.00000000000E+00 -0.44599640245E+02  0.44599640245E+02  0.00000000000E+00 0.  1.
         25    1    1    2    0    0  0.11134664981E+03 -0.76820031221E+02  0.66842495446E+03  0.69333708494E+03  0.12500000000E+03 0.  0.
         25    1    1    2    0    0 -0.13383898122E+01  0.16624965888E+03  0.58334296747E+03  0.61931797815E+03  0.12500000000E+03 0.  0.
         25    1    1    2    0    0 -0.11000825999E+03 -0.89429627661E+02  0.61674778343E+03  0.64505992275E+03  0.12500000000E+03 0.  0.
</event>
<event>
 5    0  0.5728184E-005  0.2249951E+03  0.7546771E-02  0.1130213E+00
         21   -1    0    0  502  501  0.00000000000E+00  0.00000000000E+00  0.20818186478E+04  0.20818186478E+04  0.00000000000E+00 0. -1.
         21   -1    0    0  501  502 -0.00000000000E+00 -0.00000000000E+00 -0.24316625178E+02  0.24316625178E+02  0.00000000000E+00 0. -1.
         25    1    1    2    0    0  0.80203881901E+02 -0.18513366476E+02  0.47507929479E+03  0.49809712281E+03  0.12500000000E+03 0.  0.
         25    1    1    2    0    0 -0.70164783652E+02  0.52893022885E+02  0.97035612801E+03  0.98231195855E+03  0.12500000000E+03 0.  0.
         25    1    1    2    0    0 -0.10039098249E+02 -0.34379656408E+02  0.61206659980E+03  0.62572619161E+03  0.12500000000E+03 0.  0.
</event>
<event>
 5    0  0.5728184E-005  0.3822351E+03  0.7546771E-02  0.1050111E+00
         21   -1    0    0  502  501  0.00000000000E+00  0.00000000000E+00  0.93869120326E+02  0.93869120326E+02  0.00000000000E+00 0. -1.
         21   -1    0    0  501  502 -0.00000000000E+00 -0.00000000000E+00 -0.15564613926E+04  0.15564613926E+04  0.00000000000E+00 0. -1.
         25    1    1    2    0    0 -0.97531875117E+02  0.10985566531E+03 -0.15401816490E+03  0.24683461869E+03  0.12500000000E+03 0.  0.
         25    1    1    2    0    0  0.25984761121E+03 -0.64357902052E+02 -0.82668620035E+03  0.87789395399E+03  0.12500000000E+03 0.  0.
         25    1    1    2    0    0 -0.16231573610E+03 -0.45497763261E+02 -0.48188790697E+03  0.52560194019E+03  0.12500000000E+03 0.  0.
</event>
<event>
 5    0  0.5728184E-005  0.3167777E+03  0.7546771E-02  0.1077142E+00
         21   -1    0    0  502  501  0.00000000000E+00  0.00000000000E+00  0.79410308235E+03  0.79410308235E+03  0.00000000000E+00 0. -1.
         21   -1    0    0  501  502 -0.00000000000E+00 -0.00000000000E+00 -0.12636660190E+03  0.12636660190E+03  0.00000000000E+00 0. -1.
         25    1    1    2    0    0 -0.27360613575E+02  0.39160515913E+02  0.70375674524E+01  0.13400252437E+03  0.12500000000E+03 0.  0.
         25    1    1    2    0    0 -0.33614040092E+02  0.11188002593E+03  0.12247189298E+03  0.21040771959E+03  0.12500000000E+03 0.  0.
         25    1    1    2    0    0  0.60974653667E+02 -0.15104054184E+03  0.53822702002E+03  0.57605944030E+03  0.12500000000E+03 0.  0.
</event>
<event>
 5    0  0.5728184E-005  0.3838460E+03  0.7546771E-02  0.1049521E+00
         21   -1    0    0  502  501  0.00000000000E+00  0.00000000000E+00  0.65941497047E+03  0.65941497047E+03  0.00000000000E+00 0. -1.
         21   -1    0    0  501  502 -0.00000000000E+00 -0.00000000000E+00 -0.22343711627E+03  0.22343711627E+03  0.00000000000E+00 0. -1.
         25    1    1    2    0    0  0.12797574721E+03 -0.17125808303E+03  0.34376235924E+03  0.42367992932E+03  0.12500000000E+03 0.  0.
         25    1    1    2    0    0 -0.31159086910E+02 -0.51921763577E+02  0.12092542306E+03  0.18415948570E+03  0.12500000000E+03 0.  0.
         25    1    1    2    0    0 -0.96816660298E+02  0.22317984661E+03 -0.28709928101E+02  0.27501267173E+03  0.12500000000E+03 0.  0.
</event>
<event>
 5    0  0.5795020E-005  0.2895610E+03  0.7546771E-02  0.1090579E+00
         21   -1    0    0  502  501  0.00000000000E+00  0.00000000000E+00  0.21552269863E+03  0.21552269863E+03  0.00000000000E+00 0.  1.
         21   -1    0    0  501  502 -0.00000000000E+00 -0.00000000000E+00 -0.38903364962E+03  0.38903364962E+03  0.00000000000E+00 0.  1.
         25    1    1    2    0    0  0.10596244471E+03  0.30109005245E+02 -0.30469810978E+02  0.16937532662E+03  0.12500000000E+03 0.  0.
         25    1    1    2    0    0 -0.52017393592E+02 -0.13502616239E+03 -0.17633141110E+03  0.26010697858E+03  0.12500000000E+03 0.  0.
         25    1    1    2    0    0 -0.53945051116E+02  0.10491715715E+03  0.33290271079E+02  0.17507404306E+03  0.12500000000E+03 0.  0.
</event>
<event>
 5    0  0.5728184E-005  0.2254099E+03  0.7546771E-02  0.1129913E+00
         21   -1    0    0  502  501  0.00000000000E+00  0.00000000000E+00  0.53818092597E+03  0.53818092597E+03  0.00000000000E+00 0. -1.
         21   -1    0    0  501  502 -0.00000000000E+00 -0.00000000000E+00 -0.94409904079E+02  0.94409904079E+02  0.00000000000E+00 0. -1.
         25    1    1    2    0    0  0.10036954966E+03 -0.30437928686E+02  0.14399898786E+03  0.21762633689E+03  0.12500000000E+03 0.  0.
         25    1    1    2    0    0 -0.57549968026E+02 -0.29416874330E+02  0.16626324721E+03  0.21782061125E+03  0.12500000000E+03 0.  0.
         25    1    1    2    0    0 -0.42819581632E+02  0.59854803016E+02  0.13350878682E+03  0.19714388191E+03  0.12500000000E+03 0.  0.
</event>
<event>
 5    0  0.5728184E-005  0.4748854E+03  0.7546771E-02  0.1020550E+00
         21   -1    0    0  502  501  0.00000000000E+00  0.00000000000E+00  0.13308949285E+04  0.13308949285E+04  0.00000000000E+00 0.  1.
         21   -1    0    0  501  502 -0.00000000000E+00 -0.00000000000E+00 -0.16944702222E+03  0.16944702222E+03  0.00000000000E+00 0.  1.
         25    1    1    2    0    0 -0.41997648605E+02 -0.13260429259E+03  0.17459002111E+03  0.25584052918E+03  0.12500000000E+03 0.  0.
         25    1    1    2    0    0  0.65458743890E+02 -0.14958189891E+03  0.89975834283E+03  0.92295702345E+03  0.12500000000E+03 0.  0.
         25    1    1    2    0    0 -0.23461095285E+02  0.28218619150E+03  0.87099542340E+02  0.32154439809E+03  0.12500000000E+03 0.  0.
</event>
<event>
 5    0  0.5728184E-005  0.3384552E+03  0.7546771E-02  0.1067456E+00
         21   -1    0    0  502  501  0.00000000000E+00  0.00000000000E+00  0.68824090994E+03  0.68824090994E+03  0.00000000000E+00 0.  1.
         21   -1    0    0  501  502 -0.00000000000E+00 -0.00000000000E+00 -0.16644164621E+03  0.16644164621E+03  0.00000000000E+00 0.  1.
         25    1    1    2    0    0 -0.25909382843E+02 -0.10007786720E+03 -0.71667863799E+02  0.17733628598E+03  0.12500000000E+03 0.  0.
         25    1    1    2    0    0  0.61491665660E+02  0.12349266736E+03  0.26997766018E+03  0.32793993480E+03  0.12500000000E+03 0.  0.
         25    1    1    2    0    0 -0.35582282816E+02 -0.23414800163E+02  0.32348946734E+03  0.34940633537E+03  0.12500000000E+03 0.  0.
</event>
<event>
 5    0  0.5728184E-005  0.3269609E+03  0.7546771E-02  0.1072490E+00
         21   -1    0    0  502  501  0.00000000000E+00  0.00000000000E+00  0.46621142844E+03  0.46621142844E+03  0.00000000000E+00 0.  1.
         21   -1    0    0  501  502 -0.00000000000E+00 -0.00000000000E+00 -0.22930249535E+03  0.22930249535E+03  0.00000000000E+00 0.  1.
         25    1    1    2    0    0  0.18927950585E+03  0.23137760571E+02  0.60848264061E+02  0.23598643719E+03  0.12500000000E+03 0.  0.
         25    1    1    2    0    0 -0.21531016665E+03  0.78690003245E+02  0.10510605576E+03  0.28146557059E+03  0.12500000000E+03 0.  0.
         25    1    1    2    0    0  0.26030660796E+02 -0.10182776382E+03  0.70954613280E+02  0.17806191600E+03  0.12500000000E+03 0.  0.
</event>
<event>
 5    0  0.5728184E-005  0.3977286E+03  0.7546771E-02  0.1044569E+00
         21   -1    0    0  502  501  0.00000000000E+00  0.00000000000E+00  0.25559303650E+03  0.25559303650E+03  0.00000000000E+00 0. -1.
         21   -1    0    0  501  502 -0.00000000000E+00 -0.00000000000E+00 -0.61890596661E+03  0.61890596661E+03  0.00000000000E+00 0. -1.
         25    1    1    2    0    0 -0.95546112821E+02  0.14362651260E+03 -0.17688836041E+01  0.21303934788E+03  0.12500000000E+03 0.  0.
         25    1    1    2    0    0 -0.18681151538E+03 -0.58172025029E+02 -0.17469117001E+03  0.29055899857E+03  0.12500000000E+03 0.  0.
         25    1    1    2    0    0  0.28235762820E+03 -0.85454487573E+02 -0.18685287650E+03  0.37090065665E+03  0.12500000000E+03 0.  0.
</event>
<event>
 5    0  0.5728184E-005  0.2649050E+03  0.7546771E-02  0.1104232E+00
         21   -1    0    0  502  501  0.00000000000E+00  0.00000000000E+00  0.47794634029E+02  0.47794634029E+02  0.00000000000E+00 0.  1.
         21   -1    0    0  501  502 -0.00000000000E+00 -0.00000000000E+00 -0.14682537502E+04  0.14682537502E+04  0.00000000000E+00 0.  1.
         25    1    1    2    0    0 -0.38057448961E+02  0.21073617541E+02 -0.19086103942E+03  0.23226149734E+03  0.12500000000E+03 0.  0.
         25    1    1    2    0    0 -0.37179783260E+02  0.85044166334E+02 -0.84183272196E+03  0.85610874208E+03  0.12500000000E+03 0.  0.
         25    1    1    2    0    0  0.75237232221E+02 -0.10611778388E+03 -0.38776535478E+03  0.42767814479E+03  0.12500000000E+03 0.  0.
</event>
<event>
 5    0  0.5728184E-005  0.2926320E+03  0.7546771E-02  0.1088983E+00
         21   -1    0    0  502  501  0.00000000000E+00  0.00000000000E+00  0.12579459318E+03  0.12579459318E+03  0.00000000000E+00 0. -1.
         21   -1    0    0  501  502 -0.00000000000E+00 -0.00000000000E+00 -0.68074056069E+03  0.68074056069E+03  0.00000000000E+00 0. -1.
         25    1    1    2    0    0 -0.15841657248E+03  0.21394723191E+00 -0.16848033949E+03  0.26288111573E+03  0.12500000000E+03 0.  0.
         25    1    1    2    0    0  0.15775012798E+03  0.76415929170E+02 -0.31237194356E+03  0.37937544495E+03  0.12500000000E+03 0.  0.
         25    1    1    2    0    0  0.66644450599E+00 -0.76629876401E+02 -0.74093684456E+02  0.16427859319E+03  0.12500000000E+03 0.  0.
</event>
<event>
 5    0  0.5728184E-005  0.2602654E+03  0.7546771E-02  0.1106984E+00
         21   -1    0    0  502  501  0.00000000000E+00  0.00000000000E+00  0.12481071031E+03  0.12481071031E+03  0.00000000000E+00 0. -1.
         21   -1    0    0  501  502 -0.00000000000E+00 -0.00000000000E+00 -0.54272659457E+03  0.54272659457E+03  0.00000000000E+00 0. -1.
         25    1    1    2    0    0 -0.90627749998E+02 -0.21283752870E+02 -0.47848756324E+02  0.16303647042E+03  0.12500000000E+03 0.  0.
         25    1    1    2    0    0 -0.31330396647E+02 -0.33821045940E+02 -0.25644592902E+03  0.28898956973E+03  0.12500000000E+03 0.  0.
         25    1    1    2    0    0  0.12195814664E+03  0.55104798810E+02 -0.11362119892E+03  0.21551126474E+03  0.12500000000E+03 0.  0.
</event>
<event>
 5    0  0.5728184E-005  0.3466649E+03  0.7546771E-02  0.1063992E+00
         21   -1    0    0  502  501  0.00000000000E+00  0.00000000000E+00  0.13579381275E+03  0.13579381275E+03  0.00000000000E+00 0. -1.
         21   -1    0    0  501  502 -0.00000000000E+00 -0.00000000000E+00 -0.88499290187E+03  0.88499290187E+03  0.00000000000E+00 0. -1.
         25    1    1    2    0    0 -0.17202931017E+03  0.37170424263E+02 -0.43261359833E+03  0.48348241898E+03  0.12500000000E+03 0.  0.
         25    1    1    2    0    0  0.22337010258E+03 -0.10254889858E+03 -0.25317614291E+03  0.37434427826E+03  0.12500000000E+03 0.  0.
         25    1    1    2    0    0 -0.51340792405E+02  0.65378474317E+02 -0.63409347879E+02  0.16296001739E+03  0.12500000000E+03 0.  0.
</event>
<event>
 5    0  0.5728184E-005  0.2957749E+03  0.7546771E-02  0.1087372E+00
         21   -1    0    0  502  501  0.00000000000E+00  0.00000000000E+00  0.11868566063E+03  0.11868566063E+03  0.00000000000E+00 0.  1.
         21   -1    0    0  501  502 -0.00000000000E+00 -0.00000000000E+00 -0.73709658048E+03  0.73709658048E+03  0.00000000000E+00 0.  1.
         25    1    1    2    0    0  0.83393023533E+02 -0.70998433873E+02 -0.47579410908E+03  0.50398433331E+03  0.12500000000E+03 0.  0.
         25    1    1    2    0    0 -0.80320499285E+02  0.21059378167E+02 -0.15603739636E+03  0.21648914309E+03  0.12500000000E+03 0.  0.
         25    1    1    2    0    0 -0.30725242479E+01  0.49939055706E+02  0.13420585585E+02  0.13530876471E+03  0.12500000000E+03 0.  0.
</event>
<event>
 5    0  0.5728184E-005  0.2987231E+03  0.7546771E-02  0.1085881E+00
         21   -1    0    0  502  501  0.00000000000E+00  0.00000000000E+00  0.16838738208E+03  0.16838738208E+03  0.00000000000E+00 0.  1.
         21   -1    0    0  501  502 -0.00000000000E+00 -0.00000000000E+00 -0.52994180594E+03  0.52994180594E+03  0.00000000000E+00 0.  1.
         25    1    1    2    0    0  0.10609337211E+03 -0.26119895399E+02 -0.32223537437E+01  0.16605251008E+03  0.12500000000E+03 0.  0.
         25    1    1    2    0    0 -0.68912897810E+02  0.11286715787E+03 -0.53684357753E+02  0.18972346475E+03  0.12500000000E+03 0.  0.
         25    1    1    2    0    0 -0.37180474297E+02 -0.86747262469E+02 -0.30464771236E+03  0.34255321318E+03  0.12500000000E+03 0.  0.
</event>
<event>
 5    0  0.5728184E-005  0.5242757E+03  0.7546771E-02  0.1007630E+00
         21   -1    0    0  502  501  0.00000000000E+00  0.00000000000E+00  0.45096702567E+03  0.45096702567E+03  0.00000000000E+00 0.  1.
         21   -1    0    0  501  502 -0.00000000000E+00 -0.00000000000E+00 -0.60950132387E+03  0.60950132387E+03  0.00000000000E+00 0.  1.
         25    1    1    2    0    0  0.18180672842E+03  0.14890181629E+03 -0.16322156464E+03  0.31223663551E+03  0.12500000000E+03 0.  0.
         25    1    1    2    0    0 -0.25111097621E+03  0.21292879189E+03  0.53277081120E+02  0.35617248653E+03  0.12500000000E+03 0.  0.
         25    1    1    2    0    0  0.69304247791E+02 -0.36183060818E+03 -0.48589814680E+02  0.39205922750E+03  0.12500000000E+03 0.  0.
</event>
<event>
 5    0  0.5728184E-005  0.3953753E+03  0.7546771E-02  0.1045393E+00
         21   -1    0    0  502  501  0.00000000000E+00  0.00000000000E+00  0.23025626818E+03  0.23025626818E+03  0.00000000000E+00 0.  1.
         21   -1    0    0  501  502 -0.00000000000E+00 -0.00000000000E+00 -0.67890267179E+03  0.67890267179E+03  0.00000000000E+00 0.  1.
         25    1    1    2    0    0  0.11302689222E+03 -0.11078437511E+03 -0.21465504994E+03  0.29453360861E+03  0.12500000000E+03 0.  0.
         25    1    1    2    0    0 -0.29387675228E+03  0.11999322593E+03 -0.94141140039E+02  0.35390602431E+03  0.12500000000E+03 0.  0.
         25    1    1    2    0    0  0.18084986005E+03 -0.92088508217E+01 -0.13985021364E+03  0.26071930705E+03  0.12500000000E+03 0.  0.
</event>
<event>
 5    0  0.5728184E-005  0.2396378E+03  0.7546771E-02  0.1120034E+00
         21   -1    0    0  502  501  0.00000000000E+00  0.00000000000E+00  0.11161507626E+03  0.11161507626E+03  0.00000000000E+00 0. -1.
         21   -1    0    0  501  502 -0.00000000000E+00 -0.00000000000E+00 -0.51450296282E+03  0.51450296282E+03  0.00000000000E+00 0. -1.
         25    1    1    2    0    0  0.94471805954E+02  0.44193956486E+02 -0.16993401217E+03  0.23533082332E+03  0.12500000000E+03 0.  0.
         25    1    1    2    0    0  0.27532320477E+01 -0.79837626782E+02 -0.83989214357E+02  0.17047232932E+03  0.12500000000E+03 0.  0.
         25    1    1    2    0    0 -0.97225038002E+02  0.35643670296E+02 -0.14896466003E+03  0.22031488643E+03  0.12500000000E+03 0.  0.
</event>
<event>
 5    0  0.5728184E-005  0.3437576E+03  0.7546771E-02  0.1065207E+00
         21   -1    0    0  502  501  0.00000000000E+00  0.00000000000E+00  0.18978775900E+04  0.18978775900E+04  0.00000000000E+00 0. -1.
         21   -1    0    0  501  502 -0.00000000000E+00 -0.00000000000E+00 -0.62263905247E+02  0.62263905247E+02  0.00000000000E+00 0. -1.
         25    1    1    2    0    0 -0.22365037363E+03 -0.10090263213E+03  0.79157698008E+03  0.83810497325E+03  0.12500000000E+03 0.  0.
         25    1    1    2    0    0  0.11884861918E+03  0.15320476119E+03  0.71158093768E+03  0.74804353082E+03  0.12500000000E+03 0.  0.
         25    1    1    2    0    0  0.10480175445E+03 -0.52302129056E+02  0.33245576697E+03  0.37399299116E+03  0.12500000000E+03 0.  0.
</event>
<event>
 5    0  0.5728184E-005  0.2722243E+03  0.7546771E-02  0.1100013E+00
         21   -1    0    0  502  501  0.00000000000E+00  0.00000000000E+00  0.47732690385E+03  0.47732690385E+03  0.00000000000E+00 0. -1.
         21   -1    0    0  501  502 -0.00000000000E+00 -0.00000000000E+00 -0.15525218046E+03  0.15525218046E+03  0.00000000000E+00 0. -1.
         25    1    1    2    0    0 -0.28617408468E+02  0.28668483298E+02  0.10160808127E+03  0.16610249902E+03  0.12500000000E+03 0.  0.
         25    1    1    2    0    0  0.43184138173E+02  0.11235041062E+03 -0.33100062101E+01  0.17356105755E+03  0.12500000000E+03 0.  0.
         25    1    1    2    0    0 -0.14566729704E+02 -0.14101889392E+03  0.22377664832E+03  0.29291552774E+03  0.12500000000E+03 0.  0.
</event>
<event>
 5    0  0.5728184E-005  0.4090129E+03  0.7546771E-02  0.1040703E+00
         21   -1    0    0  502  501  0.00000000000E+00  0.00000000000E+00  0.16147461273E+03  0.16147461273E+03  0.00000000000E+00 0.  1.
         21   -1    0    0  501  502 -0.00000000000E+00 -0.00000000000E+00 -0.10360237692E+04  0.10360237692E+04  0.00000000000E+00 0.  1.
         25    1    1    2    0    0  0.79827607423E+02  0.12184279183E+03 -0.52838327855E+03  0.56216723657E+03  0.12500000000E+03 0.  0.
         25    1    1    2    0    0 -0.17287435492E+03  0.10390256712E+03 -0.73134145561E+02  0.24830402592E+03  0.12500000000E+03 0.  0.
         25    1    1    2    0    0  0.93046747494E+02 -0.22574535895E+03 -0.27303173239E+03  0.38702711946E+03  0.12500000000E+03 0.  0.
</event>
<event>
 5    0  0.5728184E-005  0.2849579E+03  0.7546771E-02  0.1093011E+00
         21   -1    0    0  502  501  0.00000000000E+00  0.00000000000E+00  0.45646295218E+03  0.45646295218E+03  0.00000000000E+00 0. -1.
         21   -1    0    0  501  502 -0.00000000000E+00 -0.00000000000E+00 -0.17789180827E+03  0.17789180827E+03  0.00000000000E+00 0. -1.
         25    1    1    2    0    0  0.13798706447E+03  0.19415287735E+02  0.17919298048E+03  0.25913800882E+03  0.12500000000E+03 0.  0.
         25    1    1    2    0    0 -0.13085720698E+03  0.78983676537E+02  0.86145509235E+02  0.21542534331E+03  0.12500000000E+03 0.  0.
         25    1    1    2    0    0 -0.71298574891E+01 -0.98398964271E+02  0.13232654198E+02  0.15979140833E+03  0.12500000000E+03 0.  0.
</event>
<event>
 5    0  0.5728184E-005  0.6556500E+03  0.7546771E-02  0.9796235E-01
         21   -1    0    0  502  501  0.00000000000E+00  0.00000000000E+00  0.47379798835E+03  0.47379798835E+03  0.00000000000E+00 0. -1.
         21   -1    0    0  501  502 -0.00000000000E+00 -0.00000000000E+00 -0.90730007104E+03  0.90730007104E+03  0.00000000000E+00 0. -1.
         25    1    1    2    0    0  0.30157057446E+03 -0.28464234618E+03  0.47504610657E+00  0.43311811586E+03  0.12500000000E+03 0.  0.
         25    1    1    2    0    0 -0.11919564177E+03  0.45991235619E+03 -0.44884773282E+03  0.66544441064E+03  0.12500000000E+03 0.  0.
         25    1    1    2    0    0 -0.18237493269E+03 -0.17527001001E+03  0.14870604022E+02  0.28253553289E+03  0.12500000000E+03 0.  0.
</event>
<event>
 5    0  0.5728184E-005  0.2298047E+03  0.7546771E-02  0.1126777E+00
         21   -1    0    0  502  501  0.00000000000E+00  0.00000000000E+00  0.34186188254E+03  0.34186188254E+03  0.00000000000E+00 0.  1.
         21   -1    0    0  501  502 -0.00000000000E+00 -0.00000000000E+00 -0.15447812977E+03  0.15447812977E+03  0.00000000000E+00 0.  1.
         25    1    1    2    0    0  0.19749206910E+02  0.14950518531E+02  0.47231328690E+02  0.13590197787E+03  0.12500000000E+03 0.  0.
         25    1    1    2    0    0 -0.19625979812E+02  0.66433966107E+02 -0.16822474169E+02  0.14389804229E+03  0.12500000000E+03 0.  0.
         25    1    1    2    0    0 -0.12322709787E+00 -0.81384484638E+02  0.15697489825E+03  0.21653999216E+03  0.12500000000E+03 0.  0.
</event>
<event>
 5    0  0.5728184E-005  0.4185659E+03  0.7546771E-02  0.1037534E+00
         21   -1    0    0  502  501  0.00000000000E+00  0.00000000000E+00  0.68827987177E+03  0.68827987177E+03  0.00000000000E+00 0. -1.
         21   -1    0    0  501  502 -0.00000000000E+00 -0.00000000000E+00 -0.25454382265E+03  0.25454382265E+03  0.00000000000E+00 0. -1.
         25    1    1    2    0    0  0.52488420180E+02  0.13584322098E+03 -0.36791377322E+02  0.19541499529E+03  0.12500000000E+03 0.  0.
         25    1    1    2    0    0  0.35200010392E+01  0.32194779622E+02 -0.82618836428E+02  0.15329633516E+03  0.12500000000E+03 0.  0.
         25    1    1    2    0    0 -0.56008421219E+02 -0.16803800060E+03  0.55314626287E+03  0.59411236396E+03  0.12500000000E+03 0.  0.
</event>
<event>
 5    0  0.5728184E-005  0.2372172E+03  0.7546771E-02  0.1121661E+00
         21   -1    0    0  502  501  0.00000000000E+00  0.00000000000E+00  0.19557395892E+02  0.19557395892E+02  0.00000000000E+00 0.  1.
         21   -1    0    0  501  502 -0.00000000000E+00 -0.00000000000E+00 -0.28772751524E+04  0.28772751524E+04  0.00000000000E+00 0.  1.
         25    1    1    2    0    0  0.60906992796E+02 -0.59913559877E+02 -0.83779040527E+03  0.85136188521E+03  0.12500000000E+03 0.  0.
         25    1    1    2    0    0 -0.76427452407E+02  0.44564429986E+02 -0.15858399554E+04  0.15932170311E+04  0.12500000000E+03 0.  0.
         25    1    1    2    0    0  0.15520459611E+02  0.15349129891E+02 -0.43408739586E+03  0.45225363205E+03  0.12500000000E+03 0.  0.
</event>
<event>
 5    0  0.5728184E-005  0.2881507E+03  0.7546771E-02  0.1091319E+00
         21   -1    0    0  502  501  0.00000000000E+00  0.00000000000E+00  0.53820128076E+02  0.53820128076E+02  0.00000000000E+00 0. -1.
         21   -1    0    0  501  502 -0.00000000000E+00 -0.00000000000E+00 -0.15427468719E+04  0.15427468719E+04  0.00000000000E+00 0. -1.
         25    1    1    2    0    0  0.14440351682E+03  0.23371321641E+02 -0.51788215670E+03  0.55247219168E+03  0.12500000000E+03 0.  0.
         25    1    1    2    0    0 -0.78761515758E+01 -0.84911204280E+02 -0.65857204593E+03  0.67573225915E+03  0.12500000000E+03 0.  0.
         25    1    1    2    0    0 -0.13652736524E+03  0.61539882639E+02 -0.31247254117E+03  0.36836254913E+03  0.12500000000E+03 0.  0.
</event>
<event>
 5    0  0.5728184E-005  0.2299193E+03  0.7546771E-02  0.1126697E+00
         21   -1    0    0  502  501  0.00000000000E+00  0.00000000000E+00  0.46869080454E+03  0.46869080454E+03  0.00000000000E+00 0. -1.
         21   -1    0    0  501  502 -0.00000000000E+00 -0.00000000000E+00 -0.11278837022E+03  0.11278837022E+03  0.00000000000E+00 0. -1.
         25    1    1    2    0    0  0.13203448391E+02  0.10770274240E+03  0.20457791618E+03  0.26315648492E+03  0.12500000000E+03 0.  0.
         25    1    1    2    0    0 -0.13013935481E+02 -0.28000045169E+02  0.93817652949E+02  0.15931138393E+03  0.12500000000E+03 0.  0.
         25    1    1    2    0    0 -0.18951291011E+00 -0.79702697228E+02  0.57506865198E+02  0.15901130590E+03  0.12500000000E+03 0.  0.
</event>
<event>
 5    0  0.5728184E-005  0.3124713E+03  0.7546771E-02  0.1079167E+00
         21   -1    0    0  502  501  0.00000000000E+00  0.00000000000E+00  0.47945856674E+02  0.47945856674E+02  0.00000000000E+00 0. -1.
         21   -1    0    0  501  502 -0.00000000000E+00 -0.00000000000E+00 -0.20364288464E+04  0.20364288464E+04  0.00000000000E+00 0. -1.
         25    1    1    2    0    0 -0.74260137914E+02  0.19454766145E+02 -0.82409982670E+03  0.83705351106E+03  0.12500000000E+03 0.  0.
         25    1    1    2    0    0  0.62512011966E+01  0.47278515842E+02 -0.10353731046E+04  0.10439812265E+04  0.12500000000E+03 0.  0.
         25    1    1    2    0    0  0.68008936717E+02 -0.66733281988E+02 -0.12901005844E+03  0.20333996552E+03  0.12500000000E+03 0.  0.
</event>
<event>
 5    0  0.5728184E-005  0.2890469E+03  0.7546771E-02  0.1090848E+00
         21   -1    0    0  502  501  0.00000000000E+00  0.00000000000E+00  0.73652354313E+02  0.73652354313E+02  0.00000000000E+00 0.  1.
         21   -1    0    0  501  502 -0.00000000000E+00 -0.00000000000E+00 -0.11343578036E+04  0.11343578036E+04  0.00000000000E+00 0.  1.
         25    1    1    2    0    0 -0.11383690760E+03 -0.10461056554E+03 -0.62512331566E+03  0.65597741710E+03  0.12500000000E+03 0.  0.
         25    1    1    2    0    0  0.91577051999E+02  0.13345134460E+03 -0.22151150580E+03  0.30147630924E+03  0.12500000000E+03 0.  0.
         25    1    1    2    0    0  0.22259855603E+02 -0.28840779056E+02 -0.21407062779E+03  0.25055643155E+03  0.12500000000E+03 0.  0.
</event>
<event>
 5    0  0.5728184E-005  0.2246477E+03  0.7546771E-02  0.1130465E+00
         21   -1    0    0  502  501  0.00000000000E+00  0.00000000000E+00  0.13280123491E+03  0.13280123491E+03  0.00000000000E+00 0.  1.
         21   -1    0    0  501  502 -0.00000000000E+00 -0.00000000000E+00 -0.38001579391E+03  0.38001579391E+03  0.00000000000E+00 0.  1.
         25    1    1    2    0    0 -0.49558600728E+02  0.50998826346E+02 -0.44378037396E+02  0.15050363915E+03  0.12500000000E+03 0.  0.
         25    1    1    2    0    0  0.58898004256E+02 -0.75526253450E+02 -0.16725894897E+03  0.22972537056E+03  0.12500000000E+03 0.  0.
         25    1    1    2    0    0 -0.93394035281E+01  0.24527427103E+02 -0.35577572629E+02  0.13258801911E+03  0.12500000000E+03 0.  0.
</event>
<event>
 5    0  0.5728184E-005  0.2867597E+03  0.7546771E-02  0.1092053E+00
         21   -1    0    0  502  501  0.00000000000E+00  0.00000000000E+00  0.85050149739E+02  0.85050149739E+02  0.00000000000E+00 0. -1.
         21   -1    0    0  501  502 -0.00000000000E+00 -0.00000000000E+00 -0.96685486481E+03  0.96685486481E+03  0.00000000000E+00 0. -1.
         25    1    1    2    0    0 -0.24613787291E+02  0.19826337633E+02 -0.24838558342E+03  0.27985589192E+03  0.12500000000E+03 0.  0.
         25    1    1    2    0    0 -0.13641723717E+03  0.88535210886E+02 -0.23822834535E+03  0.31436585484E+03  0.12500000000E+03 0.  0.
         25    1    1    2    0    0  0.16103102446E+03 -0.10836154852E+03 -0.39519078630E+03  0.45768326779E+03  0.12500000000E+03 0.  0.
</event>
<event>
 5    0  0.5728184E-005  0.3016370E+03  0.7546771E-02  0.1084425E+00
         21   -1    0    0  502  501  0.00000000000E+00  0.00000000000E+00  0.68277548698E+03  0.68277548698E+03  0.00000000000E+00 0.  1.
         21   -1    0    0  501  502 -0.00000000000E+00 -0.00000000000E+00 -0.13325741474E+03  0.13325741474E+03  0.00000000000E+00 0.  1.
         25    1    1    2    0    0  0.11475646405E+03  0.14606608924E+03  0.14616337304E+03  0.26738189932E+03  0.12500000000E+03 0.  0.
         25    1    1    2    0    0 -0.14117152511E+03 -0.22850088754E+02  0.16590006657E+03  0.25218913169E+03  0.12500000000E+03 0.  0.
         25    1    1    2    0    0  0.26415061055E+02 -0.12321600049E+03  0.23745463263E+03  0.29646187071E+03  0.12500000000E+03 0.  0.
</event>
<event>
 5    0  0.5728184E-005  0.4232453E+03  0.7546771E-02  0.1036015E+00
         21   -1    0    0  502  501  0.00000000000E+00  0.00000000000E+00  0.13186982228E+03  0.13186982228E+03  0.00000000000E+00 0.  1.
         21   -1    0    0  501  502 -0.00000000000E+00 -0.00000000000E+00 -0.13584348119E+04  0.13584348119E+04  0.00000000000E+00 0.  1.
         25    1    1    2    0    0 -0.23338517068E+03  0.14619608656E+03 -0.52455916978E+03  0.60549917937E+03  0.12500000000E+03 0.  0.
         25    1    1    2    0    0 -0.51563507652E+01 -0.40719530786E+02 -0.53475496840E+03  0.55070186523E+03  0.12500000000E+03 0.  0.
         25    1    1    2    0    0  0.23854152145E+03 -0.10547655577E+03 -0.16725085145E+03  0.33410358960E+03  0.12500000000E+03 0.  0.
</event>
<event>
 5    0  0.5728184E-005  0.2596942E+03  0.7546771E-02  0.1107327E+00
         21   -1    0    0  502  501  0.00000000000E+00  0.00000000000E+00  0.23742812878E+03  0.23742812878E+03  0.00000000000E+00 0. -1.
         21   -1    0    0  501  502 -0.00000000000E+00 -0.00000000000E+00 -0.28404838285E+03  0.28404838285E+03  0.00000000000E+00 0. -1.
         25    1    1    2    0    0 -0.34459549186E+02  0.79125186984E+02  0.11169962647E+03  0.18854724156E+03  0.12500000000E+03 0.  0.
         25    1    1    2    0    0  0.72731324437E+02 -0.11258703611E+02 -0.88520312703E+02  0.16993366271E+03  0.12500000000E+03 0.  0.
         25    1    1    2    0    0 -0.38271775250E+02 -0.67866483373E+02 -0.69799567850E+02  0.16299560736E+03  0.12500000000E+03 0.  0.
</event>
<event>
 5    0  0.5728184E-005  0.3390527E+03  0.7546771E-02  0.1067200E+00
         21   -1    0    0  502  501  0.00000000000E+00  0.00000000000E+00  0.24329561213E+03  0.24329561213E+03  0.00000000000E+00 0.  1.
         21   -1    0    0  501  502 -0.00000000000E+00 -0.00000000000E+00 -0.47249805937E+03  0.47249805937E+03  0.00000000000E+00 0.  1.
         25    1    1    2    0    0  0.14555816796E+03 -0.72571623489E+01 -0.32448485799E+02  0.19472480812E+03  0.12500000000E+03 0.  0.
         25    1    1    2    0    0 -0.88110459830E+02  0.41038708348E+02  0.10343638429E+03  0.18913411725E+03  0.12500000000E+03 0.  0.
         25    1    1    2    0    0 -0.57447708132E+02 -0.33781545999E+02 -0.30019034573E+03  0.33193474613E+03  0.12500000000E+03 0.  0.
</event>
<event>
 5    0  0.5728184E-005  0.5940587E+03  0.7546771E-02  0.9917810E-01
         21   -1    0    0  502  501  0.00000000000E+00  0.00000000000E+00  0.29276602646E+03  0.29276602646E+03  0.00000000000E+00 0.  1.
         21   -1    0    0  501  502 -0.00000000000E+00 -0.00000000000E+00 -0.12054191412E+04  0.12054191412E+04  0.00000000000E+00 0.  1.
         25    1    1    2    0    0 -0.31618640619E+03  0.63511214188E+02 -0.97785626458E+03  0.10372248512E+04  0.12500000000E+03 0.  0.
         25    1    1    2    0    0  0.23528062521E+03  0.45250383411E+02  0.58206022505E+02  0.27643717343E+03  0.12500000000E+03 0.  0.
         25    1    1    2    0    0  0.80905780983E+02 -0.10876159760E+03  0.69971273600E+01  0.18452314299E+03  0.12500000000E+03 0.  0.
</event>
<event>
 5    0  0.5728184E-005  0.2896099E+03  0.7546771E-02  0.1090553E+00
         21   -1    0    0  502  501  0.00000000000E+00  0.00000000000E+00  0.11950600219E+04  0.11950600219E+04  0.00000000000E+00 0. -1.
         21   -1    0    0  501  502 -0.00000000000E+00 -0.00000000000E+00 -0.70183857059E+02  0.70183857059E+02  0.00000000000E+00 0. -1.
         25    1    1    2    0    0  0.13898653167E+03  0.71471831001E+02  0.32977576388E+03  0.38574931374E+03  0.12500000000E+03 0.  0.
         25    1    1    2    0    0 -0.14761988909E+03 -0.39944733447E+02  0.67423757697E+03  0.70257278882E+03  0.12500000000E+03 0.  0.
         25    1    1    2    0    0  0.86333574178E+01 -0.31527097554E+02  0.12086282399E+03  0.17692177640E+03  0.12500000000E+03 0.  0.
</event>
<event>
 5    0  0.5771597E-005  0.3705938E+03  0.7546771E-02  0.1054466E+00
         21   -1    0    0  502  501  0.00000000000E+00  0.00000000000E+00  0.60723092120E+03  0.60723092120E+03  0.00000000000E+00 0. -1.
         21   -1    0    0  501  502 -0.00000000000E+00 -0.00000000000E+00 -0.22617388414E+03  0.22617388414E+03  0.00000000000E+00 0. -1.
         25    1    1    2    0    0 -0.15963343287E+03 -0.23643946040E+02  0.12531990566E+03  0.23952442011E+03  0.12500000000E+03 0.  0.
         25    1    1    2    0    0  0.18418735056E+01 -0.14648339429E+03 -0.41105023244E+02  0.19691470295E+03  0.12500000000E+03 0.  0.
         25    1    1    2    0    0  0.15779155936E+03  0.17012734033E+03  0.29684215465E+03  0.39696568228E+03  0.12500000000E+03 0.  0.
</event>
<event>
 5    0  0.5728184E-005  0.2665528E+03  0.7546771E-02  0.1103269E+00
         21   -1    0    0  502  501  0.00000000000E+00  0.00000000000E+00  0.21126501743E+03  0.21126501743E+03  0.00000000000E+00 0. -1.
         21   -1    0    0  501  502 -0.00000000000E+00 -0.00000000000E+00 -0.33630922542E+03  0.33630922542E+03  0.00000000000E+00 0. -1.
         25    1    1    2    0    0  0.13317459191E+03  0.66434692498E+02 -0.51864902743E+02  0.20115667633E+03  0.12500000000E+03 0.  0.
         25    1    1    2    0    0 -0.15892144925E+03 -0.28527761326E+02 -0.58905522797E+02  0.21251993039E+03  0.12500000000E+03 0.  0.
         25    1    1    2    0    0  0.25746857345E+02 -0.37906931172E+02 -0.14273782451E+02  0.13389763612E+03  0.12500000000E+03 0.  0.
</event>
<event>
 5    0  0.5728184E-005  0.2700828E+03  0.7546771E-02  0.1101232E+00
         21   -1    0    0  502  501  0.00000000000E+00  0.00000000000E+00  0.14530752659E+04  0.14530752659E+04  0.00000000000E+00 0.  1.
         21   -1    0    0  501  502 -0.00000000000E+00 -0.00000000000E+00 -0.50200225954E+02  0.50200225954E+02  0.00000000000E+00 0.  1.
         25    1    1    2    0    0  0.56061902860E+02  0.91132014575E+02  0.28100533400E+03  0.32563319666E+03  0.12500000000E+03 0.  0.
         25    1    1    2    0    0 -0.15722099352E+02 -0.16104743987E+03  0.55153625194E+03  0.58821824139E+03  0.12500000000E+03 0.  0.
         25    1    1    2    0    0 -0.40339803508E+02  0.69915425298E+02  0.57033345396E+03  0.58942405376E+03  0.12500000000E+03 0.  0.
</event>
<event>
 5    0  0.5728184E-005  0.2553461E+03  0.7546771E-02  0.1109972E+00
         21   -1    0    0  502  501  0.00000000000E+00  0.00000000000E+00  0.14530689302E+04  0.14530689302E+04  0.00000000000E+00 0. -1.
         21   -1    0    0  501  502 -0.00000000000E+00 -0.00000000000E+00 -0.44871655226E+02  0.44871655226E+02  0.00000000000E+00 0. -1.
         25    1    1    2    0    0  0.14754722355E+02  0.44320295124E+01  0.18798132327E+03  0.22627267315E+03  0.12500000000E+03 0.  0.
         25    1    1    2    0    0  0.51132663653E+01  0.12484418897E+03  0.57269494497E+03  0.59934690873E+03  0.12500000000E+03 0.  0.
         25    1    1    2    0    0 -0.19867988720E+02 -0.12927621848E+03  0.64752100673E+03  0.67232100354E+03  0.12500000000E+03 0.  0.
</event>
<event>
 5    0  0.5728184E-005  0.3066008E+03  0.7546771E-02  0.1081987E+00
         21   -1    0    0  502  501  0.00000000000E+00  0.00000000000E+00  0.50266570726E+03  0.50266570726E+03  0.00000000000E+00 0.  1.
         21   -1    0    0  501  502 -0.00000000000E+00 -0.00000000000E+00 -0.18701109464E+03  0.18701109464E+03  0.00000000000E+00 0.  1.
         25    1    1    2    0    0 -0.84990654621E+02  0.24615281016E+02  0.78909755838E+02  0.17228195784E+03  0.12500000000E+03 0.  0.
         25    1    1    2    0    0 -0.52154892207E+01 -0.72483439590E+02  0.30853844514E+03  0.34073746854E+03  0.12500000000E+03 0.  0.
         25    1    1    2    0    0  0.90206143842E+02  0.47868158573E+02 -0.71793588353E+02  0.17665737551E+03  0.12500000000E+03 0.  0.
</event>
<event>
 5    0  0.5728184E-005  0.2690140E+03  0.7546771E-02  0.1101845E+00
         21   -1    0    0  502  501  0.00000000000E+00  0.00000000000E+00  0.22968377683E+03  0.22968377683E+03  0.00000000000E+00 0.  1.
         21   -1    0    0  501  502 -0.00000000000E+00 -0.00000000000E+00 -0.31507895231E+03  0.31507895231E+03  0.00000000000E+00 0.  1.
         25    1    1    2    0    0  0.13448804557E+03  0.31131726623E+02  0.73255104371E+02  0.20011878752E+03  0.12500000000E+03 0.  0.
         25    1    1    2    0    0 -0.21459892451E+02  0.21980085005E+02 -0.77035943035E+02  0.15001062509E+03  0.12500000000E+03 0.  0.
         25    1    1    2    0    0 -0.11302815312E+03 -0.53111811628E+02 -0.81614336814E+02  0.19463331653E+03  0.12500000000E+03 0.  0.
</event>
<event>
 5    0  0.5728184E-005  0.2439176E+03  0.7546771E-02  0.1117210E+00
         21   -1    0    0  502  501  0.00000000000E+00  0.00000000000E+00  0.15498566206E+03  0.15498566206E+03  0.00000000000E+00 0.  1.
         21   -1    0    0  501  502 -0.00000000000E+00 -0.00000000000E+00 -0.38387928706E+03  0.38387928706E+03  0.00000000000E+00 0.  1.
         25    1    1    2    0    0 -0.87146993549E+02  0.22662385052E+02 -0.12414229213E+03  0.19784966737E+03  0.12500000000E+03 0.  0.
         25    1    1    2    0    0  0.40040983539E+02 -0.98330050198E+02 -0.18823025589E+02  0.16507993648E+03  0.12500000000E+03 0.  0.
         25    1    1    2    0    0  0.47106010009E+02  0.75667665146E+02 -0.85928307272E+02  0.17593534528E+03  0.12500000000E+03 0.  0.
</event>
<event>
 5    0  0.5728184E-005  0.2459135E+03  0.7546771E-02  0.1115915E+00
         21   -1    0    0  502  501  0.00000000000E+00  0.00000000000E+00  0.35046628460E+03  0.35046628460E+03  0.00000000000E+00 0.  1.
         21   -1    0    0  501  502 -0.00000000000E+00 -0.00000000000E+00 -0.17255146380E+03  0.17255146380E+03  0.00000000000E+00 0.  1.
         25    1    1    2    0    0  0.75555610428E+02  0.20647664933E+02  0.10634939877E+03  0.18185205787E+03  0.12500000000E+03 0.  0.
         25    1    1    2    0    0 -0.20523962907E+02  0.21093680656E+02  0.13373355433E+03  0.18540722740E+03  0.12500000000E+03 0.  0.
         25    1    1    2    0    0 -0.55031647521E+02 -0.41741345589E+02 -0.62168132300E+02  0.15575846312E+03  0.12500000000E+03 0.  0.
</event>
<event>
 5    0  0.5728184E-005  0.4794364E+03  0.7546771E-02  0.1019290E+00
         21   -1    0    0  502  501  0.00000000000E+00  0.00000000000E+00  0.85256166446E+03  0.85256166446E+03  0.00000000000E+00 0.  1.
         21   -1    0    0  501  502 -0.00000000000E+00 -0.00000000000E+00 -0.26961016365E+03  0.26961016365E+03  0.00000000000E+00 0.  1.
         25    1    1    2    0    0  0.11862187414E+03 -0.19303106682E+03 -0.39984230258E+02  0.26183177892E+03  0.12500000000E+03 0.  0.
         25    1    1    2    0    0  0.13276368101E+03  0.12286834352E+03  0.49945478224E+03  0.54571320704E+03  0.12500000000E+03 0.  0.
         25    1    1    2    0    0 -0.25138555515E+03  0.70162723294E+02  0.12348094883E+03  0.31462684215E+03  0.12500000000E+03 0.  0.
</event>
<event>
 5    0  0.5728184E-005  0.2097893E+03  0.7546771E-02  0.1141733E+00
         21   -1    0    0  502  501  0.00000000000E+00  0.00000000000E+00  0.17261169102E+03  0.17261169102E+03  0.00000000000E+00 0.  1.
         21   -1    0    0  501  502 -0.00000000000E+00 -0.00000000000E+00 -0.25497435194E+03  0.25497435194E+03  0.00000000000E+00 0.  1.
         25    1    1    2    0    0  0.25302199139E+01  0.14879480962E+02 -0.19649806068E+02  0.12743200479E+03  0.12500000000E+03 0.  0.
         25    1    1    2    0    0  0.46230470949E+02 -0.55587110986E+02  0.49091598389E+01  0.14448627340E+03  0.12500000000E+03 0.  0.
         25    1    1    2    0    0 -0.48760690863E+02  0.40707630024E+02 -0.67622014686E+02  0.15566776476E+03  0.12500000000E+03 0.  0.
</event>
<event>
 5    0  0.5728184E-005  0.2829601E+03  0.7546771E-02  0.1094083E+00
         21   -1    0    0  502  501  0.00000000000E+00  0.00000000000E+00  0.86961584546E+02  0.86961584546E+02  0.00000000000E+00 0.  1.
         21   -1    0    0  501  502 -0.00000000000E+00 -0.00000000000E+00 -0.92071011157E+03  0.92071011157E+03  0.00000000000E+00 0.  1.
         25    1    1    2    0    0  0.10187958740E+03 -0.79072857416E+02 -0.13972459168E+03  0.22755203499E+03  0.12500000000E+03 0.  0.
         25    1    1    2    0    0 -0.78862414699E+02  0.12112895521E+03 -0.24008793150E+03  0.30685292746E+03  0.12500000000E+03 0.  0.
         25    1    1    2    0    0 -0.23017172705E+02 -0.42056097790E+02 -0.45393600385E+03  0.47326673366E+03  0.12500000000E+03 0.  0.
</event>
<event>
 5    0  0.5728184E-005  0.2363065E+03  0.7546771E-02  0.1122278E+00
         21   -1    0    0  502  501  0.00000000000E+00  0.00000000000E+00  0.27835887990E+03  0.27835887990E+03  0.00000000000E+00 0.  1.
         21   -1    0    0  501  502 -0.00000000000E+00 -0.00000000000E+00 -0.20060706466E+03  0.20060706466E+03  0.00000000000E+00 0.  1.
         25    1    1    2    0    0 -0.75207152082E+02 -0.99156720989E+02 -0.26067438586E+00  0.17638945261E+03  0.12500000000E+03 0.  0.
         25    1    1    2    0    0  0.71752196649E+02  0.43639015083E+02  0.68469426198E+02  0.16542612758E+03  0.12500000000E+03 0.  0.
         25    1    1    2    0    0  0.34549554330E+01  0.55517705905E+02  0.95430634244E+01  0.13715036437E+03  0.12500000000E+03 0.  0.
</event>
<event>
 5    0  0.5728184E-005  0.2907462E+03  0.7546771E-02  0.1089960E+00
         21   -1    0    0  502  501  0.00000000000E+00  0.00000000000E+00  0.65270532103E+02  0.65270532103E+02  0.00000000000E+00 0. -1.
         21   -1    0    0  501  502 -0.00000000000E+00 -0.00000000000E+00 -0.12951231817E+04  0.12951231817E+04  0.00000000000E+00 0. -1.
         25    1    1    2    0    0 -0.62759969618E+02  0.64177340155E+02 -0.25351306452E+03  0.29656604435E+03  0.12500000000E+03 0.  0.
         25    1    1    2    0    0 -0.51123622048E+02  0.11353074066E+03 -0.43988126122E+03  0.47394448808E+03  0.12500000000E+03 0.  0.
         25    1    1    2    0    0  0.11388359167E+03 -0.17770808082E+03 -0.53645832382E+03  0.58988318135E+03  0.12500000000E+03 0.  0.
</event>
<event>
 5    0  0.5728184E-005  0.2537445E+03  0.7546771E-02  0.1110961E+00
         21   -1    0    0  502  501  0.00000000000E+00  0.00000000000E+00  0.39130855602E+03  0.39130855602E+03  0.00000000000E+00 0. -1.
         21   -1    0    0  501  502 -0.00000000000E+00 -0.00000000000E+00 -0.16454097319E+03  0.16454097319E+03  0.00000000000E+00 0. -1.
         25    1    1    2    0    0 -0.28448516030E+01 -0.40453792590E+02  0.20763926662E+03  0.24573088442E+03  0.12500000000E+03 0.  0.
         25    1    1    2    0    0  0.50554613369E+02 -0.10459215787E+02 -0.58407460152E+02  0.14731461411E+03  0.12500000000E+03 0.  0.
         25    1    1    2    0    0 -0.47709761766E+02  0.50913008377E+02  0.77535776369E+02  0.16280403068E+03  0.12500000000E+03 0.  0.
</event>
<event>
 5    0  0.5728184E-005  0.3954589E+03  0.7546771E-02  0.1045364E+00
         21   -1    0    0  502  501  0.00000000000E+00  0.00000000000E+00  0.72635294607E+02  0.72635294607E+02  0.00000000000E+00 0. -1.
         21   -1    0    0  501  502 -0.00000000000E+00 -0.00000000000E+00 -0.21530547917E+04  0.21530547917E+04  0.00000000000E+00 0. -1.
         25    1    1    2    0    0  0.13256951696E+03 -0.41092284413E+02 -0.12416048716E+04  0.12555759276E+04  0.12500000000E+03 0.  0.
         25    1    1    2    0    0  0.13288218121E+03 -0.31353618566E+02 -0.32285985812E+03  0.37216153948E+03  0.12500000000E+03 0.  0.
         25    1    1    2    0    0 -0.26545169817E+03  0.72445902979E+02 -0.51595476731E+03  0.59795261922E+03  0.12500000000E+03 0.  0.
</event>
<event>
 5    0  0.5728184E-005  0.2915541E+03  0.7546771E-02  0.1089541E+00
         21   -1    0    0  502  501  0.00000000000E+00  0.00000000000E+00  0.80268489430E+02  0.80268489430E+02  0.00000000000E+00 0. -1.
         21   -1    0    0  501  502 -0.00000000000E+00 -0.00000000000E+00 -0.10589934995E+04  0.10589934995E+04  0.00000000000E+00 0. -1.
         25    1    1    2    0    0  0.11131392634E+03 -0.37477571938E+02 -0.15474592817E+03  0.23101225266E+03  0.12500000000E+03 0.  0.
         25    1    1    2    0    0 -0.34637554196E+02 -0.12099431977E+02 -0.69399443786E+03  0.70611573852E+03  0.12500000000E+03 0.  0.
         25    1    1    2    0    0 -0.76676372144E+02  0.49577003915E+02 -0.12998464408E+03  0.20213399778E+03  0.12500000000E+03 0.  0.
</event>
<event>
 5    0  0.5728184E-005  0.3102374E+03  0.7546771E-02  0.1080232E+00
         21   -1    0    0  502  501  0.00000000000E+00  0.00000000000E+00  0.27544441749E+03  0.27544441749E+03  0.00000000000E+00 0. -1.
         21   -1    0    0  501  502 -0.00000000000E+00 -0.00000000000E+00 -0.34942537239E+03  0.34942537239E+03  0.00000000000E+00 0. -1.
         25    1    1    2    0    0 -0.12308405049E+03  0.62522552644E+02  0.14617047399E+03  0.23674788392E+03  0.12500000000E+03 0.  0.
         25    1    1    2    0    0 -0.14321997420E+02 -0.13707924347E+02 -0.10273748372E+03  0.16301232273E+03  0.12500000000E+03 0.  0.
         25    1    1    2    0    0  0.13740604791E+03 -0.48814628297E+02 -0.11741394518E+03  0.22510958322E+03  0.12500000000E+03 0.  0.
</event>
<event>
 5    0  0.5728184E-005  0.3269681E+03  0.7546771E-02  0.1072486E+00
         21   -1    0    0  502  501  0.00000000000E+00  0.00000000000E+00  0.65222506217E+03  0.65222506217E+03  0.00000000000E+00 0.  1.
         21   -1    0    0  501  502 -0.00000000000E+00 -0.00000000000E+00 -0.16391298041E+03  0.16391298041E+03  0.00000000000E+00 0.  1.
         25    1    1    2    0    0 -0.28165076603E+01 -0.23121357688E+03  0.30653803814E+03  0.40380468011E+03  0.12500000000E+03 0.  0.
         25    1    1    2    0    0 -0.62444894930E+02  0.12682972132E+03  0.13090342536E+03  0.22966464657E+03  0.12500000000E+03 0.  0.
         25    1    1    2    0    0  0.65261402590E+02  0.10438385556E+03  0.50870618257E+02  0.18266871591E+03  0.12500000000E+03 0.  0.
</event>
<event>
 5    0  0.5728184E-005  0.3255518E+03  0.7546771E-02  0.1073122E+00
         21   -1    0    0  502  501  0.00000000000E+00  0.00000000000E+00  0.28712971628E+04  0.28712971628E+04  0.00000000000E+00 0.  1.
         21   -1    0    0  501  502 -0.00000000000E+00 -0.00000000000E+00 -0.36911531354E+02  0.36911531354E+02  0.00000000000E+00 0.  1.
         25    1    1    2    0    0 -0.28470989988E+02  0.16663185868E+03  0.14324281426E+04  0.14477748987E+04  0.12500000000E+03 0.  0.
         25    1    1    2    0    0  0.10396541126E+02  0.12278205946E+02  0.94878457955E+03  0.95711860331E+03  0.12500000000E+03 0.  0.
         25    1    1    2    0    0  0.18074448862E+02 -0.17891006463E+03  0.45317290933E+03  0.50331519218E+03  0.12500000000E+03 0.  0.
</event>
<event>
 5    0  0.5728184E-005  0.2578665E+03  0.7546771E-02  0.1108432E+00
         21   -1    0    0  502  501  0.00000000000E+00  0.00000000000E+00  0.31690081947E+02  0.31690081947E+02  0.00000000000E+00 0. -1.
         21   -1    0    0  501  502 -0.00000000000E+00 -0.00000000000E+00 -0.20982949471E+04  0.20982949471E+04  0.00000000000E+00 0.  1.
         25    1    1    2    0    0 -0.11667633046E+03 -0.23671724404E+02 -0.11767534161E+04  0.11893474341E+04  0.12500000000E+03 0.  0.
         25    1    1    2    0    0  0.28936473550E+02  0.12572229123E+02 -0.59035719723E+03  0.60426980792E+03  0.12500000000E+03 0.  0.
         25    1    1    2    0    0  0.87739856910E+02  0.11099495281E+02 -0.29949425174E+03  0.33636778697E+03  0.12500000000E+03 0.  0.
</event>
<event>
 5    0  0.5728184E-005  0.3431478E+03  0.7546771E-02  0.1065463E+00
         21   -1    0    0  502  501  0.00000000000E+00  0.00000000000E+00  0.11592228532E+04  0.11592228532E+04  0.00000000000E+00 0.  1.
         21   -1    0    0  501  502 -0.00000000000E+00 -0.00000000000E+00 -0.10157700651E+03  0.10157700651E+03  0.00000000000E+00 0.  1.
         25    1    1    2    0    0  0.15404937554E+02 -0.49399078122E+02 -0.75435133393E+00  0.13528913506E+03  0.12500000000E+03 0.  0.
         25    1    1    2    0    0 -0.10271162149E+03  0.76704162009E+01  0.22489891298E+03  0.27715164357E+03  0.12500000000E+03 0.  0.
         25    1    1    2    0    0  0.87306683934E+02  0.41728661921E+02  0.83350128504E+03  0.84835908107E+03  0.12500000000E+03 0.  0.
</event>
<event>
 5    0  0.5728184E-005  0.2271245E+03  0.7546771E-02  0.1128680E+00
         21   -1    0    0  502  501  0.00000000000E+00  0.00000000000E+00  0.27386454948E+02  0.27386454948E+02  0.00000000000E+00 0. -1.
         21   -1    0    0  501  502 -0.00000000000E+00 -0.00000000000E+00 -0.18836152262E+04  0.18836152262E+04  0.00000000000E+00 0. -1.
         25    1    1    2    0    0  0.25671569406E+02  0.40062239285E+02 -0.54913639687E+03  0.56519005198E+03  0.12500000000E+03 0.  0.
         25    1    1    2    0    0 -0.86060148653E+02  0.45716605938E+01 -0.41546246543E+03  0.44233619505E+03  0.12500000000E+03 0.  0.
         25    1    1    2    0    0  0.60388579247E+02 -0.44633899879E+02 -0.89162990896E+03  0.90347543413E+03  0.12500000000E+03 0.  0.
</event>
<event>
 5    0  0.5728184E-005  0.3864901E+03  0.7546771E-02  0.1048561E+00
         21   -1    0    0  502  501  0.00000000000E+00  0.00000000000E+00  0.84707555749E+03  0.84707555749E+03  0.00000000000E+00 0. -1.
         21   -1    0    0  501  502 -0.00000000000E+00 -0.00000000000E+00 -0.17634149432E+03  0.17634149432E+03  0.00000000000E+00 0. -1.
         25    1    1    2    0    0 -0.17007020711E+03  0.23160611824E+03  0.36531468428E+03  0.48129521907E+03  0.12500000000E+03 0.  0.
         25    1    1    2    0    0 -0.18169959888E+02 -0.61611427070E+02  0.22879242670E+02  0.14238881674E+03  0.12500000000E+03 0.  0.
         25    1    1    2    0    0  0.18824016699E+03 -0.16999469117E+03  0.28254013622E+03  0.39973301599E+03  0.12500000000E+03 0.  0.
</event>
<event>
 5    0  0.5728184E-005  0.2352804E+03  0.7546771E-02  0.1122977E+00
         21   -1    0    0  502  501  0.00000000000E+00  0.00000000000E+00  0.27290857988E+03  0.27290857988E+03  0.00000000000E+00 0.  1.
         21   -1    0    0  501  502 -0.00000000000E+00 -0.00000000000E+00 -0.20284025194E+03  0.20284025194E+03  0.00000000000E+00 0.  1.
         25    1    1    2    0    0 -0.25802155305E+02 -0.56983309591E+02 -0.56789030238E+02  0.15087359857E+03  0.12500000000E+03 0.  0.
         25    1    1    2    0    0 -0.89922054594E+01 -0.38466386422E+02  0.91761187455E+02  0.16001761830E+03  0.12500000000E+03 0.  0.
         25    1    1    2    0    0  0.34794360765E+02  0.95449696013E+02  0.35096170723E+02  0.16485761496E+03  0.12500000000E+03 0.  0.
</event>
<event>
 5    0  0.5728184E-005  0.2388447E+03  0.7546771E-02  0.1120565E+00
         21   -1    0    0  502  501  0.00000000000E+00  0.00000000000E+00  0.17774447385E+03  0.17774447385E+03  0.00000000000E+00 0. -1.
         21   -1    0    0  501  502 -0.00000000000E+00 -0.00000000000E+00 -0.32094829345E+03  0.32094829345E+03  0.00000000000E+00 0. -1.
         25    1    1    2    0    0  0.44603089235E+02  0.42554187378E+02 -0.13966306342E+03  0.19730956823E+03  0.12500000000E+03 0.  0.
         25    1    1    2    0    0 -0.24047271309E+01  0.28247870122E+02 -0.59794618070E+02  0.14143592623E+03  0.12500000000E+03 0.  0.
         25    1    1    2    0    0 -0.42198362104E+02 -0.70802057499E+02  0.56253861881E+02  0.15994727283E+03  0.12500000000E+03 0.  0.
</event>
<event>
 5    0  0.5728184E-005  0.2805748E+03  0.7546771E-02  0.1095375E+00
         21   -1    0    0  502  501  0.00000000000E+00  0.00000000000E+00  0.56724815894E+02  0.56724815894E+02  0.00000000000E+00 0.  1.
         21   -1    0    0  501  502 -0.00000000000E+00 -0.00000000000E+00 -0.13877915291E+04  0.13877915291E+04  0.00000000000E+00 0.  1.
         25    1    1    2    0    0 -0.16439139324E+03 -0.65861278465E+02 -0.35459565352E+03  0.41560235282E+03  0.12500000000E+03 0.  0.
         25    1    1    2    0    0  0.56540097204E+02 -0.15111766820E+01 -0.31006390760E+03  0.33906296324E+03  0.12500000000E+03 0.  0.
         25    1    1    2    0    0  0.10785129604E+03  0.67372455147E+02 -0.66640715212E+03  0.68985102897E+03  0.12500000000E+03 0.  0.
</event>
<event>
 5    0  0.5728184E-005  0.4133236E+03  0.7546771E-02  0.1039261E+00
         21   -1    0    0  502  501  0.00000000000E+00  0.00000000000E+00  0.10638505334E+03  0.10638505334E+03  0.00000000000E+00 0.  1.
         21   -1    0    0  501  502 -0.00000000000E+00 -0.00000000000E+00 -0.16058311180E+04  0.16058311180E+04  0.00000000000E+00 0.  1.
         25    1    1    2    0    0 -0.16000513073E+03  0.17090043760E+03 -0.10165612856E+04  0.10506333561E+04  0.12500000000E+03 0.  0.
         25    1    1    2    0    0  0.13751185892E+03  0.44221323316E+02 -0.13769031508E+03  0.23547539074E+03  0.12500000000E+03 0.  0.
         25    1    1    2    0    0  0.22493271818E+02 -0.21512176092E+03 -0.34519446399E+03  0.42610742456E+03  0.12500000000E+03 0.  0.
</event>
<event>
 5    0  0.5728184E-005  0.2643551E+03  0.7546771E-02  0.1104555E+00
         21   -1    0    0  502  501  0.00000000000E+00  0.00000000000E+00  0.36415267817E+02  0.36415267817E+02  0.00000000000E+00 0. -1.
         21   -1    0    0  501  502 -0.00000000000E+00 -0.00000000000E+00 -0.19190741589E+04  0.19190741589E+04  0.00000000000E+00 0. -1.
         25    1    1    2    0    0 -0.34888692596E+02 -0.17789991980E+02 -0.54679397017E+03  0.56226537373E+03  0.12500000000E+03 0.  0.
         25    1    1    2    0    0 -0.75995940075E+02 -0.41512757125E+02 -0.10176340043E+04  0.10289327765E+04  0.12500000000E+03 0.  0.
         25    1    1    2    0    0  0.11088463267E+03  0.59302749105E+02 -0.31823091664E+03  0.36429127648E+03  0.12500000000E+03 0.  0.
</event>
<event>
 5    0  0.5728184E-005  0.3673724E+03  0.7546771E-02  0.1055702E+00
         21   -1    0    0  502  501  0.00000000000E+00  0.00000000000E+00  0.31466536782E+03  0.31466536782E+03  0.00000000000E+00 0.  1.
         21   -1    0    0  501  502 -0.00000000000E+00 -0.00000000000E+00 -0.42890804077E+03  0.42890804077E+03  0.00000000000E+00 0.  1.
         25    1    1    2    0    0  0.28710940791E+02  0.20479187905E+03  0.68374572271E+02  0.25112569359E+03  0.12500000000E+03 0.  0.
         25    1    1    2    0    0 -0.66190169517E+02 -0.27437820605E+03 -0.11013159053E+03  0.32774762506E+03  0.12500000000E+03 0.  0.
         25    1    1    2    0    0  0.37479228726E+02  0.69586327001E+02 -0.72485654684E+02  0.16470008994E+03  0.12500000000E+03 0.  0.
</event>
<event>
 5    0  0.5728184E-005  0.2787217E+03  0.7546771E-02  0.1096389E+00
         21   -1    0    0  502  501  0.00000000000E+00  0.00000000000E+00  0.35511041133E+02  0.35511041133E+02  0.00000000000E+00 0.  1.
         21   -1    0    0  501  502 -0.00000000000E+00 -0.00000000000E+00 -0.21876519891E+04  0.21876519891E+04  0.00000000000E+00 0.  1.
         25    1    1    2    0    0  0.47045096805E+02  0.11315831378E+03 -0.12560731561E+04  0.12682124501E+04  0.12500000000E+03 0.  0.
         25    1    1    2    0    0 -0.22024892296E+02  0.62085287551E+01 -0.58083902105E+03  0.59457767372E+03  0.12500000000E+03 0.  0.
         25    1    1    2    0    0 -0.25020204509E+02 -0.11936684254E+03 -0.31522877085E+03  0.36037290645E+03  0.12500000000E+03 0.  0.
</event>
<event>
 5    0  0.5728184E-005  0.3891845E+03  0.7546771E-02  0.1047590E+00
         21   -1    0    0  502  501  0.00000000000E+00  0.00000000000E+00  0.64941117434E+02  0.64941117434E+02  0.00000000000E+00 0.  1.
         21   -1    0    0  501  502 -0.00000000000E+00 -0.00000000000E+00 -0.23323375913E+04  0.23323375913E+04  0.00000000000E+00 0.  1.
         25    1    1    2    0    0  0.26481393394E+03 -0.27476546160E+02 -0.14724308321E+04  0.15015188762E+04  0.12500000000E+03 0.  0.
         25    1    1    2    0    0 -0.16419053331E+03 -0.32195906030E+02 -0.25674295066E+03  0.33096382024E+03  0.12500000000E+03 0.  0.
         25    1    1    2    0    0 -0.10062340063E+03  0.59672452190E+02 -0.53822269109E+03  0.56479601230E+03  0.12500000000E+03 0.  0.
</event>
<event>
 5    0  0.5728184E-005  0.2319506E+03  0.7546771E-02  0.1125274E+00
         21   -1    0    0  502  501  0.00000000000E+00  0.00000000000E+00  0.20429715320E+03  0.20429715320E+03  0.00000000000E+00 0.  1.
         21   -1    0    0  501  502 -0.00000000000E+00 -0.00000000000E+00 -0.26334723459E+03  0.26334723459E+03  0.00000000000E+00 0.  1.
         25    1    1    2    0    0  0.12974509681E+02 -0.15003209316E+02 -0.32597406564E+02  0.13069439585E+03  0.12500000000E+03 0.  0.
         25    1    1    2    0    0  0.32411002520E+02 -0.79218816577E+02  0.46379001483E+02  0.15843644077E+03  0.12500000000E+03 0.  0.
         25    1    1    2    0    0 -0.45385512201E+02  0.94222025894E+02 -0.72831676302E+02  0.17851355118E+03  0.12500000000E+03 0.  0.
</event>
<event>
 5    0  0.5728184E-005  0.3287486E+03  0.7546771E-02  0.1071692E+00
         21   -1    0    0  502  501  0.00000000000E+00  0.00000000000E+00  0.15227625995E+04  0.15227625995E+04  0.00000000000E+00 0. -1.
         21   -1    0    0  501  502 -0.00000000000E+00 -0.00000000000E+00 -0.70973380991E+02  0.70973380991E+02  0.00000000000E+00 0. -1.
         25    1    1    2    0    0 -0.10221587949E+03  0.28863893866E+02  0.28943541561E+03  0.33268464076E+03  0.12500000000E+03 0.  0.
         25    1    1    2    0    0  0.14738038357E+03  0.70144513410E+02  0.10261183326E+04  0.10465108995E+04  0.12500000000E+03 0.  0.
         25    1    1    2    0    0 -0.45164504083E+02 -0.99008407276E+02  0.13623547032E+03  0.21454044028E+03  0.12500000000E+03 0.  0.
</event>
<event>
 5    0  0.5728184E-005  0.2739920E+03  0.7546771E-02  0.1099016E+00
         21   -1    0    0  502  501  0.00000000000E+00  0.00000000000E+00  0.42589079567E+03  0.42589079567E+03  0.00000000000E+00 0.  1.
         21   -1    0    0  501  502 -0.00000000000E+00 -0.00000000000E+00 -0.17626958706E+03  0.17626958706E+03  0.00000000000E+00 0.  1.
         25    1    1    2    0    0 -0.64327664438E+02 -0.81140220092E+02  0.11666972304E+03  0.19989649323E+03  0.12500000000E+03 0.  0.
         25    1    1    2    0    0  0.60994722797E+02 -0.42734118489E+02 -0.44666209236E+02  0.15220588471E+03  0.12500000000E+03 0.  0.
         25    1    1    2    0    0  0.33329416412E+01  0.12387433858E+03  0.17761769480E+03  0.25005800480E+03  0.12500000000E+03 0.  0.
</event>
<event>
 5    0  0.5728184E-005  0.3881604E+03  0.7546771E-02  0.1047958E+00
         21   -1    0    0  502  501  0.00000000000E+00  0.00000000000E+00  0.55557285655E+03  0.55557285655E+03  0.00000000000E+00 0. -1.
         21   -1    0    0  501  502 -0.00000000000E+00 -0.00000000000E+00 -0.27119487904E+03  0.27119487904E+03  0.00000000000E+00 0. -1.
         25    1    1    2    0    0  0.13669177249E+03 -0.29880132464E+02 -0.85506541447E+02  0.20618882514E+03  0.12500000000E+03 0.  0.
         25    1    1    2    0    0 -0.28677858074E+02 -0.52514826826E+02  0.40902576660E+03  0.43186491444E+03  0.12500000000E+03 0.  0.
         25    1    1    2    0    0 -0.10801391442E+03  0.82394959290E+02 -0.39141247632E+02  0.18871399601E+03  0.12500000000E+03 0.  0.
</event>
<event>
 5    0  0.5728184E-005  0.4334192E+03  0.7546771E-02  0.1032785E+00
         21   -1    0    0  502  501  0.00000000000E+00  0.00000000000E+00  0.39381584727E+03  0.39381584727E+03  0.00000000000E+00 0.  1.
         21   -1    0    0  501  502 -0.00000000000E+00 -0.00000000000E+00 -0.47700521615E+03  0.47700521615E+03  0.00000000000E+00 0.  1.
         25    1    1    2    0    0 -0.10646200872E+03  0.40663428698E+02 -0.18426697230E+01  0.16916284807E+03  0.12500000000E+03 0.  0.
         25    1    1    2    0    0 -0.64711646898E+02 -0.27321554506E+03 -0.19853717575E+03  0.36589116068E+03  0.12500000000E+03 0.  0.
         25    1    1    2    0    0  0.17117365562E+03  0.23255211636E+03  0.11719047659E+03  0.33576705468E+03  0.12500000000E+03 0.  0.
</event>
<event>
 5    0  0.5728184E-005  0.2666517E+03  0.7546771E-02  0.1103211E+00
         21   -1    0    0  502  501  0.00000000000E+00  0.00000000000E+00  0.64150214832E+03  0.64150214832E+03  0.00000000000E+00 0.  1.
         21   -1    0    0  501  502 -0.00000000000E+00 -0.00000000000E+00 -0.11083850491E+03  0.11083850491E+03  0.00000000000E+00 0.  1.
         25    1    1    2    0    0 -0.59573824381E+02  0.98348772791E+02  0.20357027240E+03  0.26511766721E+03  0.12500000000E+03 0.  0.
         25    1    1    2    0    0 -0.34938210597E+02 -0.14463349991E+03  0.21051840243E+03  0.28650048101E+03  0.12500000000E+03 0.  0.
         25    1    1    2    0    0  0.94512034978E+02  0.46284727123E+02  0.11657496857E+03  0.20072250501E+03  0.12500000000E+03 0.  0.
</event>
<event>
 5    0  0.5728184E-005  0.3213437E+03  0.7546771E-02  0.1075033E+00
         21   -1    0    0  502  501  0.00000000000E+00  0.00000000000E+00  0.12300101640E+04  0.12300101640E+04  0.00000000000E+00 0. -1.
         21   -1    0    0  501  502 -0.00000000000E+00 -0.00000000000E+00 -0.83951970999E+02  0.83951970999E+02  0.00000000000E+00 0. -1.
         25    1    1    2    0    0  0.45968360279E+02  0.11281872804E+02  0.42302499615E+02  0.14019583544E+03  0.12500000000E+03 0.  0.
         25    1    1    2    0    0  0.65602764333E+02 -0.13077068223E+03  0.57674956357E+03  0.60800473115E+03  0.12500000000E+03 0.  0.
         25    1    1    2    0    0 -0.11157112461E+03  0.11948880943E+03  0.52700612977E+03  0.56576156836E+03  0.12500000000E+03 0.  0.
</event>
<event>
 5    0  0.5728184E-005  0.2712979E+03  0.7546771E-02  0.1100539E+00
         21   -1    0    0  502  501  0.00000000000E+00  0.00000000000E+00  0.50002034702E+02  0.50002034702E+02  0.00000000000E+00 0.  1.
         21   -1    0    0  501  502 -0.00000000000E+00 -0.00000000000E+00 -0.14719912798E+04  0.14719912798E+04  0.00000000000E+00 0.  1.
         25    1    1    2    0    0  0.12179636450E+03  0.32198539953E+02 -0.37217224067E+03  0.41232059991E+03  0.12500000000E+03 0.  0.
         25    1    1    2    0    0 -0.50189897298E+02 -0.10906393154E+03 -0.73350862773E+03  0.75370675591E+03  0.12500000000E+03 0.  0.
         25    1    1    2    0    0 -0.71606467206E+02  0.76865391584E+02 -0.31630837665E+03  0.35596595863E+03  0.12500000000E+03 0.  0.
</event>
<event>
 5    0  0.5728184E-005  0.4754390E+03  0.7546771E-02  0.1020396E+00
         21   -1    0    0  502  501  0.00000000000E+00  0.00000000000E+00  0.27047316803E+03  0.27047316803E+03  0.00000000000E+00 0.  1.
         21   -1    0    0  501  502 -0.00000000000E+00 -0.00000000000E+00 -0.83572878123E+03  0.83572878123E+03  0.00000000000E+00 0.  1.
         25    1    1    2    0    0 -0.30124969750E+03  0.19954426082E+03 -0.11050401572E+03  0.39800179617E+03  0.12500000000E+03 0.  0.
         25    1    1    2    0    0  0.28672029835E+03 -0.23295539872E+02 -0.34198371661E+03  0.46403563882E+03  0.12500000000E+03 0.  0.
         25    1    1    2    0    0  0.14529399142E+02 -0.17624872095E+03 -0.11276788086E+03  0.24416451427E+03  0.12500000000E+03 0.  0.
</event>
<event>
 5    0  0.5728184E-005  0.4902783E+03  0.7546771E-02  0.1016348E+00
         21   -1    0    0  502  501  0.00000000000E+00  0.00000000000E+00  0.19727571736E+04  0.19727571736E+04  0.00000000000E+00 0. -1.
         21   -1    0    0  501  502 -0.00000000000E+00 -0.00000000000E+00 -0.12184614325E+03  0.12184614325E+03  0.00000000000E+00 0. -1.
         25    1    1    2    0    0  0.78676198101E+02  0.26208171626E+03  0.99775277966E+03  0.10421191772E+04  0.12500000000E+03 0.  0.
         25    1    1    2    0    0 -0.13886963922E+03 -0.29799791772E+03  0.83744975501E+03  0.90831416802E+03  0.12500000000E+03 0.  0.
         25    1    1    2    0    0  0.60193441122E+02  0.35916201461E+02  0.15708495666E+02  0.14416997162E+03  0.12500000000E+03 0.  0.
</event>
<event>
 5    0  0.5728184E-005  0.2498206E+03  0.7546771E-02  0.1113418E+00
         21   -1    0    0  502  501  0.00000000000E+00  0.00000000000E+00  0.36594203369E+03  0.36594203369E+03  0.00000000000E+00 0.  1.
         21   -1    0    0  501  502 -0.00000000000E+00 -0.00000000000E+00 -0.17054708658E+03  0.17054708658E+03  0.00000000000E+00 0.  1.
         25    1    1    2    0    0  0.12748730544E+02 -0.64162857516E+02  0.47065205616E+02  0.14872637962E+03  0.12500000000E+03 0.  0.
         25    1    1    2    0    0  0.61466358101E+02 -0.32755258456E+02  0.15751138323E+03  0.21280473675E+03  0.12500000000E+03 0.  0.
         25    1    1    2    0    0 -0.74215088645E+02  0.96918115972E+02 -0.91816417367E+01  0.17495800391E+03  0.12500000000E+03 0.  0.
</event>
<event>
 5    0  0.5728184E-005  0.4736883E+03  0.7546771E-02  0.1020884E+00
         21   -1    0    0  502  501  0.00000000000E+00  0.00000000000E+00  0.42074333615E+03  0.42074333615E+03  0.00000000000E+00 0.  1.
         21   -1    0    0  501  502 -0.00000000000E+00 -0.00000000000E+00 -0.53329569901E+03  0.53329569901E+03  0.00000000000E+00 0.  1.
         25    1    1    2    0    0  0.15930467294E+03 -0.99183435323E+02  0.13668807674E+02  0.22589194090E+03  0.12500000000E+03 0.  0.
         25    1    1    2    0    0 -0.22961019749E+03  0.21129414648E+03  0.17289071765E+03  0.37799769758E+03  0.12500000000E+03 0.  0.
         25    1    1    2    0    0  0.70305524549E+02 -0.11211071116E+03 -0.29911188819E+03  0.35014939668E+03  0.12500000000E+03 0.  0.
</event>
<event>
 5    0  0.5728184E-005  0.2401612E+03  0.7546771E-02  0.1119686E+00
         21   -1    0    0  502  501  0.00000000000E+00  0.00000000000E+00  0.82170396845E+03  0.82170396845E+03  0.00000000000E+00 0.  1.
         21   -1    0    0  501  502 -0.00000000000E+00 -0.00000000000E+00 -0.70192411642E+02  0.70192411642E+02  0.00000000000E+00 0.  1.
         25    1    1    2    0    0  0.32196560306E+02 -0.57882958222E+02  0.63811345757E+02  0.15519002286E+03  0.12500000000E+03 0.  0.
         25    1    1    2    0    0 -0.33248061025E+01  0.49912770014E+02  0.31927810860E+03  0.34650519415E+03  0.12500000000E+03 0.  0.
         25    1    1    2    0    0 -0.28871754203E+02  0.79701882081E+01  0.36842210246E+03  0.39020116308E+03  0.12500000000E+03 0.  0.
</event>
<event>
 5    0  0.5728184E-005  0.3204893E+03  0.7546771E-02  0.1075424E+00
         21   -1    0    0  502  501  0.00000000000E+00  0.00000000000E+00  0.37421590994E+03  0.37421590994E+03  0.00000000000E+00 0.  1.
         21   -1    0    0  501  502 -0.00000000000E+00 -0.00000000000E+00 -0.27447630757E+03  0.27447630757E+03  0.00000000000E+00 0.  1.
         25    1    1    2    0    0 -0.10905158167E+03 -0.31898149526E+02  0.18038915372E+03  0.24713353918E+03  0.12500000000E+03 0.  0.
         25    1    1    2    0    0 -0.38350311098E+01 -0.91121230942E+02  0.41037944984E+02  0.16008403768E+03  0.12500000000E+03 0.  0.
         25    1    1    2    0    0  0.11288661278E+03  0.12301938047E+03 -0.12168749633E+03  0.24147464065E+03  0.12500000000E+03 0.  0.
</event>
<event>
 5    0  0.5728184E-005  0.3198775E+03  0.7546771E-02  0.1075706E+00
         21   -1    0    0  502  501  0.00000000000E+00  0.00000000000E+00  0.11642449720E+04  0.11642449720E+04  0.00000000000E+00 0.  1.
         21   -1    0    0  501  502 -0.00000000000E+00 -0.00000000000E+00 -0.87886673972E+02  0.87886673972E+02  0.00000000000E+00 0.  1.
         25    1    1    2    0    0 -0.35355364342E+02 -0.70502692413E+02  0.45918646354E+02  0.15477129420E+03  0.12500000000E+03 0.  0.
         25    1    1    2    0    0  0.80461438950E+02  0.15612669921E+03  0.51734436571E+03  0.56046389901E+03  0.12500000000E+03 0.  0.
         25    1    1    2    0    0 -0.45106074609E+02 -0.85624006800E+02  0.51309528597E+03  0.53689645276E+03  0.12500000000E+03 0.  0.
</event>
<event>
 5    0  0.5728184E-005  0.3762260E+03  0.7546771E-02  0.1052338E+00
         21   -1    0    0  502  501  0.00000000000E+00  0.00000000000E+00  0.10169180130E+03  0.10169180130E+03  0.00000000000E+00 0. -1.
         21   -1    0    0  501  502 -0.00000000000E+00 -0.00000000000E+00 -0.13919118221E+04  0.13919118221E+04  0.00000000000E+00 0. -1.
         25    1    1    2    0    0 -0.97797671528E+02 -0.21001591156E+02 -0.79487200354E+02  0.17874189886E+03  0.12500000000E+03 0.  0.
         25    1    1    2    0    0 -0.16689389361E+01  0.18262547765E+01 -0.11261921838E+04  0.11331107428E+04  0.12500000000E+03 0.  0.
         25    1    1    2    0    0  0.99466610464E+02  0.19175336379E+02 -0.84540636627E+02  0.18175098174E+03  0.12500000000E+03 0.  0.
</event>
<event>
 5    0  0.5728184E-005  0.3272266E+03  0.7546771E-02  0.1072371E+00
         21   -1    0    0  502  501  0.00000000000E+00  0.00000000000E+00  0.11495252775E+03  0.11495252775E+03  0.00000000000E+00 0. -1.
         21   -1    0    0  501  502 -0.00000000000E+00 -0.00000000000E+00 -0.93149115725E+03  0.93149115725E+03  0.00000000000E+00 0.  1.
         25    1    1    2    0    0  0.52688323361E+02 -0.25682924783E+02 -0.12983285448E+03  0.18951844804E+03  0.12500000000E+03 0.  0.
         25    1    1    2    0    0 -0.22933853361E+03 -0.33843516679E+02 -0.49940094407E+03  0.56459529715E+03  0.12500000000E+03 0.  0.
         25    1    1    2    0    0  0.17665021025E+03  0.59526441462E+02 -0.18730483095E+03  0.29232993981E+03  0.12500000000E+03 0.  0.
</event>
<event>
 5    0  0.5728184E-005  0.4851142E+03  0.7546771E-02  0.1017739E+00
         21   -1    0    0  502  501  0.00000000000E+00  0.00000000000E+00  0.19273615308E+03  0.19273615308E+03  0.00000000000E+00 0. -1.
         21   -1    0    0  501  502 -0.00000000000E+00 -0.00000000000E+00 -0.12210257661E+04  0.12210257661E+04  0.00000000000E+00 0. -1.
         25    1    1    2    0    0 -0.77117515592E+02  0.36207462604E+02 -0.64220205808E+03  0.65977767086E+03  0.12500000000E+03 0.  0.
         25    1    1    2    0    0  0.20244560660E+03 -0.26137782816E+03 -0.27068265384E+03  0.44519287031E+03  0.12500000000E+03 0.  0.
         25    1    1    2    0    0 -0.12532809101E+03  0.22517036556E+03 -0.11540490105E+03  0.30879137797E+03  0.12500000000E+03 0.  0.
</event>
<event>
 5    0  0.5728184E-005  0.3145201E+03  0.7546771E-02  0.1078199E+00
         21   -1    0    0  502  501  0.00000000000E+00  0.00000000000E+00  0.59061102070E+03  0.59061102070E+03  0.00000000000E+00 0.  1.
         21   -1    0    0  501  502 -0.00000000000E+00 -0.00000000000E+00 -0.16749242885E+03  0.16749242885E+03  0.00000000000E+00 0. -1.
         25    1    1    2    0    0 -0.15009785962E+02 -0.92962821440E+02  0.49897897652E+02  0.16426253387E+03  0.12500000000E+03 0.  0.
         25    1    1    2    0    0 -0.80948572533E+02  0.20261998075E+03  0.29208419649E+03  0.38541627603E+03  0.12500000000E+03 0.  0.
         25    1    1    2    0    0  0.95958358495E+02 -0.10965715931E+03  0.81136497703E+02  0.20842463965E+03  0.12500000000E+03 0.  0.
</event>
<event>
 5    0  0.5728184E-005  0.2352259E+03  0.7546771E-02  0.1123015E+00
         21   -1    0    0  502  501  0.00000000000E+00  0.00000000000E+00  0.29861193049E+03  0.29861193049E+03  0.00000000000E+00 0. -1.
         21   -1    0    0  501  502 -0.00000000000E+00 -0.00000000000E+00 -0.18529470012E+03  0.18529470012E+03  0.00000000000E+00 0. -1.
         25    1    1    2    0    0  0.68212237366E+02 -0.63372141470E+02  0.79776182276E+02  0.17509476548E+03  0.12500000000E+03 0.  0.
         25    1    1    2    0    0  0.64917705052E+01  0.92773056433E+02 -0.29760022435E+01  0.15582952119E+03  0.12500000000E+03 0.  0.
         25    1    1    2    0    0 -0.74704007871E+02 -0.29400914963E+02  0.36517050338E+02  0.15298234394E+03  0.12500000000E+03 0.  0.
</event>
<event>
 5    0  0.5728184E-005  0.3644143E+03  0.7546771E-02  0.1056850E+00
         21   -1    0    0  502  501  0.00000000000E+00  0.00000000000E+00  0.17886180710E+03  0.17886180710E+03  0.00000000000E+00 0. -1.
         21   -1    0    0  501  502 -0.00000000000E+00 -0.00000000000E+00 -0.74246028309E+03  0.74246028309E+03  0.00000000000E+00 0. -1.
         25    1    1    2    0    0  0.23873105875E+02 -0.57345683725E+02 -0.18643816393E+02  0.14082274147E+03  0.12500000000E+03 0.  0.
         25    1    1    2    0    0  0.44785707183E+02  0.10651266599E+03  0.41288676257E+02  0.17515839224E+03  0.12500000000E+03 0.  0.
         25    1    1    2    0    0 -0.68658813058E+02 -0.49166982262E+02 -0.58624333586E+03  0.60534095648E+03  0.12500000000E+03 0.  0.
</event>
<event>
 5    0  0.5728184E-005  0.2512981E+03  0.7546771E-02  0.1112487E+00
         21   -1    0    0  502  501  0.00000000000E+00  0.00000000000E+00  0.32868508424E+03  0.32868508424E+03  0.00000000000E+00 0.  1.
         21   -1    0    0  501  502 -0.00000000000E+00 -0.00000000000E+00 -0.19213145146E+03  0.19213145146E+03  0.00000000000E+00 0.  1.
         25    1    1    2    0    0 -0.55542436326E+02 -0.51283397635E+02  0.12581700862E+03  0.19279488780E+03  0.12500000000E+03 0.  0.
         25    1    1    2    0    0  0.10614084895E+03 -0.33607195420E+02 -0.79551479745E+01  0.16758164511E+03  0.12500000000E+03 0.  0.
         25    1    1    2    0    0 -0.50598412620E+02  0.84890593055E+02  0.18691772129E+02  0.16044000279E+03  0.12500000000E+03 0.  0.
</event>
<event>
 5    0  0.5728184E-005  0.3833946E+03  0.7546771E-02  0.1049686E+00
         21   -1    0    0  502  501  0.00000000000E+00  0.00000000000E+00  0.85083384393E+02  0.85083384393E+02  0.00000000000E+00 0.  1.
         21   -1    0    0  501  502 -0.00000000000E+00 -0.00000000000E+00 -0.17276164355E+04  0.17276164355E+04  0.00000000000E+00 0.  1.
         25    1    1    2    0    0  0.14988027861E+03  0.62842298568E+02 -0.70375930590E+03  0.73301801687E+03  0.12500000000E+03 0.  0.
         25    1    1    2    0    0 -0.62662285827E+02  0.20996320313E+02 -0.88697882283E+03  0.89817806680E+03  0.12500000000E+03 0.  0.
         25    1    1    2    0    0 -0.87217992781E+02 -0.83838618880E+02 -0.51794922373E+02  0.18150373623E+03  0.12500000000E+03 0.  0.
</event>
<event>
 5    0  0.5728184E-005  0.3205782E+03  0.7546771E-02  0.1075384E+00
         21   -1    0    0  502  501  0.00000000000E+00  0.00000000000E+00  0.31754678551E+03  0.31754678551E+03  0.00000000000E+00 0.  1.
         21   -1    0    0  501  502 -0.00000000000E+00 -0.00000000000E+00 -0.32363849669E+03  0.32363849669E+03  0.00000000000E+00 0.  1.
         25    1    1    2    0    0  0.12130594652E+02  0.24305904940E+02 -0.18807538518E+03  0.22745390490E+03  0.12500000000E+03 0.  0.
         25    1    1    2    0    0  0.11271898962E+02 -0.13047541104E+03  0.20183137316E+02  0.18216269548E+03  0.12500000000E+03 0.  0.
         25    1    1    2    0    0 -0.23402493614E+02  0.10616950610E+03  0.16180053669E+03  0.23156868183E+03  0.12500000000E+03 0.  0.
</event>
<event>
 5    0  0.5728184E-005  0.3077808E+03  0.7546771E-02  0.1081414E+00
         21   -1    0    0  502  501  0.00000000000E+00  0.00000000000E+00  0.74522745650E+02  0.74522745650E+02  0.00000000000E+00 0.  1.
         21   -1    0    0  501  502 -0.00000000000E+00 -0.00000000000E+00 -0.12711423414E+04  0.12711423414E+04  0.00000000000E+00 0.  1.
         25    1    1    2    0    0  0.14598926103E+03 -0.70275453288E+02 -0.84355043552E+03  0.86801718931E+03  0.12500000000E+03 0.  0.
         25    1    1    2    0    0 -0.73862293661E+02  0.33382096925E+01 -0.24671506376E+03  0.28628675267E+03  0.12500000000E+03 0.  0.
         25    1    1    2    0    0 -0.72126967372E+02  0.66937243595E+02 -0.10635409645E+03  0.19136114505E+03  0.12500000000E+03 0.  0.
</event>
<event>
 5    0  0.5728184E-005  0.2119829E+03  0.7546771E-02  0.1140005E+00
         21   -1    0    0  502  501  0.00000000000E+00  0.00000000000E+00  0.16367467553E+03  0.16367467553E+03  0.00000000000E+00 0.  1.
         21   -1    0    0  501  502 -0.00000000000E+00 -0.00000000000E+00 -0.27454913005E+03  0.27454913005E+03  0.00000000000E+00 0.  1.
         25    1    1    2    0    0  0.21530662911E+02 -0.99569571518E+01  0.14132924211E+02  0.12801347581E+03  0.12500000000E+03 0.  0.
         25    1    1    2    0    0  0.46126894582E+02  0.27719964706E+02 -0.33233556452E+02  0.14009124213E+03  0.12500000000E+03 0.  0.
         25    1    1    2    0    0 -0.67657557494E+02 -0.17763007554E+02 -0.91773822280E+02  0.17011908764E+03  0.12500000000E+03 0.  0.
</event>
<event>
 5    0  0.5728184E-005  0.3279886E+03  0.7546771E-02  0.1072030E+00
         21   -1    0    0  502  501  0.00000000000E+00  0.00000000000E+00  0.19579333530E+04  0.19579333530E+04  0.00000000000E+00 0. -1.
         21   -1    0    0  501  502 -0.00000000000E+00 -0.00000000000E+00 -0.54943928904E+02  0.54943928904E+02  0.00000000000E+00 0. -1.
         25    1    1    2    0    0 -0.45847349365E+02  0.53536001416E+02  0.33727364193E+03  0.36653320781E+03  0.12500000000E+03 0.  0.
         25    1    1    2    0    0 -0.14814082939E+03 -0.16031214483E+03  0.68811471275E+03  0.73264762814E+03  0.12500000000E+03 0.  0.
         25    1    1    2    0    0  0.19398817875E+03  0.10677614342E+03  0.87760106942E+03  0.91369644596E+03  0.12500000000E+03 0.  0.
</event>
<event>
 5    0  0.5728184E-005  0.3097083E+03  0.7546771E-02  0.1080486E+00
         21   -1    0    0  502  501  0.00000000000E+00  0.00000000000E+00  0.81190321222E+03  0.81190321222E+03  0.00000000000E+00 0.  1.
         21   -1    0    0  501  502 -0.00000000000E+00 -0.00000000000E+00 -0.11814120140E+03  0.11814120140E+03  0.00000000000E+00 0.  1.
         25    1    1    2    0    0 -0.11999792997E+03  0.52157597780E+02  0.14087942883E+03  0.22932930836E+03  0.12500000000E+03 0.  0.
         25    1    1    2    0    0  0.17569369963E+03 -0.14198176420E+03  0.40398355627E+03  0.47943175864E+03  0.12500000000E+03 0.  0.
         25    1    1    2    0    0 -0.55695769663E+02  0.89824166423E+02  0.14889902572E+03  0.22128334662E+03  0.12500000000E+03 0.  0.
</event>
<event>
 5    0  0.5728184E-005  0.3359733E+03  0.7546771E-02  0.1068524E+00
         21   -1    0    0  502  501  0.00000000000E+00  0.00000000000E+00  0.53600669468E+03  0.53600669468E+03  0.00000000000E+00 0. -1.
         21   -1    0    0  501  502 -0.00000000000E+00 -0.00000000000E+00 -0.21059077154E+03  0.21059077154E+03  0.00000000000E+00 0. -1.
         25    1    1    2    0    0  0.10660835230E+03 -0.12475421972E+03  0.14674262844E+03  0.25315480466E+03  0.12500000000E+03 0.  0.
         25    1    1    2    0    0  0.50052658191E+02  0.17277510576E+03  0.18579183694E+03  0.28722832805E+03  0.12500000000E+03 0.  0.
         25    1    1    2    0    0 -0.15666101049E+03 -0.48020886037E+02 -0.71185422393E+01  0.20621433351E+03  0.12500000000E+03 0.  0.
</event>
<event>
 5    0  0.5728184E-005  0.4298982E+03  0.7546771E-02  0.1033892E+00
         21   -1    0    0  502  501  0.00000000000E+00  0.00000000000E+00  0.15860616466E+04  0.15860616466E+04  0.00000000000E+00 0. -1.
         21   -1    0    0  501  502 -0.00000000000E+00 -0.00000000000E+00 -0.11652287882E+03  0.11652287882E+03  0.00000000000E+00 0. -1.
         25    1    1    2    0    0  0.89541658557E+01  0.17435578648E+03  0.25468082901E+03  0.33311776000E+03  0.12500000000E+03 0.  0.
         25    1    1    2    0    0 -0.51497939201E+02 -0.33766793358E+03  0.46274425534E+03  0.58858212423E+03  0.12500000000E+03 0.  0.
         25    1    1    2    0    0  0.42543773345E+02  0.16331214710E+03  0.75211368340E+03  0.78088464116E+03  0.12500000000E+03 0.  0.
</event>
<event>
 5    0  0.5728184E-005  0.2589720E+03  0.7546771E-02  0.1107762E+00
         21   -1    0    0  502  501  0.00000000000E+00  0.00000000000E+00  0.64720655434E+02  0.64720655434E+02  0.00000000000E+00 0.  1.
         21   -1    0    0  501  502 -0.00000000000E+00 -0.00000000000E+00 -0.10362454816E+04  0.10362454816E+04  0.00000000000E+00 0.  1.
         25    1    1    2    0    0  0.90405135305E+01 -0.83910069701E+02 -0.12659885413E+03  0.19691343415E+03  0.12500000000E+03 0.  0.
         25    1    1    2    0    0  0.60860483029E+02  0.10317170828E+03 -0.52987914902E+03  0.55744534472E+03  0.12500000000E+03 0.  0.
         25    1    1    2    0    0 -0.69900996559E+02 -0.19261638582E+02 -0.31504682304E+03  0.34660735819E+03  0.12500000000E+03 0.  0.
</event>
<event>
 5    0  0.5728184E-005  0.3767660E+03  0.7546771E-02  0.1052136E+00
         21   -1    0    0  502  501  0.00000000000E+00  0.00000000000E+00  0.89083646200E+03  0.89083646200E+03  0.00000000000E+00 0. -1.
         21   -1    0    0  501  502 -0.00000000000E+00 -0.00000000000E+00 -0.15934758549E+03  0.15934758549E+03  0.00000000000E+00 0. -1.
         25    1    1    2    0    0 -0.46318607251E+02 -0.63541325616E+02  0.34995235770E+02  0.15176488383E+03  0.12500000000E+03 0.  0.
         25    1    1    2    0    0  0.16592927543E+03  0.93950118310E+02  0.68549207419E+03  0.72241506972E+03  0.12500000000E+03 0.  0.
         25    1    1    2    0    0 -0.11961066818E+03 -0.30408792694E+02  0.11001566547E+02  0.17600409394E+03  0.12500000000E+03 0.  0.
</event>
<event>
 5    0  0.5728184E-005  0.4065033E+03  0.7546771E-02  0.1041551E+00
         21   -1    0    0  502  501  0.00000000000E+00  0.00000000000E+00  0.27265744828E+03  0.27265744828E+03  0.00000000000E+00 0. -1.
         21   -1    0    0  501  502 -0.00000000000E+00 -0.00000000000E+00 -0.60605320242E+03  0.60605320242E+03  0.00000000000E+00 0. -1.
         25    1    1    2    0    0  0.19403903564E+03  0.35137027579E+02 -0.57302279198E+02  0.24040447014E+03  0.12500000000E+03 0.  0.
         25    1    1    2    0    0 -0.28359036488E+03  0.58296398026E+02 -0.32397711516E+03  0.45211518027E+03  0.12500000000E+03 0.  0.
         25    1    1    2    0    0  0.89551329240E+02 -0.93433425605E+02  0.47883640222E+02  0.18619100029E+03  0.12500000000E+03 0.  0.
</event>
<event>
 5    0  0.5728184E-005  0.3227622E+03  0.7546771E-02  0.1074385E+00
         21   -1    0    0  502  501  0.00000000000E+00  0.00000000000E+00  0.17496373130E+03  0.17496373130E+03  0.00000000000E+00 0. -1.
         21   -1    0    0  501  502 -0.00000000000E+00 -0.00000000000E+00 -0.59541157929E+03  0.59541157929E+03  0.00000000000E+00 0. -1.
         25    1    1    2    0    0  0.18498577897E+03  0.14386031311E+03 -0.23921605693E+03  0.35744209322E+03  0.12500000000E+03 0.  0.
         25    1    1    2    0    0 -0.10627019956E+03 -0.10675335346E+03 -0.17161684944E+03  0.26032091119E+03  0.12500000000E+03 0.  0.
         25    1    1    2    0    0 -0.78715579409E+02 -0.37106959651E+02 -0.96149416119E+01  0.15261230618E+03  0.12500000000E+03 0.  0.
</event>
<event>
 5    0  0.5728184E-005  0.3042650E+03  0.7546771E-02  0.1083128E+00
         21   -1    0    0  502  501  0.00000000000E+00  0.00000000000E+00  0.16953225346E+03  0.16953225346E+03  0.00000000000E+00 0.  1.
         21   -1    0    0  501  502 -0.00000000000E+00 -0.00000000000E+00 -0.54607431384E+03  0.54607431384E+03  0.00000000000E+00 0. -1.
         25    1    1    2    0    0  0.65161642858E+02 -0.12739711184E+03 -0.15667963079E+03  0.24627133514E+03  0.12500000000E+03 0.  0.
         25    1    1    2    0    0  0.89729243968E+02 -0.33930589450E+02 -0.98637940310E+02  0.18589530761E+03  0.12500000000E+03 0.  0.
         25    1    1    2    0    0 -0.15489088683E+03  0.16132770129E+03 -0.12122448927E+03  0.28343992454E+03  0.12500000000E+03 0.  0.
</event>
<event>
 5    0  0.5728184E-005  0.2991791E+03  0.7546771E-02  0.1085652E+00
         21   -1    0    0  502  501  0.00000000000E+00  0.00000000000E+00  0.65706804659E+02  0.65706804659E+02  0.00000000000E+00 0. -1.
         21   -1    0    0  501  502 -0.00000000000E+00 -0.00000000000E+00 -0.13622350021E+04  0.13622350021E+04  0.00000000000E+00 0. -1.
         25    1    1    2    0    0  0.94241511531E+02 -0.19218938406E+02 -0.56259637084E+03  0.58428632242E+03  0.12500000000E+03 0.  0.
         25    1    1    2    0    0 -0.18250994698E+03 -0.36087080173E+02 -0.57089056260E+03  0.61331329071E+03  0.12500000000E+03 0.  0.
         25    1    1    2    0    0  0.88268435451E+02  0.55306018580E+02 -0.16304126396E+03  0.23034219357E+03  0.12500000000E+03 0.  0.
</event>
<event>
 5    0  0.5728184E-005  0.3606029E+03  0.7546771E-02  0.1058345E+00
         21   -1    0    0  502  501  0.00000000000E+00  0.00000000000E+00  0.39587284065E+03  0.39587284065E+03  0.00000000000E+00 0.  1.
         21   -1    0    0  501  502 -0.00000000000E+00 -0.00000000000E+00 -0.32847536696E+03  0.32847536696E+03  0.00000000000E+00 0. -1.
         25    1    1    2    0    0  0.89774288297E+02  0.25919150811E+03 -0.16918229531E+02  0.30191205211E+03  0.12500000000E+03 0.  0.
         25    1    1    2    0    0 -0.33228807607E+02 -0.37064797067E+02 -0.29309089487E+02  0.13770248931E+03  0.12500000000E+03 0.  0.
         25    1    1    2    0    0 -0.56545480690E+02 -0.22212671105E+03  0.11362479270E+03  0.28473366619E+03  0.12500000000E+03 0.  0.
</event>
<event>
 5    0  0.6313650E-005  0.3102312E+03  0.7546771E-02  0.1080235E+00
         21   -1    0    0  502  501  0.00000000000E+00  0.00000000000E+00  0.74679828863E+03  0.74679828863E+03  0.00000000000E+00 0.  1.
         21   -1    0    0  501  502 -0.00000000000E+00 -0.00000000000E+00 -0.12887471606E+03  0.12887471606E+03  0.00000000000E+00 0.  1.
         25    1    1    2    0    0 -0.52241287952E+02  0.14807999488E+03  0.24883325811E+03  0.31968707730E+03  0.12500000000E+03 0.  0.
         25    1    1    2    0    0 -0.56712133909E+02  0.23616257534E+02  0.31944454941E+02  0.14289661281E+03  0.12500000000E+03 0.  0.
         25    1    1    2    0    0  0.10895342186E+03 -0.17169625241E+03  0.33714585953E+03  0.41308931459E+03  0.12500000000E+03 0.  0.
</event>
<event>
 5    0  0.5728184E-005  0.3337684E+03  0.7546771E-02  0.1069482E+00
         21   -1    0    0  502  501  0.00000000000E+00  0.00000000000E+00  0.29232421123E+02  0.29232421123E+02  0.00000000000E+00 0. -1.
         21   -1    0    0  501  502 -0.00000000000E+00 -0.00000000000E+00 -0.38108842496E+04  0.38108842496E+04  0.00000000000E+00 0. -1.
         25    1    1    2    0    0  0.19031502336E+03 -0.47979288336E+02 -0.67235465030E+03  0.71148267442E+03  0.12500000000E+03 0.  0.
         25    1    1    2    0    0 -0.13913408549E+03 -0.15929919619E+02 -0.13476560809E+04  0.13606667368E+04  0.12500000000E+03 0.  0.
         25    1    1    2    0    0 -0.51180937862E+02  0.63909207956E+02 -0.17616410973E+04  0.17679672596E+04  0.12500000000E+03 0.  0.
</event>
<event>
 5    0  0.5728184E-005  0.2139234E+03  0.7546771E-02  0.1138496E+00
         21   -1    0    0  502  501  0.00000000000E+00  0.00000000000E+00  0.35610500116E+02  0.35610500116E+02  0.00000000000E+00 0. -1.
         21   -1    0    0  501  502 -0.00000000000E+00 -0.00000000000E+00 -0.12851049607E+04  0.12851049607E+04  0.00000000000E+00 0. -1.
         25    1    1    2    0    0 -0.42261055474E+02  0.10394162884E+02 -0.38933587347E+03  0.41121947644E+03  0.12500000000E+03 0.  0.
         25    1    1    2    0    0  0.90749219709E+01  0.59664680532E+02 -0.30355100062E+03  0.33378202211E+03  0.12500000000E+03 0.  0.
         25    1    1    2    0    0  0.33186133503E+02 -0.70058843416E+02 -0.55660758650E+03  0.57571396226E+03  0.12500000000E+03 0.  0.
</event>
<event>
 5    0  0.5728184E-005  0.2319370E+03  0.7546771E-02  0.1125284E+00
         21   -1    0    0  502  501  0.00000000000E+00  0.00000000000E+00  0.95626921848E+02  0.95626921848E+02  0.00000000000E+00 0.  1.
         21   -1    0    0  501  502 -0.00000000000E+00 -0.00000000000E+00 -0.56254819902E+03  0.56254819902E+03  0.00000000000E+00 0.  1.
         25    1    1    2    0    0  0.88984369813E+02  0.19927316039E+02 -0.30758602863E+03  0.34431015234E+03  0.12500000000E+03 0.  0.
         25    1    1    2    0    0 -0.58232938727E+02  0.95094145936E+01 -0.76485474707E+02  0.15797636519E+03  0.12500000000E+03 0.  0.
         25    1    1    2    0    0 -0.30751431087E+02 -0.29436730632E+02 -0.82849773827E+02  0.15588860333E+03  0.12500000000E+03 0.  0.
</event>
<event>
 5    0  0.5728184E-005  0.3020945E+03  0.7546771E-02  0.1084198E+00
         21   -1    0    0  502  501  0.00000000000E+00  0.00000000000E+00  0.42118579044E+03  0.42118579044E+03  0.00000000000E+00 0.  1.
         21   -1    0    0  501  502 -0.00000000000E+00 -0.00000000000E+00 -0.21667658918E+03  0.21667658918E+03  0.00000000000E+00 0.  1.
         25    1    1    2    0    0  0.10747295263E+03  0.99507567409E+02  0.15032183805E+03  0.24428230905E+03  0.12500000000E+03 0.  0.
         25    1    1    2    0    0  0.27099658935E+02  0.13342655510E+02  0.11184781468E+03  0.17043283609E+03  0.12500000000E+03 0.  0.
         25    1    1    2    0    0 -0.13457261157E+03 -0.11285022292E+03 -0.57660451466E+02  0.22314723449E+03  0.12500000000E+03 0.  0.
</event>
<event>
 5    0  0.5728184E-005  0.2825526E+03  0.7546771E-02  0.1094303E+00
         21   -1    0    0  502  501  0.00000000000E+00  0.00000000000E+00  0.75457438555E+02  0.75457438555E+02  0.00000000000E+00 0.  1.
         21   -1    0    0  501  502 -0.00000000000E+00 -0.00000000000E+00 -0.10580262490E+04  0.10580262490E+04  0.00000000000E+00 0.  1.
         25    1    1    2    0    0 -0.49845245950E+02 -0.12291481036E+03 -0.42525231039E+03  0.46266308113E+03  0.12500000000E+03 0.  0.
         25    1    1    2    0    0  0.89715363010E+02  0.17421119926E+03 -0.34133395478E+03  0.41295551454E+03  0.12500000000E+03 0.  0.
         25    1    1    2    0    0 -0.39870117060E+02 -0.51296388898E+02 -0.21598254530E+03  0.25786509191E+03  0.12500000000E+03 0.  0.
</event>
<event>
 5    0  0.5728184E-005  0.2154169E+03  0.7546771E-02  0.1137347E+00
         21   -1    0    0  502  501  0.00000000000E+00  0.00000000000E+00  0.42262867407E+02  0.42262867407E+02  0.00000000000E+00 0.  1.
         21   -1    0    0  501  502 -0.00000000000E+00 -0.00000000000E+00 -0.10979955606E+04  0.10979955606E+04  0.00000000000E+00 0.  1.
         25    1    1    2    0    0 -0.44937398092E+02 -0.30942639623E+02 -0.48788724420E+03  0.50659232105E+03  0.12500000000E+03 0.  0.
         25    1    1    2    0    0  0.20562342651E+02  0.31369737771E+02 -0.41325595467E+03  0.43337322766E+03  0.12500000000E+03 0.  0.
         25    1    1    2    0    0  0.24375055441E+02 -0.42709814839E+00 -0.15458949431E+03  0.20029287929E+03  0.12500000000E+03 0.  0.
</event>
<event>
 5    0  0.5728184E-005  0.2456474E+03  0.7546771E-02  0.1116087E+00
         21   -1    0    0  502  501  0.00000000000E+00  0.00000000000E+00  0.17682016992E+03  0.17682016992E+03  0.00000000000E+00 0.  1.
         21   -1    0    0  501  502 -0.00000000000E+00 -0.00000000000E+00 -0.34126564589E+03  0.34126564589E+03  0.00000000000E+00 0.  1.
         25    1    1    2    0    0 -0.30624942067E+02  0.19039509195E+02 -0.13877086626E+03  0.19021762092E+03  0.12500000000E+03 0.  0.
         25    1    1    2    0    0  0.78267396379E+02 -0.90856506727E+02 -0.30861365280E+02  0.17594918021E+03  0.12500000000E+03 0.  0.
         25    1    1    2    0    0 -0.47642454313E+02  0.71816997532E+02  0.51867555754E+01  0.15191901468E+03  0.12500000000E+03 0.  0.
</event>
<event>
 5    0  0.5728184E-005  0.3009887E+03  0.7546771E-02  0.1084747E+00
         21   -1    0    0  502  501  0.00000000000E+00  0.00000000000E+00  0.10722433602E+04  0.10722433602E+04  0.00000000000E+00 0.  1.
         21   -1    0    0  501  502 -0.00000000000E+00 -0.00000000000E+00 -0.84490310513E+02  0.84490310513E+02  0.00000000000E+00 0.  1.
         25    1    1    2    0    0  0.16935041639E+03 -0.15312328931E+03  0.41604519494E+03  0.49075952308E+03  0.12500000000E+03 0.  0.
         25    1    1    2    0    0 -0.11108729013E+03  0.78149554695E+02  0.30630616563E+03  0.35762579050E+03  0.12500000000E+03 0.  0.
         25    1    1    2    0    0 -0.58263126257E+02  0.74973734617E+02  0.26540168914E+03  0.30834835716E+03  0.12500000000E+03 0.  0.
</event>
<event>
 5    0  0.5728184E-005  0.4699468E+03  0.7546771E-02  0.1021935E+00
         21   -1    0    0  502  501  0.00000000000E+00  0.00000000000E+00  0.39523901631E+03  0.39523901631E+03  0.00000000000E+00 0.  1.
         21   -1    0    0  501  502 -0.00000000000E+00 -0.00000000000E+00 -0.55877573477E+03  0.55877573477E+03  0.00000000000E+00 0.  1.
         25    1    1    2    0    0  0.13357430957E+03 -0.73087246511E+02 -0.34652801090E+03  0.39861071751E+03  0.12500000000E+03 0.  0.
         25    1    1    2    0    0 -0.19303235990E+02  0.72430927453E+02 -0.13272592251E+03  0.19712946172E+03  0.12500000000E+03 0.  0.
         25    1    1    2    0    0 -0.11427107358E+03  0.65631905850E+00  0.31571721495E+03  0.35827457184E+03  0.12500000000E+03 0.  0.
</event>
<event>
 5    0  0.5728184E-005  0.2770533E+03  0.7546771E-02  0.1097309E+00
         21   -1    0    0  502  501  0.00000000000E+00  0.00000000000E+00  0.44824590226E+02  0.44824590226E+02  0.00000000000E+00 0. -1.
         21   -1    0    0  501  502 -0.00000000000E+00 -0.00000000000E+00 -0.17124203007E+04  0.17124203007E+04  0.00000000000E+00 0. -1.
         25    1    1    2    0    0  0.21556645531E+02 -0.12676332196E+02 -0.31126938447E+03  0.33636142477E+03  0.12500000000E+03 0.  0.
         25    1    1    2    0    0 -0.14134311672E+03  0.52236371249E+02 -0.10386088422E+04  0.10569010560E+04  0.12500000000E+03 0.  0.
         25    1    1    2    0    0  0.11978647119E+03 -0.39560039053E+02 -0.31771748377E+03  0.36398241010E+03  0.12500000000E+03 0.  0.
</event>
<event>
 5    0  0.5728184E-005  0.5195093E+03  0.7546771E-02  0.1008809E+00
         21   -1    0    0  502  501  0.00000000000E+00  0.00000000000E+00  0.43514900593E+03  0.43514900593E+03  0.00000000000E+00 0.  1.
         21   -1    0    0  501  502 -0.00000000000E+00 -0.00000000000E+00 -0.62022424401E+03  0.62022424401E+03  0.00000000000E+00 0.  1.
         25    1    1    2    0    0 -0.71811733112E+02  0.28862270118E+03 -0.38611560049E+02  0.32492436231E+03  0.12500000000E+03 0.  0.
         25    1    1    2    0    0 -0.23277812395E+03 -0.33004048918E+02 -0.16493975190E+03  0.31321724727E+03  0.12500000000E+03 0.  0.
         25    1    1    2    0    0  0.30458985706E+03 -0.25561865227E+03  0.18476073869E+02  0.41723164036E+03  0.12500000000E+03 0.  0.
</event>
<event>
 5    0  0.5728184E-005  0.3535683E+03  0.7546771E-02  0.1061160E+00
         21   -1    0    0  502  501  0.00000000000E+00  0.00000000000E+00  0.85338198543E+02  0.85338198543E+02  0.00000000000E+00 0. -1.
         21   -1    0    0  501  502 -0.00000000000E+00 -0.00000000000E+00 -0.14648837408E+04  0.14648837408E+04  0.00000000000E+00 0. -1.
         25    1    1    2    0    0  0.21463822788E+02  0.36709580965E+02 -0.74094150863E+03  0.75261385068E+03  0.12500000000E+03 0.  0.
         25    1    1    2    0    0 -0.11835064415E+03 -0.10807295653E+03 -0.90122273818E+02  0.22233682363E+03  0.12500000000E+03 0.  0.
         25    1    1    2    0    0  0.96886821362E+02  0.71363375569E+02 -0.54848175979E+03  0.57527126501E+03  0.12500000000E+03 0.  0.
</event>
<event>
 5    0  0.5728184E-005  0.3094445E+03  0.7546771E-02  0.1080612E+00
         21   -1    0    0  502  501  0.00000000000E+00  0.00000000000E+00  0.17911023241E+04  0.17911023241E+04  0.00000000000E+00 0. -1.
         21   -1    0    0  501  502 -0.00000000000E+00 -0.00000000000E+00 -0.53462006932E+02  0.53462006932E+02  0.00000000000E+00 0. -1.
         25    1    1    2    0    0 -0.41343474852E+02 -0.77315019176E+02  0.24688737150E+03  0.29028480723E+03  0.12500000000E+03 0.  0.
         25    1    1    2    0    0 -0.94285887150E+02  0.50971729536E+02  0.24831141822E+03  0.29794547512E+03  0.12500000000E+03 0.  0.
         25    1    1    2    0    0  0.13562936200E+03  0.26343289640E+02  0.12424415275E+04  0.12563340487E+04  0.12500000000E+03 0.  0.
</event>
<event>
 5    0  0.5728184E-005  0.3656499E+03  0.7546771E-02  0.1056369E+00
         21   -1    0    0  502  501  0.00000000000E+00  0.00000000000E+00  0.14117546874E+03  0.14117546874E+03  0.00000000000E+00 0.  1.
         21   -1    0    0  501  502 -0.00000000000E+00 -0.00000000000E+00 -0.94704737209E+03  0.94704737209E+03  0.00000000000E+00 0.  1.
         25    1    1    2    0    0 -0.56790001508E+02 -0.11607452756E+03 -0.10555334231E+03  0.20848239324E+03  0.12500000000E+03 0.  0.
         25    1    1    2    0    0  0.78904557618E+02 -0.14469020144E+03 -0.14296896342E+03  0.25144842037E+03  0.12500000000E+03 0.  0.
         25    1    1    2    0    0 -0.22114556111E+02  0.26076472901E+03 -0.55734959763E+03  0.62829202722E+03  0.12500000000E+03 0.  0.
</event>
<event>
 5    0  0.5728184E-005  0.2838846E+03  0.7546771E-02  0.1093586E+00
         21   -1    0    0  502  501  0.00000000000E+00  0.00000000000E+00  0.20497846901E+04  0.20497846901E+04  0.00000000000E+00 0. -1.
         21   -1    0    0  501  502 -0.00000000000E+00 -0.00000000000E+00 -0.39316565100E+02  0.39316565100E+02  0.00000000000E+00 0. -1.
         25    1    1    2    0    0 -0.74784623522E+02 -0.97447587030E+02  0.89716184854E+03  0.91411878583E+03  0.12500000000E+03 0.  0.
         25    1    1    2    0    0 -0.57358925442E+02  0.34152082639E+02  0.75510236705E+03  0.76828444980E+03  0.12500000000E+03 0.  0.
         25    1    1    2    0    0  0.13214354896E+03  0.63295504392E+02  0.35820390943E+03  0.40669801959E+03  0.12500000000E+03 0.  0.
</event>
<event>
 5    0  0.5728184E-005  0.2765084E+03  0.7546771E-02  0.1097611E+00
         21   -1    0    0  502  501  0.00000000000E+00  0.00000000000E+00  0.11531960917E+04  0.11531960917E+04  0.00000000000E+00 0.  1.
         21   -1    0    0  501  502 -0.00000000000E+00 -0.00000000000E+00 -0.66300007830E+02  0.66300007830E+02  0.00000000000E+00 0.  1.
         25    1    1    2    0    0  0.60573790114E+02 -0.18684698516E+02  0.16405350152E+03  0.21577037185E+03  0.12500000000E+03 0.  0.
         25    1    1    2    0    0 -0.58644795307E+02 -0.97073197983E+02  0.20302970986E+03  0.26402363695E+03  0.12500000000E+03 0.  0.
         25    1    1    2    0    0 -0.19289948066E+01  0.11575789650E+03  0.71981287248E+03  0.73970209072E+03  0.12500000000E+03 0.  0.
</event>
<event>
 5    0  0.5728184E-005  0.3944771E+03  0.7546771E-02  0.1045709E+00
         21   -1    0    0  502  501  0.00000000000E+00  0.00000000000E+00  0.36812703164E+03  0.36812703164E+03  0.00000000000E+00 0.  1.
         21   -1    0    0  501  502 -0.00000000000E+00 -0.00000000000E+00 -0.42271327671E+03  0.42271327671E+03  0.00000000000E+00 0.  1.
         25    1    1    2    0    0  0.24876837364E+03 -0.22453775928E+02 -0.78296097332E+01  0.27942114910E+03  0.12500000000E+03 0.  0.
         25    1    1    2    0    0 -0.81664861306E+02 -0.15719305888E+03  0.44520700607E+02  0.22132758552E+03  0.12500000000E+03 0.  0.
         25    1    1    2    0    0 -0.16710351234E+03  0.17964683480E+03 -0.91277335947E+02  0.29009157373E+03  0.12500000000E+03 0.  0.
</event>
<event>
 5    0  0.5728184E-005  0.2956576E+03  0.7546771E-02  0.1087432E+00
         21   -1    0    0  502  501  0.00000000000E+00  0.00000000000E+00  0.13943017055E+03  0.13943017055E+03  0.00000000000E+00 0.  1.
         21   -1    0    0  501  502 -0.00000000000E+00 -0.00000000000E+00 -0.62693325004E+03  0.62693325004E+03  0.00000000000E+00 0.  1.
         25    1    1    2    0    0 -0.10501131542E+03  0.76883463983E+02  0.12315620871E+02  0.18087320951E+03  0.12500000000E+03 0.  0.
         25    1    1    2    0    0  0.74318776498E+01 -0.77669680875E+01 -0.15249122320E+03  0.19746931851E+03  0.12500000000E+03 0.  0.
         25    1    1    2    0    0  0.97579437771E+02 -0.69116495895E+02 -0.34732747716E+03  0.38802089257E+03  0.12500000000E+03 0.  0.
</event>
<event>
 5    0  0.5728184E-005  0.4240046E+03  0.7546771E-02  0.1035771E+00
         21   -1    0    0  502  501  0.00000000000E+00  0.00000000000E+00  0.13209856713E+03  0.13209856713E+03  0.00000000000E+00 0. -1.
         21   -1    0    0  501  502 -0.00000000000E+00 -0.00000000000E+00 -0.13609529596E+04  0.13609529596E+04  0.00000000000E+00 0. -1.
         25    1    1    2    0    0 -0.32175921392E+02  0.27364517749E+03 -0.38175533343E+03  0.48711303378E+03  0.12500000000E+03 0.  0.
         25    1    1    2    0    0 -0.12038306781E+03 -0.11285347462E+03 -0.65548504331E+03  0.68739626981E+03  0.12500000000E+03 0.  0.
         25    1    1    2    0    0  0.15255898920E+03 -0.16079170287E+03 -0.19161401576E+03  0.31854222316E+03  0.12500000000E+03 0.  0.
</event>
<event>
 5    0  0.5728184E-005  0.4016032E+03  0.7546771E-02  0.1043226E+00
         21   -1    0    0  502  501  0.00000000000E+00  0.00000000000E+00  0.26985725820E+04  0.26985725820E+04  0.00000000000E+00 0. -1.
         21   -1    0    0  501  502 -0.00000000000E+00 -0.00000000000E+00 -0.59766843136E+02  0.59766843136E+02  0.00000000000E+00 0. -1.
         25    1    1    2    0    0  0.18350823357E+03 -0.20731473171E+03  0.96477237797E+03  0.10114669599E+04  0.12500000000E+03 0.  0.
         25    1    1    2    0    0 -0.66120978552E+01  0.15078998339E+03  0.32594585696E+03  0.38032491451E+03  0.12500000000E+03 0.  0.
         25    1    1    2    0    0 -0.17689613571E+03  0.56524748323E+02  0.13480875039E+04  0.13665475507E+04  0.12500000000E+03 0.  0.
</event>
<event>
 5    0  0.5728184E-005  0.2662408E+03  0.7546771E-02  0.1103451E+00
         21   -1    0    0  502  501  0.00000000000E+00  0.00000000000E+00  0.18421988720E+03  0.18421988720E+03  0.00000000000E+00 0. -1.
         21   -1    0    0  501  502 -0.00000000000E+00 -0.00000000000E+00 -0.38478029135E+03  0.38478029135E+03  0.00000000000E+00 0. -1.
         25    1    1    2    0    0  0.89746116615E+02 -0.76375710455E+02 -0.20451048310E+02  0.17300537556E+03  0.12500000000E+03 0.  0.
         25    1    1    2    0    0  0.59736611406E+02 -0.94068624047E+00 -0.41305517136E+02  0.14457002932E+03  0.12500000000E+03 0.  0.
         25    1    1    2    0    0 -0.14948272802E+03  0.77316396695E+02 -0.13880383870E+03  0.25142477367E+03  0.12500000000E+03 0.  0.
</event>
<event>
 5    0  0.5728184E-005  0.2144924E+03  0.7546771E-02  0.1138057E+00
         21   -1    0    0  502  501  0.00000000000E+00  0.00000000000E+00  0.29829628205E+03  0.29829628205E+03  0.00000000000E+00 0. -1.
         21   -1    0    0  501  502 -0.00000000000E+00 -0.00000000000E+00 -0.15423245759E+03  0.15423245759E+03  0.00000000000E+00 0. -1.
         25    1    1    2    0    0 -0.31795143334E+02  0.59943133219E+02  0.32042432355E+01  0.14226516627E+03  0.12500000000E+03 0.  0.
         25    1    1    2    0    0  0.18454114728E+02 -0.10323726496E+02  0.18814340117E+02  0.12816439862E+03  0.12500000000E+03 0.  0.
         25    1    1    2    0    0  0.13341028605E+02 -0.49619406723E+02  0.12204524110E+03  0.18209917475E+03  0.12500000000E+03 0.  0.
</event>
<event>
 5    0  0.5728184E-005  0.2787768E+03  0.7546771E-02  0.1096359E+00
         21   -1    0    0  502  501  0.00000000000E+00  0.00000000000E+00  0.16774975733E+03  0.16774975733E+03  0.00000000000E+00 0. -1.
         21   -1    0    0  501  502 -0.00000000000E+00 -0.00000000000E+00 -0.46328828265E+03  0.46328828265E+03  0.00000000000E+00 0. -1.
         25    1    1    2    0    0 -0.19252658809E+02 -0.82453920330E+02 -0.15248123652E+02  0.15174590315E+03  0.12500000000E+03 0.  0.
         25    1    1    2    0    0  0.70599423261E+02  0.14017719095E+03 -0.51120039382E+02  0.20705598724E+03  0.12500000000E+03 0.  0.
         25    1    1    2    0    0 -0.51346764452E+02 -0.57723270618E+02 -0.22917036229E+03  0.27223614959E+03  0.12500000000E+03 0.  0.
</event>
<event>
 5    0  0.5728184E-005  0.2743514E+03  0.7546771E-02  0.1098815E+00
         21   -1    0    0  502  501  0.00000000000E+00  0.00000000000E+00  0.14523834583E+04  0.14523834583E+04  0.00000000000E+00 0.  1.
         21   -1    0    0  501  502 -0.00000000000E+00 -0.00000000000E+00 -0.51824268685E+02  0.51824268685E+02  0.00000000000E+00 0.  1.
         25    1    1    2    0    0 -0.12280950559E+03 -0.58180891602E+02  0.35713098657E+03  0.40203822254E+03  0.12500000000E+03 0.  0.
         25    1    1    2    0    0  0.76664197836E+02  0.36078474906E+02  0.21459061927E+03  0.26239891284E+03  0.12500000000E+03 0.  0.
         25    1    1    2    0    0  0.46145307758E+02  0.22102416696E+02  0.82883758373E+03  0.83977059156E+03  0.12500000000E+03 0.  0.
</event>
<event>
 5    0  0.5728184E-005  0.4754593E+03  0.7546771E-02  0.1020391E+00
         21   -1    0    0  502  501  0.00000000000E+00  0.00000000000E+00  0.34006104648E+03  0.34006104648E+03  0.00000000000E+00 0.  1.
         21   -1    0    0  501  502 -0.00000000000E+00 -0.00000000000E+00 -0.66476754529E+03  0.66476754529E+03  0.00000000000E+00 0.  1.
         25    1    1    2    0    0  0.30189259892E+03  0.17939358495E+03 -0.41259022627E+03  0.55603677434E+03  0.12500000000E+03 0.  0.
         25    1    1    2    0    0 -0.11533365176E+03 -0.52332722561E+02  0.58434398330E+01  0.17804412618E+03  0.12500000000E+03 0.  0.
         25    1    1    2    0    0 -0.18655894717E+03 -0.12706086239E+03  0.82040287626E+02  0.27074769124E+03  0.12500000000E+03 0.  0.
</event>
<event>
 5    0  0.5728184E-005  0.2488236E+03  0.7546771E-02  0.1114051E+00
         21   -1    0    0  502  501  0.00000000000E+00  0.00000000000E+00  0.18202095261E+04  0.18202095261E+04  0.00000000000E+00 0.  1.
         21   -1    0    0  501  502 -0.00000000000E+00 -0.00000000000E+00 -0.34014324933E+02  0.34014324933E+02  0.00000000000E+00 0.  1.
         25    1    1    2    0    0 -0.35616900768E+02  0.61418503603E+02  0.26458172697E+03  0.30111341128E+03  0.12500000000E+03 0.  0.
         25    1    1    2    0    0  0.77072256706E+02 -0.85348910563E+02  0.10149697578E+04  0.10290836596E+04  0.12500000000E+03 0.  0.
         25    1    1    2    0    0 -0.41455355938E+02  0.23930406960E+02  0.50664371639E+03  0.52402678011E+03  0.12500000000E+03 0.  0.
</event>
<event>
 5    0  0.5728184E-005  0.3730360E+03  0.7546771E-02  0.1053538E+00
         21   -1    0    0  502  501  0.00000000000E+00  0.00000000000E+00  0.23326463461E+03  0.23326463461E+03  0.00000000000E+00 0. -1.
         21   -1    0    0  501  502 -0.00000000000E+00 -0.00000000000E+00 -0.59655782145E+03  0.59655782145E+03  0.00000000000E+00 0. -1.
         25    1    1    2    0    0  0.63238364357E+02  0.20859986817E+02  0.96226698098E+02  0.17122735530E+03  0.12500000000E+03 0.  0.
         25    1    1    2    0    0 -0.11976228902E+03 -0.13058320538E+01  0.56640872972E+01  0.17321025649E+03  0.12500000000E+03 0.  0.
         25    1    1    2    0    0  0.56523924658E+02 -0.19554154764E+02 -0.46518397224E+03  0.48538484428E+03  0.12500000000E+03 0.  0.
</event>
<event>
 5    0  0.5728184E-005  0.2928006E+03  0.7546771E-02  0.1088896E+00
         21   -1    0    0  502  501  0.00000000000E+00  0.00000000000E+00  0.14253295696E+03  0.14253295696E+03  0.00000000000E+00 0. -1.
         21   -1    0    0  501  502 -0.00000000000E+00 -0.00000000000E+00 -0.60149042262E+03  0.60149042262E+03  0.00000000000E+00 0. -1.
         25    1    1    2    0    0  0.12317284520E+03  0.36347838179E+02 -0.87037876726E+02  0.19923179244E+03  0.12500000000E+03 0.  0.
         25    1    1    2    0    0 -0.18124004005E+03 -0.84168588029E+02 -0.15058547281E+03  0.27970214149E+03  0.12500000000E+03 0.  0.
         25    1    1    2    0    0  0.58067194855E+02  0.47820749850E+02 -0.22133411612E+03  0.26508944565E+03  0.12500000000E+03 0.  0.
</event>
<event>
 5    0  0.5728184E-005  0.2454010E+03  0.7546771E-02  0.1116246E+00
         21   -1    0    0  502  501  0.00000000000E+00  0.00000000000E+00  0.25278507477E+03  0.25278507477E+03  0.00000000000E+00 0.  1.
         21   -1    0    0  501  502 -0.00000000000E+00 -0.00000000000E+00 -0.23823269005E+03  0.23823269005E+03  0.00000000000E+00 0.  1.
         25    1    1    2    0    0 -0.11113783874E+03 -0.64785108885E+02 -0.52419921205E+02  0.18687315931E+03  0.12500000000E+03 0.  0.
         25    1    1    2    0    0  0.68215877103E+01  0.15833995390E+02  0.19934450584E+02  0.12774831423E+03  0.12500000000E+03 0.  0.
         25    1    1    2    0    0  0.10431625103E+03  0.48951113495E+02  0.47037855341E+02  0.17639629128E+03  0.12500000000E+03 0.  0.
</event>
<event>
 5    0  0.5728184E-005  0.3068628E+03  0.7546771E-02  0.1081859E+00
         21   -1    0    0  502  501  0.00000000000E+00  0.00000000000E+00  0.84679994031E+03  0.84679994031E+03  0.00000000000E+00 0.  1.
         21   -1    0    0  501  502 -0.00000000000E+00 -0.00000000000E+00 -0.11120072490E+03  0.11120072490E+03  0.00000000000E+00 0.  1.
         25    1    1    2    0    0 -0.54706386416E+02 -0.18771649125E+03  0.12656503307E+03  0.26433686349E+03  0.12500000000E+03 0.  0.
         25    1    1    2    0    0 -0.21762476293E+01  0.75499470410E+02  0.35479291088E+03  0.38367683758E+03  0.12500000000E+03 0.  0.
         25    1    1    2    0    0  0.56882634045E+02  0.11221702084E+03  0.25424127146E+03  0.30998696414E+03  0.12500000000E+03 0.  0.
</event>
<event>
 5    0  0.5728184E-005  0.3909213E+03  0.7546771E-02  0.1046969E+00
         21   -1    0    0  502  501  0.00000000000E+00  0.00000000000E+00  0.97800035586E+02  0.97800035586E+02  0.00000000000E+00 0. -1.
         21   -1    0    0  501  502 -0.00000000000E+00 -0.00000000000E+00 -0.15625707710E+04  0.15625707710E+04  0.00000000000E+00 0. -1.
         25    1    1    2    0    0 -0.20700834367E+02 -0.72017069949E+02 -0.35952742726E+03  0.38794323535E+03  0.12500000000E+03 0.  0.
         25    1    1    2    0    0 -0.21414749529E+03 -0.12619315771E+03 -0.34689898843E+03  0.44468839761E+03  0.12500000000E+03 0.  0.
         25    1    1    2    0    0  0.23484832966E+03  0.19821022766E+03 -0.75834431972E+03  0.82773917362E+03  0.12500000000E+03 0.  0.
</event>
<event>
 5    0  0.5728184E-005  0.3877333E+03  0.7546771E-02  0.1048112E+00
         21   -1    0    0  502  501  0.00000000000E+00  0.00000000000E+00  0.18154678324E+03  0.18154678324E+03  0.00000000000E+00 0. -1.
         21   -1    0    0  501  502 -0.00000000000E+00 -0.00000000000E+00 -0.82809012092E+03  0.82809012092E+03  0.00000000000E+00 0. -1.
         25    1    1    2    0    0  0.23744714695E+03 -0.10242583103E+03 -0.13577311193E+03  0.31769724012E+03  0.12500000000E+03 0.  0.
         25    1    1    2    0    0 -0.66490406010E+02 -0.30525821091E+02 -0.26952840161E+02  0.14732364181E+03  0.12500000000E+03 0.  0.
         25    1    1    2    0    0 -0.17095674094E+03  0.13295165212E+03 -0.48381738559E+03  0.54461602223E+03  0.12500000000E+03 0.  0.
</event>
<event>
 5    0  0.5728184E-005  0.3261324E+03  0.7546771E-02  0.1072861E+00
         21   -1    0    0  502  501  0.00000000000E+00  0.00000000000E+00  0.10225523669E+04  0.10225523669E+04  0.00000000000E+00 0.  1.
         21   -1    0    0  501  502 -0.00000000000E+00 -0.00000000000E+00 -0.10401650978E+03  0.10401650978E+03  0.00000000000E+00 0.  1.
         25    1    1    2    0    0 -0.96440857325E+02 -0.40475476981E+02  0.33387537873E+03  0.37153313677E+03  0.12500000000E+03 0.  0.
         25    1    1    2    0    0  0.11831218368E+03  0.11651773192E+03  0.56959607883E+03  0.60633229147E+03  0.12500000000E+03 0.  0.
         25    1    1    2    0    0 -0.21871326360E+02 -0.76042254939E+02  0.15064399606E+02  0.14870344848E+03  0.12500000000E+03 0.  0.
</event>
<event>
 5    0  0.5728184E-005  0.2087784E+03  0.7546771E-02  0.1142537E+00
         21   -1    0    0  502  501  0.00000000000E+00  0.00000000000E+00  0.17636861815E+04  0.17636861815E+04  0.00000000000E+00 0. -1.
         21   -1    0    0  501  502 -0.00000000000E+00 -0.00000000000E+00 -0.24714395101E+02  0.24714395101E+02  0.00000000000E+00 0. -1.
         25    1    1    2    0    0 -0.50621724048E+02  0.21066176288E+02  0.49414566142E+03  0.51265122396E+03  0.12500000000E+03 0.  0.
         25    1    1    2    0    0 -0.19531674443E+02 -0.43059325342E+02  0.55808436134E+03  0.57386300297E+03  0.12500000000E+03 0.  0.
         25    1    1    2    0    0  0.70153398491E+02  0.21993149054E+02  0.68674176363E+03  0.70188634966E+03  0.12500000000E+03 0.  0.
</event>
<event>
 5    0  0.5728184E-005  0.2677072E+03  0.7546771E-02  0.1102599E+00
         21   -1    0    0  502  501  0.00000000000E+00  0.00000000000E+00  0.50887900247E+02  0.50887900247E+02  0.00000000000E+00 0. -1.
         21   -1    0    0  501  502 -0.00000000000E+00 -0.00000000000E+00 -0.14083340118E+04  0.14083340118E+04  0.00000000000E+00 0. -1.
         25    1    1    2    0    0 -0.50517164157E+02  0.71343489663E+01 -0.21779648542E+03  0.25624830120E+03  0.12500000000E+03 0.  0.
         25    1    1    2    0    0  0.35920782750E+02 -0.45920676097E+02 -0.14680805284E+03  0.20143638079E+03  0.12500000000E+03 0.  0.
         25    1    1    2    0    0  0.14596381407E+02  0.38786327131E+02 -0.99284157328E+03  0.10015372300E+04  0.12500000000E+03 0.  0.
</event>
<event>
 5    0  0.5728184E-005  0.3055934E+03  0.7546771E-02  0.1082477E+00
         21   -1    0    0  502  501  0.00000000000E+00  0.00000000000E+00  0.46652992591E+03  0.46652992591E+03  0.00000000000E+00 0.  1.
         21   -1    0    0  501  502 -0.00000000000E+00 -0.00000000000E+00 -0.20017441777E+03  0.20017441777E+03  0.00000000000E+00 0.  1.
         25    1    1    2    0    0 -0.12018257445E+03 -0.76225187232E+02  0.41759089080E+02  0.19396636794E+03  0.12500000000E+03 0.  0.
         25    1    1    2    0    0  0.22217609090E+02 -0.10589186328E+03  0.44024895005E+02  0.17108448276E+03  0.12500000000E+03 0.  0.
         25    1    1    2    0    0  0.97964965364E+02  0.18211705051E+03  0.18057152405E+03  0.30165349298E+03  0.12500000000E+03 0.  0.
</event>
<event>
 5    0  0.5728184E-005  0.2812105E+03  0.7546771E-02  0.1095030E+00
         21   -1    0    0  502  501  0.00000000000E+00  0.00000000000E+00  0.28415488741E+03  0.28415488741E+03  0.00000000000E+00 0. -1.
         21   -1    0    0  501  502 -0.00000000000E+00 -0.00000000000E+00 -0.27829671094E+03  0.27829671094E+03  0.00000000000E+00 0. -1.
         25    1    1    2    0    0 -0.14587843084E+03  0.11054600739E+02 -0.52760473128E+02  0.19952791360E+03  0.12500000000E+03 0.  0.
         25    1    1    2    0    0  0.57736702051E+02  0.93114246653E+02  0.63157832410E+02  0.17781367070E+03  0.12500000000E+03 0.  0.
         25    1    1    2    0    0  0.88141728785E+02 -0.10416884739E+03 -0.45391828171E+01  0.18511001405E+03  0.12500000000E+03 0.  0.
</event>
<event>
 5    0  0.5728184E-005  0.4090707E+03  0.7546771E-02  0.1040683E+00
         21   -1    0    0  502  501  0.00000000000E+00  0.00000000000E+00  0.39214488915E+03  0.39214488915E+03  0.00000000000E+00 0. -1.
         21   -1    0    0  501  502 -0.00000000000E+00 -0.00000000000E+00 -0.42672697934E+03  0.42672697934E+03  0.00000000000E+00 0. -1.
         25    1    1    2    0    0 -0.17747009134E+02  0.10324037112E+03  0.11799322910E+03  0.20129811891E+03  0.12500000000E+03 0.  0.
         25    1    1    2    0    0 -0.10191310073E+03 -0.26057732840E+03 -0.21638801094E+03  0.37514743163E+03  0.12500000000E+03 0.  0.
         25    1    1    2    0    0  0.11966010986E+03  0.15733695728E+03  0.63812691651E+02  0.24242631795E+03  0.12500000000E+03 0.  0.
</event>
<event>
 5    0  0.5728184E-005  0.2302262E+03  0.7546771E-02  0.1126481E+00
         21   -1    0    0  502  501  0.00000000000E+00  0.00000000000E+00  0.11310720248E+03  0.11310720248E+03  0.00000000000E+00 0.  1.
         21   -1    0    0  501  502 -0.00000000000E+00 -0.00000000000E+00 -0.46861817930E+03  0.46861817930E+03  0.00000000000E+00 0.  1.
         25    1    1    2    0    0 -0.12732483270E+02  0.40789269504E+02 -0.20085604144E+03  0.24040388936E+03  0.12500000000E+03 0.  0.
         25    1    1    2    0    0  0.64916403782E+02  0.37228298472E+02 -0.95433317177E+02  0.17416257840E+03  0.12500000000E+03 0.  0.
         25    1    1    2    0    0 -0.52183920512E+02 -0.78017567976E+02 -0.59221618203E+02  0.16715891402E+03  0.12500000000E+03 0.  0.
</event>
<event>
 5    0  0.6356514E-005  0.2904963E+03  0.7546771E-02  0.1090090E+00
         21   -1    0    0  502  501  0.00000000000E+00  0.00000000000E+00  0.22025095337E+03  0.22025095337E+03  0.00000000000E+00 0.  1.
         21   -1    0    0  501  502 -0.00000000000E+00 -0.00000000000E+00 -0.38314510033E+03  0.38314510033E+03  0.00000000000E+00 0.  1.
         25    1    1    2    0    0  0.12306349948E+03 -0.85233856649E+02 -0.71070119980E+02  0.20757022228E+03  0.12500000000E+03 0.  0.
         25    1    1    2    0    0 -0.14183179602E+03  0.14793856523E+03 -0.84649132420E+02  0.25454381365E+03  0.12500000000E+03 0.  0.
         25    1    1    2    0    0  0.18768296549E+02 -0.62704708586E+02 -0.71748945681E+01  0.14128201777E+03  0.12500000000E+03 0.  0.
</event>
<event>
 5    0  0.5728184E-005  0.5555661E+03  0.7546771E-02  0.1000214E+00
         21   -1    0    0  502  501  0.00000000000E+00  0.00000000000E+00  0.13855374343E+03  0.13855374343E+03  0.00000000000E+00 0. -1.
         21   -1    0    0  501  502 -0.00000000000E+00 -0.00000000000E+00 -0.22276822949E+04  0.22276822949E+04  0.00000000000E+00 0. -1.
         25    1    1    2    0    0 -0.40330942396E+03  0.30896548303E+03 -0.93628198356E+03  0.10725516836E+04  0.12500000000E+03 0.  0.
         25    1    1    2    0    0  0.14508384763E+03 -0.69110414998E+02 -0.30117893166E+03  0.36353723493E+03  0.12500000000E+03 0.  0.
         25    1    1    2    0    0  0.25822557632E+03 -0.23985506803E+03 -0.85166763626E+03  0.93014711986E+03  0.12500000000E+03 0.  0.
</event>
<event>
 5    0  0.5728184E-005  0.2424713E+03  0.7546771E-02  0.1118157E+00
         21   -1    0    0  502  501  0.00000000000E+00  0.00000000000E+00  0.51846135363E+03  0.51846135363E+03  0.00000000000E+00 0. -1.
         21   -1    0    0  501  502 -0.00000000000E+00 -0.00000000000E+00 -0.11339769208E+03  0.11339769208E+03  0.00000000000E+00 0. -1.
         25    1    1    2    0    0  0.35117043287E+02  0.77138944592E+02  0.13584514094E+03  0.20313179421E+03  0.12500000000E+03 0.  0.
         25    1    1    2    0    0  0.70606692815E+02 -0.63946346220E+02  0.74309670818E+02  0.17384293901E+03  0.12500000000E+03 0.  0.
         25    1    1    2    0    0 -0.10572373610E+03 -0.13192598372E+02  0.19490884979E+03  0.25488431249E+03  0.12500000000E+03 0.  0.
</event>
<event>
 5    0  0.5728184E-005  0.3575447E+03  0.7546771E-02  0.1059560E+00
         21   -1    0    0  502  501  0.00000000000E+00  0.00000000000E+00  0.10071155666E+03  0.10071155666E+03  0.00000000000E+00 0.  1.
         21   -1    0    0  501  502 -0.00000000000E+00 -0.00000000000E+00 -0.12693497460E+04  0.12693497460E+04  0.00000000000E+00 0.  1.
         25    1    1    2    0    0  0.14256271589E+03 -0.63721967968E+02 -0.15227963094E+03  0.25139352252E+03  0.12500000000E+03 0.  0.
         25    1    1    2    0    0 -0.13952349901E+03  0.20166904049E+03 -0.69103550697E+03  0.74383619202E+03  0.12500000000E+03 0.  0.
         25    1    1    2    0    0 -0.30392168888E+01 -0.13794707252E+03 -0.32532305139E+03  0.37483158808E+03  0.12500000000E+03 0.  0.
</event>
<event>
 5    0  0.5728184E-005  0.3505655E+03  0.7546771E-02  0.1062383E+00
         21   -1    0    0  502  501  0.00000000000E+00  0.00000000000E+00  0.63068429689E+03  0.63068429689E+03  0.00000000000E+00 0.  1.
         21   -1    0    0  501  502 -0.00000000000E+00 -0.00000000000E+00 -0.19486159453E+03  0.19486159453E+03  0.00000000000E+00 0.  1.
         25    1    1    2    0    0  0.21790091599E+03  0.15281706864E+03  0.10459558216E+03  0.31208829114E+03  0.12500000000E+03 0.  0.
         25    1    1    2    0    0 -0.17520853732E+03 -0.70187622337E+02  0.13757091629E+03  0.26490581513E+03  0.12500000000E+03 0.  0.
         25    1    1    2    0    0 -0.42692378673E+02 -0.82629446303E+02  0.19365620391E+03  0.24855178516E+03  0.12500000000E+03 0.  0.
</event>
<event>
 5    0  0.6272842E-005  0.2917452E+03  0.7546771E-02  0.1089441E+00
         21   -1    0    0  502  501  0.00000000000E+00  0.00000000000E+00  0.18391814706E+03  0.18391814706E+03  0.00000000000E+00 0. -1.
         21   -1    0    0  501  502 -0.00000000000E+00 -0.00000000000E+00 -0.46278866255E+03  0.46278866255E+03  0.00000000000E+00 0. -1.
         25    1    1    2    0    0 -0.64239203733E+02 -0.21429205769E+02 -0.19817721555E+03  0.24389566400E+03  0.12500000000E+03 0.  0.
         25    1    1    2    0    0  0.12479365131E+03  0.12807367707E+03 -0.61308470887E+02  0.22662755960E+03  0.12500000000E+03 0.  0.
         25    1    1    2    0    0 -0.60554447581E+02 -0.10664447130E+03 -0.19384829060E+02  0.17618358601E+03  0.12500000000E+03 0.  0.
</event>
<event>
 5    0  0.5728184E-005  0.3426384E+03  0.7546771E-02  0.1065678E+00
         21   -1    0    0  502  501  0.00000000000E+00  0.00000000000E+00  0.53624070431E+03  0.53624070431E+03  0.00000000000E+00 0. -1.
         21   -1    0    0  501  502 -0.00000000000E+00 -0.00000000000E+00 -0.21893359504E+03  0.21893359504E+03  0.00000000000E+00 0. -1.
         25    1    1    2    0    0  0.28206915843E+02  0.16660130356E+03  0.13417670353E+03  0.24935920320E+03  0.12500000000E+03 0.  0.
         25    1    1    2    0    0 -0.57892526793E+02  0.75595341185E+02  0.16976662190E+03  0.23132640614E+03  0.12500000000E+03 0.  0.
         25    1    1    2    0    0  0.29685610950E+02 -0.24219664475E+03  0.13363783834E+02  0.27448869001E+03  0.12500000000E+03 0.  0.
</event>
<event>
 5    0  0.5728184E-005  0.4081739E+03  0.7546771E-02  0.1040986E+00
         21   -1    0    0  502  501  0.00000000000E+00  0.00000000000E+00  0.25698442871E+03  0.25698442871E+03  0.00000000000E+00 0.  1.
         21   -1    0    0  501  502 -0.00000000000E+00 -0.00000000000E+00 -0.64831125663E+03  0.64831125663E+03  0.00000000000E+00 0.  1.
         25    1    1    2    0    0  0.95254636090E+02 -0.27907877682E+02 -0.27084803465E+03  0.31438185891E+03  0.12500000000E+03 0.  0.
         25    1    1    2    0    0  0.14772159412E+03  0.11586952604E+03 -0.19073824457E+03  0.29538702473E+03  0.12500000000E+03 0.  0.
         25    1    1    2    0    0 -0.24297623021E+03 -0.87961648360E+02  0.70259451303E+02  0.29552680171E+03  0.12500000000E+03 0.  0.
</event>
<event>
 5    0  0.5728184E-005  0.4109413E+03  0.7546771E-02  0.1040056E+00
         21   -1    0    0  502  501  0.00000000000E+00  0.00000000000E+00  0.97318987082E+03  0.97318987082E+03  0.00000000000E+00 0.  1.
         21   -1    0    0  501  502 -0.00000000000E+00 -0.00000000000E+00 -0.17352498281E+03  0.17352498281E+03  0.00000000000E+00 0.  1.
         25    1    1    2    0    0  0.18168885352E+03 -0.79925275571E+02  0.18086101580E+03  0.29620026368E+03  0.12500000000E+03 0.  0.
         25    1    1    2    0    0 -0.15847456551E+03 -0.18750429997E+03  0.21336735489E+03  0.34845757066E+03  0.12500000000E+03 0.  0.
         25    1    1    2    0    0 -0.23214288013E+02  0.26742957554E+03  0.40543651732E+03  0.50205701929E+03  0.12500000000E+03 0.  0.
</event>
<event>
 5    0  0.5728184E-005  0.3729792E+03  0.7546771E-02  0.1053560E+00
         21   -1    0    0  502  501  0.00000000000E+00  0.00000000000E+00  0.85620136850E+03  0.85620136850E+03  0.00000000000E+00 0. -1.
         21   -1    0    0  501  502 -0.00000000000E+00 -0.00000000000E+00 -0.16247756216E+03  0.16247756216E+03  0.00000000000E+00 0. -1.
         25    1    1    2    0    0  0.22034919118E+02 -0.70229587446E+02  0.15855198797E+03  0.21489873313E+03  0.12500000000E+03 0.  0.
         25    1    1    2    0    0  0.13457924638E+03 -0.58875082076E+02 -0.25481965073E+02  0.19455636558E+03  0.12500000000E+03 0.  0.
         25    1    1    2    0    0 -0.15661416550E+03  0.12910466952E+03  0.56065378344E+03  0.60922383194E+03  0.12500000000E+03 0.  0.
</event>
<event>
 5    0  0.5728184E-005  0.2585742E+03  0.7546771E-02  0.1108003E+00
         21   -1    0    0  502  501  0.00000000000E+00  0.00000000000E+00  0.15908921864E+03  0.15908921864E+03  0.00000000000E+00 0. -1.
         21   -1    0    0  501  502 -0.00000000000E+00 -0.00000000000E+00 -0.42027132062E+03  0.42027132062E+03  0.00000000000E+00 0. -1.
         25    1    1    2    0    0 -0.63954435615E+02  0.64953137983E+02  0.30355497264E+01  0.15473620950E+03  0.12500000000E+03 0.  0.
         25    1    1    2    0    0  0.12699027173E+03 -0.65958439499E+02 -0.17703713487E+03  0.25970019634E+03  0.12500000000E+03 0.  0.
         25    1    1    2    0    0 -0.63035836119E+02  0.10053015160E+01 -0.87180516833E+02  0.16492413341E+03  0.12500000000E+03 0.  0.
</event>
<event>
 5    0  0.5728184E-005  0.4158806E+03  0.7546771E-02  0.1038415E+00
         21   -1    0    0  502  501  0.00000000000E+00  0.00000000000E+00  0.35179778898E+03  0.35179778898E+03  0.00000000000E+00 0. -1.
         21   -1    0    0  501  502 -0.00000000000E+00 -0.00000000000E+00 -0.49163670618E+03  0.49163670618E+03  0.00000000000E+00 0. -1.
         25    1    1    2    0    0 -0.56696974398E+02  0.38154788496E+02 -0.22989670377E+02  0.14430474606E+03  0.12500000000E+03 0.  0.
         25    1    1    2    0    0 -0.96049948995E+02 -0.24434423611E+03 -0.25064366080E+03  0.38389704756E+03  0.12500000000E+03 0.  0.
         25    1    1    2    0    0  0.15274692339E+03  0.20618944761E+03  0.13379441398E+03  0.31523270155E+03  0.12500000000E+03 0.  0.
</event>
<event>
 5    0  0.5728184E-005  0.4554340E+03  0.7546771E-02  0.1026114E+00
         21   -1    0    0  502  501  0.00000000000E+00  0.00000000000E+00  0.18417597251E+03  0.18417597251E+03  0.00000000000E+00 0.  1.
         21   -1    0    0  501  502 -0.00000000000E+00 -0.00000000000E+00 -0.11262060323E+04  0.11262060323E+04  0.00000000000E+00 0.  1.
         25    1    1    2    0    0 -0.73878790989E+02 -0.36908119960E+03 -0.64199702629E+03  0.75462851087E+03  0.12500000000E+03 0.  0.
         25    1    1    2    0    0  0.89375170478E+02  0.18485074192E+03 -0.11812652528E+03  0.26783687920E+03  0.12500000000E+03 0.  0.
         25    1    1    2    0    0 -0.15496379489E+02  0.18423045768E+03 -0.18190650823E+03  0.28791661476E+03  0.12500000000E+03 0.  0.
</event>
<event>
 5    0  0.5728184E-005  0.3943556E+03  0.7546771E-02  0.1045752E+00
         21   -1    0    0  502  501  0.00000000000E+00  0.00000000000E+00  0.55216035084E+03  0.55216035084E+03  0.00000000000E+00 0.  1.
         21   -1    0    0  501  502 -0.00000000000E+00 -0.00000000000E+00 -0.28165071034E+03  0.28165071034E+03  0.00000000000E+00 0.  1.
         25    1    1    2    0    0  0.11439387776E+03  0.10180848960E+03 -0.14563454745E+03  0.24553075008E+03  0.12500000000E+03 0.  0.
         25    1    1    2    0    0  0.29165735225E+02 -0.16026843437E+03  0.27933668775E+03  0.34668515441E+03  0.12500000000E+03 0.  0.
         25    1    1    2    0    0 -0.14355961299E+03  0.58459944766E+02  0.13680750019E+03  0.24159515668E+03  0.12500000000E+03 0.  0.
</event>
<event>
 5    0  0.5728184E-005  0.2971872E+03  0.7546771E-02  0.1086655E+00
         21   -1    0    0  502  501  0.00000000000E+00  0.00000000000E+00  0.98593423377E+03  0.98593423377E+03  0.00000000000E+00 0.  1.
         21   -1    0    0  501  502 -0.00000000000E+00 -0.00000000000E+00 -0.89580270985E+02  0.89580270985E+02  0.00000000000E+00 0.  1.
         25    1    1    2    0    0  0.49776593978E+01  0.14195431593E+03  0.40000149337E+03  0.44249519726E+03  0.12500000000E+03 0.  0.
         25    1    1    2    0    0 -0.13544332528E+03 -0.82849771468E+02  0.27450107877E+03  0.34085894626E+03  0.12500000000E+03 0.  0.
         25    1    1    2    0    0  0.13046566588E+03 -0.59104544459E+02  0.22185139065E+03  0.29216036124E+03  0.12500000000E+03 0.  0.
</event>
<event>
 5    0  0.5728184E-005  0.2826724E+03  0.7546771E-02  0.1094238E+00
         21   -1    0    0  502  501  0.00000000000E+00  0.00000000000E+00  0.64217711694E+03  0.64217711694E+03  0.00000000000E+00 0. -1.
         21   -1    0    0  501  502 -0.00000000000E+00 -0.00000000000E+00 -0.12442622751E+03  0.12442622751E+03  0.00000000000E+00 0. -1.
         25    1    1    2    0    0  0.37786132908E+02  0.64634022471E+02  0.21761937906E+03  0.26189414435E+03  0.12500000000E+03 0.  0.
         25    1    1    2    0    0  0.19237541355E+02  0.12020386549E+03  0.11207570845E+03  0.20737650952E+03  0.12500000000E+03 0.  0.
         25    1    1    2    0    0 -0.57023674263E+02 -0.18483788796E+03  0.18805580192E+03  0.29733269058E+03  0.12500000000E+03 0.  0.
</event>
<event>
 5    0  0.5728184E-005  0.3073671E+03  0.7546771E-02  0.1081615E+00
         21   -1    0    0  502  501  0.00000000000E+00  0.00000000000E+00  0.15010271759E+03  0.15010271759E+03  0.00000000000E+00 0. -1.
         21   -1    0    0  501  502 -0.00000000000E+00 -0.00000000000E+00 -0.62939919098E+03  0.62939919098E+03  0.00000000000E+00 0. -1.
         25    1    1    2    0    0 -0.13456517938E+03  0.23878547743E+02 -0.22829502473E+02  0.18661232201E+03  0.12500000000E+03 0.  0.
         25    1    1    2    0    0 -0.39350617318E+02 -0.77895746637E+02 -0.14014119440E+03  0.20707673166E+03  0.12500000000E+03 0.  0.
         25    1    1    2    0    0  0.17391579670E+03  0.54017198894E+02 -0.31632577651E+03  0.38581285490E+03  0.12500000000E+03 0.  0.
</event>
<event>
 5    0  0.5728184E-005  0.2856697E+03  0.7546771E-02  0.1092632E+00
         21   -1    0    0  502  501  0.00000000000E+00  0.00000000000E+00  0.21481268513E+03  0.21481268513E+03  0.00000000000E+00 0.  1.
         21   -1    0    0  501  502 -0.00000000000E+00 -0.00000000000E+00 -0.37989916647E+03  0.37989916647E+03  0.00000000000E+00 0.  1.
         25    1    1    2    0    0 -0.34690789029E+01 -0.85639770148E+02  0.41682636195E+02  0.15718984350E+03  0.12500000000E+03 0.  0.
         25    1    1    2    0    0 -0.86721132734E+02  0.35995764818E+02 -0.22561921201E+03  0.27449094479E+03  0.12500000000E+03 0.  0.
         25    1    1    2    0    0  0.90190211636E+02  0.49644005330E+02  0.18850094472E+02  0.16303106330E+03  0.12500000000E+03 0.  0.
</event>
<event>
 5    0  0.5728184E-005  0.3002129E+03  0.7546771E-02  0.1085134E+00
         21   -1    0    0  502  501  0.00000000000E+00  0.00000000000E+00  0.15400441768E+03  0.15400441768E+03  0.00000000000E+00 0. -1.
         21   -1    0    0  501  502 -0.00000000000E+00 -0.00000000000E+00 -0.58522854447E+03  0.58522854447E+03  0.00000000000E+00 0. -1.
         25    1    1    2    0    0  0.51509896025E+00 -0.28418376882E+02 -0.38401711209E+03  0.40484813430E+03  0.12500000000E+03 0.  0.
         25    1    1    2    0    0  0.30535671841E+01 -0.76561263575E+02  0.36232410065E+02  0.15102562330E+03  0.12500000000E+03 0.  0.
         25    1    1    2    0    0 -0.35686661443E+01  0.10497964046E+03 -0.83439424760E+02  0.18335920455E+03  0.12500000000E+03 0.  0.
</event>
<event>
 5    0  0.5728184E-005  0.3530497E+03  0.7546771E-02  0.1061370E+00
         21   -1    0    0  502  501  0.00000000000E+00  0.00000000000E+00  0.46081936502E+02  0.46081936502E+02  0.00000000000E+00 0.  1.
         21   -1    0    0  501  502 -0.00000000000E+00 -0.00000000000E+00 -0.27048360434E+04  0.27048360434E+04  0.00000000000E+00 0.  1.
         25    1    1    2    0    0 -0.17059292233E+03 -0.21367855478E+03 -0.95068473163E+03  0.99708922814E+03  0.12500000000E+03 0.  0.
         25    1    1    2    0    0  0.12930163449E+03  0.52134064760E+02 -0.71343363355E+03  0.73759705996E+03  0.12500000000E+03 0.  0.
         25    1    1    2    0    0  0.41291287834E+02  0.16154449002E+03 -0.99463574172E+03  0.10162316918E+04  0.12500000000E+03 0.  0.
</event>
<event>
 5    0  0.5728184E-005  0.3984012E+03  0.7546771E-02  0.1044335E+00
         21   -1    0    0  502  501  0.00000000000E+00  0.00000000000E+00  0.10104896358E+04  0.10104896358E+04  0.00000000000E+00 0. -1.
         21   -1    0    0  501  502 -0.00000000000E+00 -0.00000000000E+00 -0.15707587182E+03  0.15707587182E+03  0.00000000000E+00 0. -1.
         25    1    1    2    0    0  0.12264693589E+03 -0.25073175517E+02  0.36226453260E+03  0.40315198944E+03  0.12500000000E+03 0.  0.
         25    1    1    2    0    0  0.29717275651E+02  0.25340461683E+03  0.23591740192E+03  0.36929532468E+03  0.12500000000E+03 0.  0.
         25    1    1    2    0    0 -0.15236421154E+03 -0.22833144131E+03  0.25523182941E+03  0.39511819345E+03  0.12500000000E+03 0.  0.
</event>
<event>
 5    0  0.5728184E-005  0.3106042E+03  0.7546771E-02  0.1080057E+00
         21   -1    0    0  502  501  0.00000000000E+00  0.00000000000E+00  0.20048373597E+03  0.20048373597E+03  0.00000000000E+00 0.  1.
         21   -1    0    0  501  502 -0.00000000000E+00 -0.00000000000E+00 -0.48121099096E+03  0.48121099096E+03  0.00000000000E+00 0.  1.
         25    1    1    2    0    0 -0.88463222566E+02 -0.17805212077E+03 -0.37269086542E+02  0.23778621547E+03  0.12500000000E+03 0.  0.
         25    1    1    2    0    0  0.11170520499E+03  0.23110266241E+02 -0.91437854648E+02  0.19234868986E+03  0.12500000000E+03 0.  0.
         25    1    1    2    0    0 -0.23241982424E+02  0.15494185453E+03 -0.15202031381E+03  0.25155982160E+03  0.12500000000E+03 0.  0.
</event>
<event>
 5    0  0.5728184E-005  0.3870858E+03  0.7546771E-02  0.1048345E+00
         21   -1    0    0  502  501  0.00000000000E+00  0.00000000000E+00  0.99834879404E+03  0.99834879404E+03  0.00000000000E+00 0.  1.
         21   -1    0    0  501  502 -0.00000000000E+00 -0.00000000000E+00 -0.15008325834E+03  0.15008325834E+03  0.00000000000E+00 0.  1.
         25    1    1    2    0    0 -0.18508265328E+03 -0.17536420324E+03  0.67198617366E+03  0.72951943765E+03  0.12500000000E+03 0.  0.
         25    1    1    2    0    0  0.11961897319E+03  0.10055510160E+03  0.30020370660E+02  0.20235179727E+03  0.12500000000E+03 0.  0.
         25    1    1    2    0    0  0.65463680095E+02  0.74809101635E+02  0.14625899137E+03  0.21656081745E+03  0.12500000000E+03 0.  0.
</event>
<event>
 5    0  0.5728184E-005  0.2500636E+03  0.7546771E-02  0.1113265E+00
         21   -1    0    0  502  501  0.00000000000E+00  0.00000000000E+00  0.93185588756E+03  0.93185588756E+03  0.00000000000E+00 0.  1.
         21   -1    0    0  501  502 -0.00000000000E+00 -0.00000000000E+00 -0.67104596140E+02  0.67104596140E+02  0.00000000000E+00 0.  1.
         25    1    1    2    0    0 -0.58975277538E+02 -0.92159965003E+01  0.17705489777E+03  0.22480314672E+03  0.12500000000E+03 0.  0.
         25    1    1    2    0    0  0.75097368793E+02 -0.94861517407E+02  0.47537994782E+03  0.50621084251E+03  0.12500000000E+03 0.  0.
         25    1    1    2    0    0 -0.16122091255E+02  0.10407751391E+03  0.21231644582E+03  0.26794649446E+03  0.12500000000E+03 0.  0.
</event>
<event>
 5    0  0.5728184E-005  0.5448248E+03  0.7546771E-02  0.1002699E+00
         21   -1    0    0  502  501  0.00000000000E+00  0.00000000000E+00  0.18492065844E+04  0.18492065844E+04  0.00000000000E+00 0.  1.
         21   -1    0    0  501  502 -0.00000000000E+00 -0.00000000000E+00 -0.16051966187E+03  0.16051966187E+03  0.00000000000E+00 0.  1.
         25    1    1    2    0    0 -0.29178492217E+03 -0.37127250898E+03  0.68463270605E+03  0.84102833420E+03  0.12500000000E+03 0.  0.
         25    1    1    2    0    0  0.29786642994E+03  0.19027207609E+03  0.68916043553E+03  0.78453488063E+03  0.12500000000E+03 0.  0.
         25    1    1    2    0    0 -0.60815077620E+01  0.18100043289E+03  0.31489378092E+03  0.38416303141E+03  0.12500000000E+03 0.  0.
</event>
<event>
 5    0  0.5728184E-005  0.4299373E+03  0.7546771E-02  0.1033880E+00
         21   -1    0    0  502  501  0.00000000000E+00  0.00000000000E+00  0.12803473583E+03  0.12803473583E+03  0.00000000000E+00 0. -1.
         21   -1    0    0  501  502 -0.00000000000E+00 -0.00000000000E+00 -0.14437182644E+04  0.14437182644E+04  0.00000000000E+00 0. -1.
         25    1    1    2    0    0 -0.28104944946E+03  0.43171294873E+02 -0.43281456856E+03  0.53273445965E+03  0.12500000000E+03 0.  0.
         25    1    1    2    0    0  0.34058617337E+02 -0.18506656378E+03 -0.47574830431E+03  0.52666029991E+03  0.12500000000E+03 0.  0.
         25    1    1    2    0    0  0.24699083212E+03  0.14189526890E+03 -0.40712065573E+03  0.51235824070E+03  0.12500000000E+03 0.  0.
</event>
<event>
 5    0  0.5728184E-005  0.3347612E+03  0.7546771E-02  0.1069049E+00
         21   -1    0    0  502  501  0.00000000000E+00  0.00000000000E+00  0.19092804649E+04  0.19092804649E+04  0.00000000000E+00 0.  1.
         21   -1    0    0  501  502 -0.00000000000E+00 -0.00000000000E+00 -0.58694916816E+02  0.58694916816E+02  0.00000000000E+00 0.  1.
         25    1    1    2    0    0 -0.98307906867E+02 -0.10583562013E+03  0.18511349731E+03  0.26600306376E+03  0.12500000000E+03 0.  0.
         25    1    1    2    0    0  0.14851762240E+03  0.31658058531E+02  0.95711715442E+03  0.97711717011E+03  0.12500000000E+03 0.  0.
         25    1    1    2    0    0 -0.50209715529E+02  0.74177561604E+02  0.70835489631E+03  0.72485514781E+03  0.12500000000E+03 0.  0.
</event>
<event>
 5    0  0.5728184E-005  0.3228108E+03  0.7546771E-02  0.1074363E+00
         21   -1    0    0  502  501  0.00000000000E+00  0.00000000000E+00  0.15326318680E+03  0.15326318680E+03  0.00000000000E+00 0. -1.
         21   -1    0    0  501  502 -0.00000000000E+00 -0.00000000000E+00 -0.67992064181E+03  0.67992064181E+03  0.00000000000E+00 0. -1.
         25    1    1    2    0    0 -0.44309236971E+02  0.18130679068E+03 -0.19979219947E+03  0.30062831503E+03  0.12500000000E+03 0.  0.
         25    1    1    2    0    0  0.15958212628E+03 -0.10131483719E+03 -0.13395480913E+03  0.26324901168E+03  0.12500000000E+03 0.  0.
         25    1    1    2    0    0 -0.11527288931E+03 -0.79991953496E+02 -0.19291044641E+03  0.26930650190E+03  0.12500000000E+03 0.  0.
</event>
<event>
 5    0  0.5728184E-005  0.2500236E+03  0.7546771E-02  0.1113290E+00
         21   -1    0    0  502  501  0.00000000000E+00  0.00000000000E+00  0.22131152877E+03  0.22131152877E+03  0.00000000000E+00 0.  1.
         21   -1    0    0  501  502 -0.00000000000E+00 -0.00000000000E+00 -0.28246059511E+03  0.28246059511E+03  0.00000000000E+00 0.  1.
         25    1    1    2    0    0 -0.15254214445E+02  0.21439714513E+02 -0.14348397508E+03  0.19210675033E+03  0.12500000000E+03 0.  0.
         25    1    1    2    0    0 -0.64460430776E+02 -0.21657115324E+02  0.45054023339E+00  0.14230031893E+03  0.12500000000E+03 0.  0.
         25    1    1    2    0    0  0.79714645221E+02  0.21740081052E+00  0.81884368498E+02  0.16936505463E+03  0.12500000000E+03 0.  0.
</event>
<event>
 5    0  0.5728184E-005  0.2847754E+03  0.7546771E-02  0.1093109E+00
         21   -1    0    0  502  501  0.00000000000E+00  0.00000000000E+00  0.14681615739E+04  0.14681615739E+04  0.00000000000E+00 0. -1.
         21   -1    0    0  501  502 -0.00000000000E+00 -0.00000000000E+00 -0.55237111666E+02  0.55237111666E+02  0.00000000000E+00 0. -1.
         25    1    1    2    0    0  0.34303605532E+02  0.87084652003E+02  0.16029590519E+03  0.22378617291E+03  0.12500000000E+03 0.  0.
         25    1    1    2    0    0 -0.53325446475E+02  0.11177450530E+02  0.92442657448E+03  0.93442925374E+03  0.12500000000E+03 0.  0.
         25    1    1    2    0    0  0.19021840943E+02 -0.98262102534E+02  0.32820198254E+03  0.36518325888E+03  0.12500000000E+03 0.  0.
</event>
<event>
 5    0  0.5728184E-005  0.3529334E+03  0.7546771E-02  0.1061417E+00
         21   -1    0    0  502  501  0.00000000000E+00  0.00000000000E+00  0.45630539740E+03  0.45630539740E+03  0.00000000000E+00 0. -1.
         21   -1    0    0  501  502 -0.00000000000E+00 -0.00000000000E+00 -0.27297938690E+03  0.27297938690E+03  0.00000000000E+00 0. -1.
         25    1    1    2    0    0 -0.54399834517E+02 -0.14908969072E+03  0.30544809049E+03  0.36621116021E+03  0.12500000000E+03 0.  0.
         25    1    1    2    0    0  0.20869952997E+02  0.14617134480E+02 -0.12188845469E+03  0.17643982245E+03  0.12500000000E+03 0.  0.
         25    1    1    2    0    0  0.33529881521E+02  0.13447255624E+03 -0.23362529548E+00  0.18663380165E+03  0.12500000000E+03 0.  0.
</event>
<event>
 5    0  0.5728184E-005  0.2671701E+03  0.7546771E-02  0.1102910E+00
         21   -1    0    0  502  501  0.00000000000E+00  0.00000000000E+00  0.37733593285E+03  0.37733593285E+03  0.00000000000E+00 0.  1.
         21   -1    0    0  501  502 -0.00000000000E+00 -0.00000000000E+00 -0.18916801342E+03  0.18916801342E+03  0.00000000000E+00 0.  1.
         25    1    1    2    0    0  0.74206998134E+02 -0.13933142920E+02 -0.49061058818E+02  0.15405453105E+03  0.12500000000E+03 0.  0.
         25    1    1    2    0    0  0.47779470393E+01 -0.20954039357E+02  0.22718774171E+03  0.26019448597E+03  0.12500000000E+03 0.  0.
         25    1    1    2    0    0 -0.78984945173E+02  0.34887182278E+02  0.10041236526E+02  0.15225492925E+03  0.12500000000E+03 0.  0.
</event>
<event>
 5    0  0.5728184E-005  0.2853466E+03  0.7546771E-02  0.1092804E+00
         21   -1    0    0  502  501  0.00000000000E+00  0.00000000000E+00  0.34638080970E+03  0.34638080970E+03  0.00000000000E+00 0.  1.
         21   -1    0    0  501  502 -0.00000000000E+00 -0.00000000000E+00 -0.23506696265E+03  0.23506696265E+03  0.00000000000E+00 0.  1.
         25    1    1    2    0    0  0.50247245861E+02  0.13684834003E+03  0.90974403895E+02  0.21249375532E+03  0.12500000000E+03 0.  0.
         25    1    1    2    0    0 -0.15303725538E+02 -0.44240767815E+02  0.12119467820E+03  0.18029032025E+03  0.12500000000E+03 0.  0.
         25    1    1    2    0    0 -0.34943520322E+02 -0.92607572220E+02 -0.10085523505E+03  0.18866369678E+03  0.12500000000E+03 0.  0.
</event>
<event>
 5    0  0.5728184E-005  0.3444928E+03  0.7546771E-02  0.1064898E+00
         21   -1    0    0  502  501  0.00000000000E+00  0.00000000000E+00  0.10984374273E+04  0.10984374273E+04  0.00000000000E+00 0.  1.
         21   -1    0    0  501  502 -0.00000000000E+00 -0.00000000000E+00 -0.10804012491E+03  0.10804012491E+03  0.00000000000E+00 0.  1.
         25    1    1    2    0    0  0.23544420221E+02  0.32452588026E+02  0.39976182810E+03  0.42076362652E+03  0.12500000000E+03 0.  0.
         25    1    1    2    0    0 -0.20509424755E+03  0.66542484238E+02  0.17359288241E+03  0.30372856535E+03  0.12500000000E+03 0.  0.
         25    1    1    2    0    0  0.18154982733E+03 -0.98995072264E+02  0.41704259185E+03  0.48198536030E+03  0.12500000000E+03 0.  0.
</event>
<event>
 5    0  0.5728184E-005  0.2329951E+03  0.7546771E-02  0.1124549E+00
         21   -1    0    0  502  501  0.00000000000E+00  0.00000000000E+00  0.26870186949E+03  0.26870186949E+03  0.00000000000E+00 0. -1.
         21   -1    0    0  501  502 -0.00000000000E+00 -0.00000000000E+00 -0.20203319954E+03  0.20203319954E+03  0.00000000000E+00 0. -1.
         25    1    1    2    0    0  0.10524546742E+03 -0.17707729263E+02  0.36677166035E+02  0.16840542330E+03  0.12500000000E+03 0.  0.
         25    1    1    2    0    0 -0.36703148527E+02  0.46438328151E+02  0.64895188847E+02  0.15277442511E+03  0.12500000000E+03 0.  0.
         25    1    1    2    0    0 -0.68542318898E+02 -0.28730598888E+02 -0.34903684932E+02  0.14955522062E+03  0.12500000000E+03 0.  0.
</event>
<event>
 5    0  0.5728184E-005  0.1995127E+03  0.7546771E-02  0.1150151E+00
         21   -1    0    0  502  501  0.00000000000E+00  0.00000000000E+00  0.81783840368E+03  0.81783840368E+03  0.00000000000E+00 0.  1.
         21   -1    0    0  501  502 -0.00000000000E+00 -0.00000000000E+00 -0.48671354313E+02  0.48671354313E+02  0.00000000000E+00 0.  1.
         25    1    1    2    0    0  0.37062206484E+02 -0.11990300679E+02  0.23498033567E+03  0.26899467023E+03  0.12500000000E+03 0.  0.
         25    1    1    2    0    0  0.19413146116E+02 -0.16111693637E+02  0.24384738331E+03  0.27517813005E+03  0.12500000000E+03 0.  0.
         25    1    1    2    0    0 -0.56475352600E+02  0.28101994316E+02  0.29033933040E+03  0.32233695772E+03  0.12500000000E+03 0.  0.
</event>
<event>
 5    0  0.5854496E-005  0.3106980E+03  0.7546771E-02  0.1080012E+00
         21   -1    0    0  502  501  0.00000000000E+00  0.00000000000E+00  0.47133391277E+03  0.47133391277E+03  0.00000000000E+00 0. -1.
         21   -1    0    0  501  502 -0.00000000000E+00 -0.00000000000E+00 -0.20480858626E+03  0.20480858626E+03  0.00000000000E+00 0. -1.
         25    1    1    2    0    0 -0.29128241288E+02  0.56418294439E+02  0.15742581722E+03  0.21080646649E+03  0.12500000000E+03 0.  0.
         25    1    1    2    0    0 -0.94939281187E+02 -0.14244482817E+03  0.15674215816E+03  0.26362302694E+03  0.12500000000E+03 0.  0.
         25    1    1    2    0    0  0.12406752248E+03  0.86026533736E+02 -0.47642648872E+02  0.20171300561E+03  0.12500000000E+03 0.  0.
</event>
<event>
 5    0  0.5728184E-005  0.4104520E+03  0.7546771E-02  0.1040219E+00
         21   -1    0    0  502  501  0.00000000000E+00  0.00000000000E+00  0.38846890478E+03  0.38846890478E+03  0.00000000000E+00 0. -1.
         21   -1    0    0  501  502 -0.00000000000E+00 -0.00000000000E+00 -0.43367919478E+03  0.43367919478E+03  0.00000000000E+00 0.  1.
         25    1    1    2    0    0 -0.18732622781E+02  0.56768574726E+00 -0.12429430201E+03  0.17727184474E+03  0.12500000000E+03 0.  0.
         25    1    1    2    0    0 -0.24424626051E+03 -0.81722894474E+01  0.18930695690E+03  0.33344436720E+03  0.12500000000E+03 0.  0.
         25    1    1    2    0    0  0.26297888329E+03  0.76046037001E+01 -0.11022294488E+03  0.31143188763E+03  0.12500000000E+03 0.  0.
</event>
<event>
 5    0  0.5728184E-005  0.2815144E+03  0.7546771E-02  0.1094865E+00
         21   -1    0    0  502  501  0.00000000000E+00  0.00000000000E+00  0.11062302871E+04  0.11062302871E+04  0.00000000000E+00 0.  1.
         21   -1    0    0  501  502 -0.00000000000E+00 -0.00000000000E+00 -0.71639993272E+02  0.71639993272E+02  0.00000000000E+00 0.  1.
         25    1    1    2    0    0 -0.14502443460E+03  0.96428363388E+02  0.27384086025E+03  0.34777051721E+03  0.12500000000E+03 0.  0.
         25    1    1    2    0    0  0.38038507605E+02  0.49938873084E+01  0.22095253911E+03  0.25674285094E+03  0.12500000000E+03 0.  0.
         25    1    1    2    0    0  0.10698592700E+03 -0.10142225070E+03  0.53979689443E+03  0.57335691218E+03  0.12500000000E+03 0.  0.
</event>
<event>
 5    0  0.5728184E-005  0.4816568E+03  0.7546771E-02  0.1018681E+00
         21   -1    0    0  502  501  0.00000000000E+00  0.00000000000E+00  0.19041920375E+03  0.19041920375E+03  0.00000000000E+00 0.  1.
         21   -1    0    0  501  502 -0.00000000000E+00 -0.00000000000E+00 -0.12183294093E+04  0.12183294093E+04  0.00000000000E+00 0.  1.
         25    1    1    2    0    0  0.33761630831E+01 -0.12517757418E+03 -0.19333319087E+02  0.17798764222E+03  0.12500000000E+03 0.  0.
         25    1    1    2    0    0  0.26340475329E+03  0.24737318962E+03 -0.61500631596E+03  0.72417769067E+03  0.12500000000E+03 0.  0.
         25    1    1    2    0    0 -0.26678091638E+03 -0.12219561544E+03 -0.39357057049E+03  0.50658328015E+03  0.12500000000E+03 0.  0.
</event>
<event>
 5    0  0.5728184E-005  0.2618019E+03  0.7546771E-02  0.1106065E+00
         21   -1    0    0  502  501  0.00000000000E+00  0.00000000000E+00  0.66390780248E+03  0.66390780248E+03  0.00000000000E+00 0. -1.
         21   -1    0    0  501  502 -0.00000000000E+00 -0.00000000000E+00 -0.10323760703E+03  0.10323760703E+03  0.00000000000E+00 0. -1.
         25    1    1    2    0    0  0.61723133239E+02  0.42620667651E+02  0.32292646228E+03  0.35430603513E+03  0.12500000000E+03 0.  0.
         25    1    1    2    0    0 -0.10577715857E+03  0.54495986575E+02  0.13431879373E+03  0.21868963893E+03  0.12500000000E+03 0.  0.
         25    1    1    2    0    0  0.44054025336E+02 -0.97116654226E+02  0.10342493945E+03  0.19414973545E+03  0.12500000000E+03 0.  0.
</event>
<event>
 5    0  0.5728184E-005  0.2369310E+03  0.7546771E-02  0.1121854E+00
         21   -1    0    0  502  501  0.00000000000E+00  0.00000000000E+00  0.11081524681E+03  0.11081524681E+03  0.00000000000E+00 0.  1.
         21   -1    0    0  501  502 -0.00000000000E+00 -0.00000000000E+00 -0.50657546990E+03  0.50657546990E+03  0.00000000000E+00 0.  1.
         25    1    1    2    0    0  0.42895488025E+02  0.86752235835E+02 -0.15774034876E+03  0.22332261628E+03  0.12500000000E+03 0.  0.
         25    1    1    2    0    0 -0.10374804683E+03 -0.54235910391E+02 -0.13233522825E+03  0.21643198431E+03  0.12500000000E+03 0.  0.
         25    1    1    2    0    0  0.60852558801E+02 -0.32516325444E+02 -0.10568464608E+03  0.17763611612E+03  0.12500000000E+03 0.  0.
</event>
<event>
 5    0  0.5728184E-005  0.3294913E+03  0.7546771E-02  0.1071362E+00
         21   -1    0    0  502  501  0.00000000000E+00  0.00000000000E+00  0.10895442617E+03  0.10895442617E+03  0.00000000000E+00 0. -1.
         21   -1    0    0  501  502 -0.00000000000E+00 -0.00000000000E+00 -0.99642113047E+03  0.99642113047E+03  0.00000000000E+00 0. -1.
         25    1    1    2    0    0 -0.10437352625E+03  0.51703485700E+02 -0.12708334950E+03  0.21293722346E+03  0.12500000000E+03 0.  0.
         25    1    1    2    0    0  0.77374073180E+01  0.15254555219E+03 -0.42982666592E+03  0.47297566080E+03  0.12500000000E+03 0.  0.
         25    1    1    2    0    0  0.96636118935E+02 -0.20424903789E+03 -0.33055668887E+03  0.41946267238E+03  0.12500000000E+03 0.  0.
</event>
<event>
 5    0  0.5855487E-005  0.3078728E+03  0.7546771E-02  0.1081370E+00
         21   -1    0    0  502  501  0.00000000000E+00  0.00000000000E+00  0.58100067063E+03  0.58100067063E+03  0.00000000000E+00 0. -1.
         21   -1    0    0  501  502 -0.00000000000E+00 -0.00000000000E+00 -0.16314209910E+03  0.16314209910E+03  0.00000000000E+00 0. -1.
         25    1    1    2    0    0 -0.99789945324E+02  0.76009419601E+01  0.34646624596E+03  0.38168005855E+03  0.12500000000E+03 0.  0.
         25    1    1    2    0    0 -0.21531756276E+02 -0.69130316183E+02 -0.35864659557E+02  0.14884183199E+03  0.12500000000E+03 0.  0.
         25    1    1    2    0    0  0.12132170160E+03  0.61529374223E+02  0.10725698512E+03  0.21362087920E+03  0.12500000000E+03 0.  0.
</event>
<event>
 5    0  0.5728184E-005  0.2391123E+03  0.7546771E-02  0.1120386E+00
         21   -1    0    0  502  501  0.00000000000E+00  0.00000000000E+00  0.68478867009E+02  0.68478867009E+02  0.00000000000E+00 0.  1.
         21   -1    0    0  501  502 -0.00000000000E+00 -0.00000000000E+00 -0.83492456232E+03  0.83492456232E+03  0.00000000000E+00 0.  1.
         25    1    1    2    0    0  0.19673220337E+01 -0.40452869250E+02 -0.27341176114E+03  0.30334682480E+03  0.12500000000E+03 0.  0.
         25    1    1    2    0    0 -0.59505072332E+02  0.11062499246E+03 -0.18931135965E+03  0.25931165319E+03  0.12500000000E+03 0.  0.
         25    1    1    2    0    0  0.57537750298E+02 -0.70172123212E+02 -0.30372257453E+03  0.34074495134E+03  0.12500000000E+03 0.  0.
</event>
<event>
 5    0  0.5728184E-005  0.3263356E+03  0.7546771E-02  0.1072770E+00
         21   -1    0    0  502  501  0.00000000000E+00  0.00000000000E+00  0.36444141529E+03  0.36444141529E+03  0.00000000000E+00 0. -1.
         21   -1    0    0  501  502 -0.00000000000E+00 -0.00000000000E+00 -0.29221418964E+03  0.29221418964E+03  0.00000000000E+00 0. -1.
         25    1    1    2    0    0 -0.16271313081E+03  0.55728706894E+02  0.39895422138E+02  0.21632821456E+03  0.12500000000E+03 0.  0.
         25    1    1    2    0    0  0.12434625887E+03  0.57375429511E+02  0.14378172034E+03  0.23463187147E+03  0.12500000000E+03 0.  0.
         25    1    1    2    0    0  0.38366871940E+02 -0.11310413641E+03 -0.11144991683E+03  0.20569551890E+03  0.12500000000E+03 0.  0.
</event>
<event>
 5    0  0.5728184E-005  0.3211303E+03  0.7546771E-02  0.1075130E+00
         21   -1    0    0  502  501  0.00000000000E+00  0.00000000000E+00  0.13723567434E+04  0.13723567434E+04  0.00000000000E+00 0. -1.
         21   -1    0    0  501  502 -0.00000000000E+00 -0.00000000000E+00 -0.75144234829E+02  0.75144234829E+02  0.00000000000E+00 0. -1.
         25    1    1    2    0    0 -0.15716856299E+03  0.33121824130E+01  0.20593092265E+03  0.28765512797E+03  0.12500000000E+03 0.  0.
         25    1    1    2    0    0 -0.27975566182E+02 -0.52238031091E+02  0.62975130721E+03  0.64476596772E+03  0.12500000000E+03 0.  0.
         25    1    1    2    0    0  0.18514412917E+03  0.48925848678E+02  0.46153027875E+03  0.51507988258E+03  0.12500000000E+03 0.  0.
</event>
<event>
 5    0  0.5728184E-005  0.3068641E+03  0.7546771E-02  0.1081859E+00
         21   -1    0    0  502  501  0.00000000000E+00  0.00000000000E+00  0.47566338259E+02  0.47566338259E+02  0.00000000000E+00 0. -1.
         21   -1    0    0  501  502 -0.00000000000E+00 -0.00000000000E+00 -0.19796683897E+04  0.19796683897E+04  0.00000000000E+00 0. -1.
         25    1    1    2    0    0 -0.19451149569E+02  0.74261064458E+02 -0.11752150827E+04  0.11843346417E+04  0.12500000000E+03 0.  0.
         25    1    1    2    0    0  0.49286686914E+02 -0.11781384233E+03 -0.63780340150E+03  0.66236504883E+03  0.12500000000E+03 0.  0.
         25    1    1    2    0    0 -0.29835537346E+02  0.43552777869E+02 -0.11908356721E+03  0.18053503740E+03  0.12500000000E+03 0.  0.
</event>
<event>
 5    0  0.5728184E-005  0.3241542E+03  0.7546771E-02  0.1073753E+00
         21   -1    0    0  502  501  0.00000000000E+00  0.00000000000E+00  0.18068623075E+03  0.18068623075E+03  0.00000000000E+00 0. -1.
         21   -1    0    0  501  502 -0.00000000000E+00 -0.00000000000E+00 -0.58153802497E+03  0.58153802497E+03  0.00000000000E+00 0. -1.
         25    1    1    2    0    0 -0.63183240657E+02 -0.21774233549E+03 -0.13885592429E+03  0.29378532005E+03  0.12500000000E+03 0.  0.
         25    1    1    2    0    0 -0.20570436058E+02  0.17946694702E+03 -0.21211115863E+03  0.30536481710E+03  0.12500000000E+03 0.  0.
         25    1    1    2    0    0  0.83753676714E+02  0.38275388475E+02 -0.49884711301E+02  0.16307411857E+03  0.12500000000E+03 0.  0.
</event>
<event>
 5    0  0.5728184E-005  0.3570854E+03  0.7546771E-02  0.1059744E+00
         21   -1    0    0  502  501  0.00000000000E+00  0.00000000000E+00  0.95835350076E+03  0.95835350076E+03  0.00000000000E+00 0.  1.
         21   -1    0    0  501  502 -0.00000000000E+00 -0.00000000000E+00 -0.13305111351E+03  0.13305111351E+03  0.00000000000E+00 0. -1.
         25    1    1    2    0    0  0.14794623546E+03 -0.24434492122E+02  0.16068287810E+03  0.25284208571E+03  0.12500000000E+03 0.  0.
         25    1    1    2    0    0  0.11785056902E+03 -0.36956161726E+02  0.40609982060E+03  0.44248907196E+03  0.12500000000E+03 0.  0.
         25    1    1    2    0    0 -0.26579680449E+03  0.61390653848E+02  0.25851968855E+03  0.39607345660E+03  0.12500000000E+03 0.  0.
</event>
<event>
 5    0  0.5728184E-005  0.2490274E+03  0.7546771E-02  0.1113921E+00
         21   -1    0    0  502  501  0.00000000000E+00  0.00000000000E+00  0.28824739987E+02  0.28824739987E+02  0.00000000000E+00 0.  1.
         21   -1    0    0  501  502 -0.00000000000E+00 -0.00000000000E+00 -0.21514388240E+04  0.21514388240E+04  0.00000000000E+00 0.  1.
         25    1    1    2    0    0  0.42784631833E+02  0.21767727550E+02 -0.25495634332E+03  0.28797933204E+03  0.12500000000E+03 0.  0.
         25    1    1    2    0    0 -0.78964180506E+02  0.36873676378E+02 -0.73203135323E+03  0.74772315192E+03  0.12500000000E+03 0.  0.
         25    1    1    2    0    0  0.36179548673E+02 -0.58641403928E+02 -0.11356263875E+04  0.11445610800E+04  0.12500000000E+03 0.  0.
</event>
<event>
 5    0  0.5728184E-005  0.3992459E+03  0.7546771E-02  0.1044041E+00
         21   -1    0    0  502  501  0.00000000000E+00  0.00000000000E+00  0.91658696153E+02  0.91658696153E+02  0.00000000000E+00 0.  1.
         21   -1    0    0  501  502 -0.00000000000E+00 -0.00000000000E+00 -0.17390309568E+04  0.17390309568E+04  0.00000000000E+00 0.  1.
         25    1    1    2    0    0  0.59163973668E+02 -0.21370359150E+03 -0.25647829415E+03  0.36135262026E+03  0.12500000000E+03 0.  0.
         25    1    1    2    0    0 -0.86192950021E+02 -0.57621107412E+02 -0.65106204459E+03  0.67101132819E+03  0.12500000000E+03 0.  0.
         25    1    1    2    0    0  0.27028976353E+02  0.27132469891E+03 -0.73983192193E+03  0.79832570452E+03  0.12500000000E+03 0.  0.
</event>
<event>
 5    0  0.5728184E-005  0.2074180E+03  0.7546771E-02  0.1143627E+00
         21   -1    0    0  502  501  0.00000000000E+00  0.00000000000E+00  0.14175760320E+04  0.14175760320E+04  0.00000000000E+00 0.  1.
         21   -1    0    0  501  502 -0.00000000000E+00 -0.00000000000E+00 -0.30349144362E+02  0.30349144362E+02  0.00000000000E+00 0.  1.
         25    1    1    2    0    0 -0.27638580750E+02 -0.35884590923E+02  0.34387137974E+03  0.36867888577E+03  0.12500000000E+03 0.  0.
         25    1    1    2    0    0 -0.33396888729E+02  0.49836081770E+01  0.40561920583E+03  0.42578413388E+03  0.12500000000E+03 0.  0.
         25    1    1    2    0    0  0.61035469480E+02  0.30900982746E+02  0.63773630202E+03  0.65346215666E+03  0.12500000000E+03 0.  0.
</event>
<event>
 5    0  0.5728184E-005  0.3875855E+03  0.7546771E-02  0.1048165E+00
         21   -1    0    0  502  501  0.00000000000E+00  0.00000000000E+00  0.18634848596E+04  0.18634848596E+04  0.00000000000E+00 0. -1.
         21   -1    0    0  501  502 -0.00000000000E+00 -0.00000000000E+00 -0.80613768013E+02  0.80613768013E+02  0.00000000000E+00 0. -1.
         25    1    1    2    0    0 -0.23269797952E+03  0.85380532497E+02  0.67290733572E+03  0.72791995952E+03  0.12500000000E+03 0.  0.
         25    1    1    2    0    0 -0.12372311736E+02 -0.11786472025E+03  0.70357875851E+03  0.72435711897E+03  0.12500000000E+03 0.  0.
         25    1    1    2    0    0  0.24507029126E+03  0.32484187751E+02  0.40638499738E+03  0.49182154915E+03  0.12500000000E+03 0.  0.
</event>
<event>
 5    0  0.5728184E-005  0.3350240E+03  0.7546771E-02  0.1068935E+00
         21   -1    0    0  502  501  0.00000000000E+00  0.00000000000E+00  0.16575207198E+03  0.16575207198E+03  0.00000000000E+00 0. -1.
         21   -1    0    0  501  502 -0.00000000000E+00 -0.00000000000E+00 -0.67716252909E+03  0.67716252909E+03  0.00000000000E+00 0. -1.
         25    1    1    2    0    0 -0.10050271387E+03 -0.21485137663E+03 -0.22293303563E+03  0.34869190973E+03  0.12500000000E+03 0.  0.
         25    1    1    2    0    0 -0.46075463977E+01  0.11793430710E+03 -0.31645315246E+02  0.17480319291E+03  0.12500000000E+03 0.  0.
         25    1    1    2    0    0  0.10511026027E+03  0.96917069530E+02 -0.25683210624E+03  0.31941949843E+03  0.12500000000E+03 0.  0.
</event>
<event>
 5    0  0.5728184E-005  0.4391616E+03  0.7546771E-02  0.1031004E+00
         21   -1    0    0  502  501  0.00000000000E+00  0.00000000000E+00  0.11217063568E+04  0.11217063568E+04  0.00000000000E+00 0. -1.
         21   -1    0    0  501  502 -0.00000000000E+00 -0.00000000000E+00 -0.17193704134E+03  0.17193704134E+03  0.00000000000E+00 0. -1.
         25    1    1    2    0    0  0.18082078674E+03 -0.18507851961E+03  0.44740166076E+02  0.29082107523E+03  0.12500000000E+03 0.  0.
         25    1    1    2    0    0 -0.11927647453E+02 -0.64257383686E+01  0.44150560335E+03  0.45905964392E+03  0.12500000000E+03 0.  0.
         25    1    1    2    0    0 -0.16889313929E+03  0.19150425798E+03  0.46352354598E+03  0.54376267893E+03  0.12500000000E+03 0.  0.
</event>
<event>
 5    0  0.5728184E-005  0.2800865E+03  0.7546771E-02  0.1095642E+00
         21   -1    0    0  502  501  0.00000000000E+00  0.00000000000E+00  0.60292283427E+02  0.60292283427E+02  0.00000000000E+00 0.  1.
         21   -1    0    0  501  502 -0.00000000000E+00 -0.00000000000E+00 -0.13011356039E+04  0.13011356039E+04  0.00000000000E+00 0.  1.
         25    1    1    2    0    0  0.12852472770E+03  0.10633693015E+03 -0.53322469509E+03  0.57252050077E+03  0.12500000000E+03 0.  0.
         25    1    1    2    0    0 -0.11429752148E+03  0.17549352268E+02 -0.38895780776E+03  0.42459990509E+03  0.12500000000E+03 0.  0.
         25    1    1    2    0    0 -0.14227206215E+02 -0.12388628242E+03 -0.31866081763E+03  0.36430748148E+03  0.12500000000E+03 0.  0.
</event>
<event>
 5    0  0.5728184E-005  0.2507688E+03  0.7546771E-02  0.1112820E+00
         21   -1    0    0  502  501  0.00000000000E+00  0.00000000000E+00  0.64144839592E+03  0.64144839592E+03  0.00000000000E+00 0.  1.
         21   -1    0    0  501  502 -0.00000000000E+00 -0.00000000000E+00 -0.98035896757E+02  0.98035896757E+02  0.00000000000E+00 0.  1.
         25    1    1    2    0    0 -0.29102363985E+02  0.13219153166E+03  0.22540337054E+03  0.29112407678E+03  0.12500000000E+03 0.  0.
         25    1    1    2    0    0  0.46690313607E+02 -0.38516172429E+02  0.22870467083E+03  0.26757112584E+03  0.12500000000E+03 0.  0.
         25    1    1    2    0    0 -0.17587949622E+02 -0.93675359235E+02  0.89304457790E+02  0.18078909005E+03  0.12500000000E+03 0.  0.
</event>
<event>
 5    0  0.5728184E-005  0.2533230E+03  0.7546771E-02  0.1111223E+00
         21   -1    0    0  502  501  0.00000000000E+00  0.00000000000E+00  0.58615722729E+03  0.58615722729E+03  0.00000000000E+00 0. -1.
         21   -1    0    0  501  502 -0.00000000000E+00 -0.00000000000E+00 -0.10948008857E+03  0.10948008857E+03  0.00000000000E+00 0. -1.
         25    1    1    2    0    0 -0.10927223850E+02  0.89759866251E+02  0.18215684750E+03  0.23870977127E+03  0.12500000000E+03 0.  0.
         25    1    1    2    0    0 -0.45249570761E+02  0.60410588707E+02  0.12552201921E+03  0.19255581058E+03  0.12500000000E+03 0.  0.
         25    1    1    2    0    0  0.56176794611E+02 -0.15017045496E+03  0.16899827202E+03  0.26437173400E+03  0.12500000000E+03 0.  0.
</event>
<event>
 5    0  0.5728184E-005  0.2778270E+03  0.7546771E-02  0.1096882E+00
         21   -1    0    0  502  501  0.00000000000E+00  0.00000000000E+00  0.51260555322E+03  0.51260555322E+03  0.00000000000E+00 0. -1.
         21   -1    0    0  501  502 -0.00000000000E+00 -0.00000000000E+00 -0.15057941935E+03  0.15057941935E+03  0.00000000000E+00 0. -1.
         25    1    1    2    0    0 -0.14865507509E+03  0.83992501109E+02  0.91458676729E+02  0.23052713754E+03  0.12500000000E+03 0.  0.
         25    1    1    2    0    0  0.15056045304E+03 -0.72876524551E+02  0.13912840026E+03  0.25092060420E+03  0.12500000000E+03 0.  0.
         25    1    1    2    0    0 -0.19053779565E+01 -0.11115976558E+02  0.13143905687E+03  0.18173723083E+03  0.12500000000E+03 0.  0.
</event>
<event>
 5    0  0.5728184E-005  0.5189324E+03  0.7546771E-02  0.1008952E+00
         21   -1    0    0  502  501  0.00000000000E+00  0.00000000000E+00  0.12029987695E+04  0.12029987695E+04  0.00000000000E+00 0. -1.
         21   -1    0    0  501  502 -0.00000000000E+00 -0.00000000000E+00 -0.22384966344E+03  0.22384966344E+03  0.00000000000E+00 0. -1.
         25    1    1    2    0    0  0.27078533163E+03 -0.51400457674E+02  0.13824188324E+02  0.30295678084E+03  0.12500000000E+03 0.  0.
         25    1    1    2    0    0 -0.81474024386E+02  0.18944058091E+03  0.19833025129E+03  0.31222690295E+03  0.12500000000E+03 0.  0.
         25    1    1    2    0    0 -0.18931130724E+03 -0.13804012323E+03  0.76699466643E+03  0.81166474914E+03  0.12500000000E+03 0.  0.
</event>
<event>
 5    0  0.5728184E-005  0.2702944E+03  0.7546771E-02  0.1101111E+00
         21   -1    0    0  502  501  0.00000000000E+00  0.00000000000E+00  0.48307449409E+02  0.48307449409E+02  0.00000000000E+00 0. -1.
         21   -1    0    0  501  502 -0.00000000000E+00 -0.00000000000E+00 -0.15123762625E+04  0.15123762625E+04  0.00000000000E+00 0. -1.
         25    1    1    2    0    0  0.86811366136E+02  0.12134431852E+03 -0.46078985418E+03  0.50021290132E+03  0.12500000000E+03 0.  0.
         25    1    1    2    0    0 -0.10160553967E+03 -0.12054775435E+03 -0.44803031679E+03  0.49113298762E+03  0.12500000000E+03 0.  0.
         25    1    1    2    0    0  0.14794173538E+02 -0.79656417502E+00 -0.55524864216E+03  0.56933782301E+03  0.12500000000E+03 0.  0.
</event>
<event>
 5    0  0.5728184E-005  0.2357030E+03  0.7546771E-02  0.1122689E+00
         21   -1    0    0  502  501  0.00000000000E+00  0.00000000000E+00  0.55532115096E+02  0.55532115096E+02  0.00000000000E+00 0. -1.
         21   -1    0    0  501  502 -0.00000000000E+00 -0.00000000000E+00 -0.10004280666E+04  0.10004280666E+04  0.00000000000E+00 0. -1.
         25    1    1    2    0    0  0.26623557183E+02  0.28368942349E+02 -0.58220128645E+03  0.59673859321E+03  0.12500000000E+03 0.  0.
         25    1    1    2    0    0  0.46787508397E+02 -0.27501325498E+02 -0.18843319088E+03  0.23254561116E+03  0.12500000000E+03 0.  0.
         25    1    1    2    0    0 -0.73411065580E+02 -0.86761685152E+00 -0.17426147414E+03  0.22667597729E+03  0.12500000000E+03 0.  0.
</event>
<event>
 5    0  0.5728184E-005  0.3050590E+03  0.7546771E-02  0.1082739E+00
         21   -1    0    0  502  501  0.00000000000E+00  0.00000000000E+00  0.26272278625E+03  0.26272278625E+03  0.00000000000E+00 0. -1.
         21   -1    0    0  501  502 -0.00000000000E+00 -0.00000000000E+00 -0.35421743528E+03  0.35421743528E+03  0.00000000000E+00 0. -1.
         25    1    1    2    0    0  0.18429197555E+03 -0.42182064361E+02 -0.50651656876E+02  0.23223576200E+03  0.12500000000E+03 0.  0.
         25    1    1    2    0    0 -0.63499215642E+02  0.69409454205E+02  0.75562131214E+02  0.17373675027E+03  0.12500000000E+03 0.  0.
         25    1    1    2    0    0 -0.12079275991E+03 -0.27227389844E+02 -0.11640512336E+03  0.21096770926E+03  0.12500000000E+03 0.  0.
</event>
<event>
 5    0  0.5728184E-005  0.2845359E+03  0.7546771E-02  0.1093237E+00
         21   -1    0    0  502  501  0.00000000000E+00  0.00000000000E+00  0.16386080854E+03  0.16386080854E+03  0.00000000000E+00 0. -1.
         21   -1    0    0  501  502 -0.00000000000E+00 -0.00000000000E+00 -0.49408186482E+03  0.49408186482E+03  0.00000000000E+00 0. -1.
         25    1    1    2    0    0 -0.10857936820E+03 -0.14352759596E+03 -0.15992711399E+03  0.27127722313E+03  0.12500000000E+03 0.  0.
         25    1    1    2    0    0  0.80547085587E+02  0.15800794577E+03 -0.90828021016E+02  0.23522132838E+03  0.12500000000E+03 0.  0.
         25    1    1    2    0    0  0.28032282617E+02 -0.14480349812E+02 -0.79465921276E+02  0.15144412185E+03  0.12500000000E+03 0.  0.
</event>
<event>
 5    0  0.5728184E-005  0.3939851E+03  0.7546771E-02  0.1045883E+00
         21   -1    0    0  502  501  0.00000000000E+00  0.00000000000E+00  0.64792285805E+03  0.64792285805E+03  0.00000000000E+00 0.  1.
         21   -1    0    0  501  502 -0.00000000000E+00 -0.00000000000E+00 -0.23957209797E+03  0.23957209797E+03  0.00000000000E+00 0.  1.
         25    1    1    2    0    0  0.11473370873E+03  0.17365446874E+03  0.15748260187E+03  0.28938809292E+03  0.12500000000E+03 0.  0.
         25    1    1    2    0    0 -0.46646408646E+02 -0.31086900506E+03  0.20357503416E+03  0.39482049121E+03  0.12500000000E+03 0.  0.
         25    1    1    2    0    0 -0.68087300085E+02  0.13721453632E+03  0.47293124052E+02  0.20328637188E+03  0.12500000000E+03 0.  0.
</event>
<event>
 5    0  0.5728184E-005  0.3102526E+03  0.7546771E-02  0.1080225E+00
         21   -1    0    0  502  501  0.00000000000E+00  0.00000000000E+00  0.20703474424E+03  0.20703474424E+03  0.00000000000E+00 0. -1.
         21   -1    0    0  501  502 -0.00000000000E+00 -0.00000000000E+00 -0.46492999718E+03  0.46492999718E+03  0.00000000000E+00 0. -1.
         25    1    1    2    0    0 -0.37448391606E+02  0.16618134725E+03  0.15691488088E+02  0.21187223746E+03  0.12500000000E+03 0.  0.
         25    1    1    2    0    0  0.10921323915E+03 -0.10314108572E+03 -0.21913453477E+03  0.29361634747E+03  0.12500000000E+03 0.  0.
         25    1    1    2    0    0 -0.71764847549E+02 -0.63040261532E+02 -0.54452206254E+02  0.16647615650E+03  0.12500000000E+03 0.  0.
</event>
<event>
 5    0  0.5728184E-005  0.2171175E+03  0.7546771E-02  0.1136051E+00
         21   -1    0    0  502  501  0.00000000000E+00  0.00000000000E+00  0.13194594274E+03  0.13194594274E+03  0.00000000000E+00 0. -1.
         21   -1    0    0  501  502 -0.00000000000E+00 -0.00000000000E+00 -0.35726747987E+03  0.35726747987E+03  0.00000000000E+00 0. -1.
         25    1    1    2    0    0  0.26272401912E+02  0.14741660684E+02 -0.15684711948E+03  0.20281413794E+03  0.12500000000E+03 0.  0.
         25    1    1    2    0    0  0.22263152671E+01  0.47218867503E+02 -0.15784176179E+02  0.13456863730E+03  0.12500000000E+03 0.  0.
         25    1    1    2    0    0 -0.28498717179E+02 -0.61960528187E+02 -0.52690241473E+02  0.15183064737E+03  0.12500000000E+03 0.  0.
</event>
<event>
 5    0  0.5728184E-005  0.3242784E+03  0.7546771E-02  0.1073697E+00
         21   -1    0    0  502  501  0.00000000000E+00  0.00000000000E+00  0.39381038901E+03  0.39381038901E+03  0.00000000000E+00 0.  1.
         21   -1    0    0  501  502 -0.00000000000E+00 -0.00000000000E+00 -0.26702307813E+03  0.26702307813E+03  0.00000000000E+00 0.  1.
         25    1    1    2    0    0  0.16488570241E+02 -0.31620160839E+02 -0.11226835407E+03  0.17175823371E+03  0.12500000000E+03 0.  0.
         25    1    1    2    0    0 -0.86141827052E+02  0.15349736222E+03  0.48200623689E+02  0.22120161550E+03  0.12500000000E+03 0.  0.
         25    1    1    2    0    0  0.69653256811E+02 -0.12187720138E+03  0.19085504126E+03  0.26787361792E+03  0.12500000000E+03 0.  0.
</event>
<event>
 5    0  0.5728184E-005  0.2827587E+03  0.7546771E-02  0.1094192E+00
         21   -1    0    0  502  501  0.00000000000E+00  0.00000000000E+00  0.63150880946E+03  0.63150880946E+03  0.00000000000E+00 0. -1.
         21   -1    0    0  501  502 -0.00000000000E+00 -0.00000000000E+00 -0.12660553489E+03  0.12660553489E+03  0.00000000000E+00 0. -1.
         25    1    1    2    0    0 -0.84173323761E+02  0.97123990433E+02  0.36536568427E+03  0.40698317065E+03  0.12500000000E+03 0.  0.
         25    1    1    2    0    0  0.60842384174E+01 -0.34232706388E+02  0.14001304639E+03  0.19088622083E+03  0.12500000000E+03 0.  0.
         25    1    1    2    0    0  0.78089085343E+02 -0.62891284045E+02 -0.47545609107E+00  0.16024495286E+03  0.12500000000E+03 0.  0.
</event>
<event>
 5    0  0.5728184E-005  0.3084422E+03  0.7546771E-02  0.1081095E+00
         21   -1    0    0  502  501  0.00000000000E+00  0.00000000000E+00  0.42689923499E+02  0.42689923499E+02  0.00000000000E+00 0. -1.
         21   -1    0    0  501  502 -0.00000000000E+00 -0.00000000000E+00 -0.22285494832E+04  0.22285494832E+04  0.00000000000E+00 0. -1.
         25    1    1    2    0    0 -0.51584494548E+02  0.64647788305E+02 -0.63134529516E+03  0.64889304075E+03  0.12500000000E+03 0.  0.
         25    1    1    2    0    0  0.75756044325E+02 -0.20724607458E+03 -0.64722147843E+03  0.69513348058E+03  0.12500000000E+03 0.  0.
         25    1    1    2    0    0 -0.24171549776E+02  0.14259828628E+03 -0.90729278615E+03  0.92721288540E+03  0.12500000000E+03 0.  0.
</event>
<event>
 5    0  0.5728184E-005  0.3166646E+03  0.7546771E-02  0.1077195E+00
         21   -1    0    0  502  501  0.00000000000E+00  0.00000000000E+00  0.16763547296E+03  0.16763547296E+03  0.00000000000E+00 0. -1.
         21   -1    0    0  501  502 -0.00000000000E+00 -0.00000000000E+00 -0.59818185416E+03  0.59818185416E+03  0.00000000000E+00 0. -1.
         25    1    1    2    0    0  0.45671402042E+00 -0.95282785404E+02  0.17025151555E+01  0.15718433872E+03  0.12500000000E+03 0.  0.
         25    1    1    2    0    0 -0.60490833297E+02  0.13019784039E+03 -0.42473213855E+03  0.46543851159E+03  0.12500000000E+03 0.  0.
         25    1    1    2    0    0  0.60034119277E+02 -0.34915054988E+02 -0.75167578053E+01  0.14319447681E+03  0.12500000000E+03 0.  0.
</event>
<event>
 5    0  0.6984964E-005  0.2829437E+03  0.7546771E-02  0.1094092E+00
         21   -1    0    0  502  501  0.00000000000E+00  0.00000000000E+00  0.39108152944E+03  0.39108152944E+03  0.00000000000E+00 0. -1.
         21   -1    0    0  501  502 -0.00000000000E+00 -0.00000000000E+00 -0.20470707919E+03  0.20470707919E+03  0.00000000000E+00 0. -1.
         25    1    1    2    0    0 -0.55178441518E+02 -0.27129883636E+01  0.14802011305E+03  0.20146209217E+03  0.12500000000E+03 0.  0.
         25    1    1    2    0    0 -0.30386546597E+02 -0.11717031365E+03  0.87827395360E+02  0.19491248290E+03  0.12500000000E+03 0.  0.
         25    1    1    2    0    0  0.85564988116E+02  0.11988330202E+03 -0.49473058168E+02  0.19941403355E+03  0.12500000000E+03 0.  0.
</event>
<event>
 5    0  0.5728184E-005  0.2355835E+03  0.7546771E-02  0.1122770E+00
         21   -1    0    0  502  501  0.00000000000E+00  0.00000000000E+00  0.23282136405E+03  0.23282136405E+03  0.00000000000E+00 0. -1.
         21   -1    0    0  501  502 -0.00000000000E+00 -0.00000000000E+00 -0.23837847897E+03  0.23837847897E+03  0.00000000000E+00 0. -1.
         25    1    1    2    0    0 -0.72588205708E+02 -0.72739971838E+02  0.21729694207E+02  0.16327072831E+03  0.12500000000E+03 0.  0.
         25    1    1    2    0    0  0.63884231044E+02 -0.18169980006E+02  0.26567860734E+02  0.14402150664E+03  0.12500000000E+03 0.  0.
         25    1    1    2    0    0  0.87039746640E+01  0.90909951844E+02 -0.53854669863E+02  0.16390760808E+03  0.12500000000E+03 0.  0.
</event>
<event>
 5    0  0.5728184E-005  0.4918802E+03  0.7546771E-02  0.1015920E+00
         21   -1    0    0  502  501  0.00000000000E+00  0.00000000000E+00  0.15978120540E+04  0.15978120540E+04  0.00000000000E+00 0. -1.
         21   -1    0    0  501  502 -0.00000000000E+00 -0.00000000000E+00 -0.15142338804E+03  0.15142338804E+03  0.00000000000E+00 0. -1.
         25    1    1    2    0    0  0.14094002796E+03 -0.98469205102E+02  0.44387930830E+03  0.49215253344E+03  0.12500000000E+03 0.  0.
         25    1    1    2    0    0 -0.55809542624E+02  0.39746449018E+03  0.50196505761E+03  0.65474166284E+03  0.12500000000E+03 0.  0.
         25    1    1    2    0    0 -0.85130485336E+02 -0.29899528508E+03  0.50054430005E+03  0.60234124577E+03  0.12500000000E+03 0.  0.
</event>
<event>
 5    0  0.5728184E-005  0.2604677E+03  0.7546771E-02  0.1106863E+00
         21   -1    0    0  502  501  0.00000000000E+00  0.00000000000E+00  0.53480635151E+03  0.53480635151E+03  0.00000000000E+00 0. -1.
         21   -1    0    0  501  502 -0.00000000000E+00 -0.00000000000E+00 -0.12685608316E+03  0.12685608316E+03  0.00000000000E+00 0. -1.
         25    1    1    2    0    0  0.95044446615E+02  0.35328454121E+02  0.91863197010E+02  0.18532510210E+03  0.12500000000E+03 0.  0.
         25    1    1    2    0    0  0.68224111250E+02 -0.46827429822E+02  0.12080362184E+03  0.19252494017E+03  0.12500000000E+03 0.  0.
         25    1    1    2    0    0 -0.16326855786E+03  0.11498975701E+02  0.19528344951E+03  0.28381239240E+03  0.12500000000E+03 0.  0.
</event>
<event>
 5    0  0.5728184E-005  0.3849158E+03  0.7546771E-02  0.1049132E+00
         21   -1    0    0  502  501  0.00000000000E+00  0.00000000000E+00  0.32919944148E+04  0.32919944148E+04  0.00000000000E+00 0.  1.
         21   -1    0    0  501  502 -0.00000000000E+00 -0.00000000000E+00 -0.45006205188E+02  0.45006205188E+02  0.00000000000E+00 0.  1.
         25    1    1    2    0    0 -0.59214546846E+02 -0.18618003523E+03  0.63590571033E+03  0.67688288537E+03  0.12500000000E+03 0.  0.
         25    1    1    2    0    0 -0.14295247984E+03  0.39272424081E+02  0.15795813146E+04  0.15914395572E+04  0.12500000000E+03 0.  0.
         25    1    1    2    0    0  0.20216702669E+03  0.14690761115E+03  0.10315011847E+04  0.10686781774E+04  0.12500000000E+03 0.  0.
</event>
<event>
 5    0  0.5728184E-005  0.2480566E+03  0.7546771E-02  0.1114539E+00
         21   -1    0    0  502  501  0.00000000000E+00  0.00000000000E+00  0.15700480967E+03  0.15700480967E+03  0.00000000000E+00 0.  1.
         21   -1    0    0  501  502 -0.00000000000E+00 -0.00000000000E+00 -0.39191212920E+03  0.39191212920E+03  0.00000000000E+00 0.  1.
         25    1    1    2    0    0 -0.40575281763E+02  0.14811720774E+03 -0.93539583800E+02  0.21899706495E+03  0.12500000000E+03 0.  0.
         25    1    1    2    0    0  0.77067494358E+01 -0.50874708445E+02 -0.49825830864E+02  0.14406680175E+03  0.12500000000E+03 0.  0.
         25    1    1    2    0    0  0.32868532327E+02 -0.97242499297E+02 -0.91541904862E+02  0.18585307216E+03  0.12500000000E+03 0.  0.
</event>
<event>
 5    0  0.5728184E-005  0.2099370E+03  0.7546771E-02  0.1141616E+00
         21   -1    0    0  502  501  0.00000000000E+00  0.00000000000E+00  0.49735392000E+02  0.49735392000E+02  0.00000000000E+00 0.  1.
         21   -1    0    0  501  502 -0.00000000000E+00 -0.00000000000E+00 -0.88616093574E+03  0.88616093574E+03  0.00000000000E+00 0.  1.
         25    1    1    2    0    0 -0.35136721236E+02 -0.12240111480E+02 -0.24102285258E+03  0.27404639201E+03  0.12500000000E+03 0.  0.
         25    1    1    2    0    0  0.18219002399E+02  0.68178888459E+02 -0.22838347001E+03  0.26974859083E+03  0.12500000000E+03 0.  0.
         25    1    1    2    0    0  0.16917718837E+02 -0.55938776979E+02 -0.36701922115E+03  0.39210134490E+03  0.12500000000E+03 0.  0.
</event>
<event>
 5    0  0.5728184E-005  0.2669516E+03  0.7546771E-02  0.1103037E+00
         21   -1    0    0  502  501  0.00000000000E+00  0.00000000000E+00  0.16473934971E+04  0.16473934971E+04  0.00000000000E+00 0.  1.
         21   -1    0    0  501  502 -0.00000000000E+00 -0.00000000000E+00 -0.43258135568E+02  0.43258135568E+02  0.00000000000E+00 0.  1.
         25    1    1    2    0    0 -0.24971321305E+02 -0.10334658103E+03  0.43550185378E+03  0.46539332542E+03  0.12500000000E+03 0.  0.
         25    1    1    2    0    0  0.77968504826E+02  0.13928953610E+03  0.45785061808E+03  0.50073231480E+03  0.12500000000E+03 0.  0.
         25    1    1    2    0    0 -0.52997183521E+02 -0.35942955062E+02  0.71078288963E+03  0.72452599241E+03  0.12500000000E+03 0.  0.
</event>
<event>
 5    0  0.5728184E-005  0.2634800E+03  0.7546771E-02  0.1105070E+00
         21   -1    0    0  502  501  0.00000000000E+00  0.00000000000E+00  0.86942331439E+02  0.86942331439E+02  0.00000000000E+00 0. -1.
         21   -1    0    0  501  502 -0.00000000000E+00 -0.00000000000E+00 -0.79848004070E+03  0.79848004070E+03  0.00000000000E+00 0. -1.
         25    1    1    2    0    0 -0.92476109686E+02 -0.10421510148E+02 -0.12013461565E+03  0.19676830185E+03  0.12500000000E+03 0.  0.
         25    1    1    2    0    0  0.12404934277E+03 -0.21766465400E+02 -0.16602979754E+03  0.24300804951E+03  0.12500000000E+03 0.  0.
         25    1    1    2    0    0 -0.31573233085E+02  0.32187975548E+02 -0.42537329608E+03  0.44564602078E+03  0.12500000000E+03 0.  0.
</event>
<event>
 5    0  0.5728184E-005  0.4434649E+03  0.7546771E-02  0.1029689E+00
         21   -1    0    0  502  501  0.00000000000E+00  0.00000000000E+00  0.26386836456E+03  0.26386836456E+03  0.00000000000E+00 0.  1.
         21   -1    0    0  501  502 -0.00000000000E+00 -0.00000000000E+00 -0.74530023889E+03  0.74530023889E+03  0.00000000000E+00 0.  1.
         25    1    1    2    0    0 -0.65740511185E+02 -0.21942017447E+03 -0.23656286323E+03  0.35221302650E+03  0.12500000000E+03 0.  0.
         25    1    1    2    0    0  0.15866476314E+03  0.24049214129E+03 -0.34815646687E+03  0.46888047784E+03  0.12500000000E+03 0.  0.
         25    1    1    2    0    0 -0.92924251951E+02 -0.21071966816E+02  0.10328745576E+03  0.18807509911E+03  0.12500000000E+03 0.  0.
</event>
<event>
 5    0  0.5728184E-005  0.2326890E+03  0.7546771E-02  0.1124761E+00
         21   -1    0    0  502  501  0.00000000000E+00  0.00000000000E+00  0.35978617484E+03  0.35978617484E+03  0.00000000000E+00 0. -1.
         21   -1    0    0  501  502 -0.00000000000E+00 -0.00000000000E+00 -0.15048983147E+03  0.15048983147E+03  0.00000000000E+00 0. -1.
         25    1    1    2    0    0  0.41034213954E+02 -0.73813059698E+02  0.10909405652E+03  0.18616843896E+03  0.12500000000E+03 0.  0.
         25    1    1    2    0    0 -0.97322058584E+02  0.17074528853E+02  0.61341077939E+02  0.17073620139E+03  0.12500000000E+03 0.  0.
         25    1    1    2    0    0  0.56287844631E+02  0.56738530845E+02  0.38861208912E+02  0.15337136595E+03  0.12500000000E+03 0.  0.
</event>
<event>
 5    0  0.5728184E-005  0.2752109E+03  0.7546771E-02  0.1098334E+00
         21   -1    0    0  502  501  0.00000000000E+00  0.00000000000E+00  0.10604927446E+03  0.10604927446E+03  0.00000000000E+00 0. -1.
         21   -1    0    0  501  502 -0.00000000000E+00 -0.00000000000E+00 -0.71420588466E+03  0.71420588466E+03  0.00000000000E+00 0. -1.
         25    1    1    2    0    0  0.96752945954E+02  0.76381190239E+02 -0.92678929185E+02  0.19851851976E+03  0.12500000000E+03 0.  0.
         25    1    1    2    0    0 -0.87820553792E+02 -0.56363928400E+02 -0.45078257916E+03  0.47929038773E+03  0.12500000000E+03 0.  0.
         25    1    1    2    0    0 -0.89323921630E+01 -0.20017261839E+02 -0.64695101850E+02  0.14244625163E+03  0.12500000000E+03 0.  0.
</event>
<event>
 5    0  0.5728184E-005  0.2548178E+03  0.7546771E-02  0.1110297E+00
         21   -1    0    0  502  501  0.00000000000E+00  0.00000000000E+00  0.14168151402E+03  0.14168151402E+03  0.00000000000E+00 0. -1.
         21   -1    0    0  501  502 -0.00000000000E+00 -0.00000000000E+00 -0.45829616364E+03  0.45829616364E+03  0.00000000000E+00 0. -1.
         25    1    1    2    0    0 -0.10719279689E+03 -0.39992598339E+02 -0.71010179099E+02  0.18373118724E+03  0.12500000000E+03 0.  0.
         25    1    1    2    0    0  0.60413968520E+02  0.72313902079E+02 -0.22975107438E+03  0.27801025917E+03  0.12500000000E+03 0.  0.
         25    1    1    2    0    0  0.46778828375E+02 -0.32321303740E+02 -0.15853396139E+02  0.13823623124E+03  0.12500000000E+03 0.  0.
</event>
<event>
 5    0  0.5728184E-005  0.4337071E+03  0.7546771E-02  0.1032695E+00
         21   -1    0    0  502  501  0.00000000000E+00  0.00000000000E+00  0.11125402298E+04  0.11125402298E+04  0.00000000000E+00 0. -1.
         21   -1    0    0  501  502 -0.00000000000E+00 -0.00000000000E+00 -0.16907416929E+03  0.16907416929E+03  0.00000000000E+00 0. -1.
         25    1    1    2    0    0 -0.31161273238E+02  0.16483682431E+03  0.84692813050E+03  0.87238435441E+03  0.12500000000E+03 0.  0.
         25    1    1    2    0    0  0.28958909025E+02  0.58288823563E+02  0.48160061131E+02  0.14893151732E+03  0.12500000000E+03 0.  0.
         25    1    1    2    0    0  0.22023642133E+01 -0.22312564787E+03  0.48377868873E+02  0.26029852735E+03  0.12500000000E+03 0.  0.
</event>
<event>
 5    0  0.5728184E-005  0.3651169E+03  0.7546771E-02  0.1056576E+00
         21   -1    0    0  502  501  0.00000000000E+00  0.00000000000E+00  0.38450639830E+03  0.38450639830E+03  0.00000000000E+00 0.  1.
         21   -1    0    0  501  502 -0.00000000000E+00 -0.00000000000E+00 -0.34670513635E+03  0.34670513635E+03  0.00000000000E+00 0.  1.
         25    1    1    2    0    0  0.22263400015E+03  0.42652476462E+02 -0.14397100070E+03  0.29620563940E+03  0.12500000000E+03 0.  0.
         25    1    1    2    0    0 -0.52977447205E+02 -0.10879366466E+03  0.89362482628E+02  0.19558457169E+03  0.12500000000E+03 0.  0.
         25    1    1    2    0    0 -0.16965655294E+03  0.66141188203E+02  0.92409780018E+02  0.23942132356E+03  0.12500000000E+03 0.  0.
</event>
<event>
 5    0  0.5728184E-005  0.3345702E+03  0.7546771E-02  0.1069132E+00
         21   -1    0    0  502  501  0.00000000000E+00  0.00000000000E+00  0.30861492647E+03  0.30861492647E+03  0.00000000000E+00 0. -1.
         21   -1    0    0  501  502 -0.00000000000E+00 -0.00000000000E+00 -0.36270841357E+03  0.36270841357E+03  0.00000000000E+00 0. -1.
         25    1    1    2    0    0 -0.18865037102E+02 -0.20736554003E+03 -0.17022408908E+03  0.29657646117E+03  0.12500000000E+03 0.  0.
         25    1    1    2    0    0  0.81195916004E+02  0.96425049920E+02  0.49085960768E+02  0.18418740069E+03  0.12500000000E+03 0.  0.
         25    1    1    2    0    0 -0.62330878903E+02  0.11094049011E+03  0.67044641212E+02  0.19055947818E+03  0.12500000000E+03 0.  0.
</event>
<event>
 5    0  0.5728184E-005  0.2703056E+03  0.7546771E-02  0.1101105E+00
         21   -1    0    0  502  501  0.00000000000E+00  0.00000000000E+00  0.18055432202E+03  0.18055432202E+03  0.00000000000E+00 0.  1.
         21   -1    0    0  501  502 -0.00000000000E+00 -0.00000000000E+00 -0.40467098046E+03  0.40467098046E+03  0.00000000000E+00 0.  1.
         25    1    1    2    0    0  0.15334856664E+02 -0.77274801450E+02  0.68403215729E+02  0.16282061506E+03  0.12500000000E+03 0.  0.
         25    1    1    2    0    0  0.42201374117E+02  0.63187150761E+02 -0.74384706875E+02  0.16410867319E+03  0.12500000000E+03 0.  0.
         25    1    1    2    0    0 -0.57536230781E+02  0.14087650689E+02 -0.21813516729E+03  0.25829601423E+03  0.12500000000E+03 0.  0.
</event>
<event>
 5    0  0.5728184E-005  0.2289967E+03  0.7546771E-02  0.1127348E+00
         21   -1    0    0  502  501  0.00000000000E+00  0.00000000000E+00  0.62582888666E+02  0.62582888666E+02  0.00000000000E+00 0. -1.
         21   -1    0    0  501  502 -0.00000000000E+00 -0.00000000000E+00 -0.83792082621E+03  0.83792082621E+03  0.00000000000E+00 0. -1.
         25    1    1    2    0    0 -0.10194346398E+03  0.42721516656E+01 -0.18170119753E+03  0.24300421048E+03  0.12500000000E+03 0.  0.
         25    1    1    2    0    0  0.24404271824E+02 -0.30597362859E+02 -0.31891201341E+03  0.34476316421E+03  0.12500000000E+03 0.  0.
         25    1    1    2    0    0  0.77539192156E+02  0.26325211193E+02 -0.27472472660E+03  0.31273634018E+03  0.12500000000E+03 0.  0.
</event>
<event>
 5    0  0.5728184E-005  0.3409520E+03  0.7546771E-02  0.1066391E+00
         21   -1    0    0  502  501  0.00000000000E+00  0.00000000000E+00  0.23738915217E+03  0.23738915217E+03  0.00000000000E+00 0.  1.
         21   -1    0    0  501  502 -0.00000000000E+00 -0.00000000000E+00 -0.48969483595E+03  0.48969483595E+03  0.00000000000E+00 0.  1.
         25    1    1    2    0    0  0.21649101950E+02 -0.28233534646E+02  0.28721858027E+02  0.13310056808E+03  0.12500000000E+03 0.  0.
         25    1    1    2    0    0 -0.21861621528E+03  0.29010537970E+02 -0.36643627001E+02  0.25612968648E+03  0.12500000000E+03 0.  0.
         25    1    1    2    0    0  0.19696711333E+03 -0.77700332476E+00 -0.24438391481E+03  0.33785373357E+03  0.12500000000E+03 0.  0.
</event>
<event>
 5    0  0.5728184E-005  0.2672552E+03  0.7546771E-02  0.1102861E+00
         21   -1    0    0  502  501  0.00000000000E+00  0.00000000000E+00  0.79995275847E+02  0.79995275847E+02  0.00000000000E+00 0.  1.
         21   -1    0    0  501  502 -0.00000000000E+00 -0.00000000000E+00 -0.89286952544E+03  0.89286952544E+03  0.00000000000E+00 0.  1.
         25    1    1    2    0    0 -0.62832573552E+02  0.35202546496E+02 -0.70475013176E+02  0.16055802397E+03  0.12500000000E+03 0.  0.
         25    1    1    2    0    0  0.94445623137E+02  0.56690015692E+02 -0.44895377691E+03  0.47887182774E+03  0.12500000000E+03 0.  0.
         25    1    1    2    0    0 -0.31613049585E+02 -0.91892562189E+02 -0.29344545951E+03  0.33343494958E+03  0.12500000000E+03 0.  0.
</event>
<event>
 5    0  0.6154561E-005  0.4712895E+03  0.7546771E-02  0.1021557E+00
         21   -1    0    0  502  501  0.00000000000E+00  0.00000000000E+00  0.10216942094E+04  0.10216942094E+04  0.00000000000E+00 0. -1.
         21   -1    0    0  501  502 -0.00000000000E+00 -0.00000000000E+00 -0.21739755044E+03  0.21739755044E+03  0.00000000000E+00 0. -1.
         25    1    1    2    0    0  0.10437866218E+03  0.89187855177E+02 -0.39580675348E+02  0.18984469571E+03  0.12500000000E+03 0.  0.
         25    1    1    2    0    0  0.13881496721E+03  0.11808340216E+03  0.56635488307E+03  0.60794419033E+03  0.12500000000E+03 0.  0.
         25    1    1    2    0    0 -0.24319362938E+03 -0.20727125733E+03  0.27752245125E+03  0.44130287382E+03  0.12500000000E+03 0.  0.
</event>
<event>
 5    0  0.5728184E-005  0.4121296E+03  0.7546771E-02  0.1039659E+00
         21   -1    0    0  502  501  0.00000000000E+00  0.00000000000E+00  0.46111827291E+03  0.46111827291E+03  0.00000000000E+00 0.  1.
         21   -1    0    0  501  502 -0.00000000000E+00 -0.00000000000E+00 -0.36834538589E+03  0.36834538589E+03  0.00000000000E+00 0. -1.
         25    1    1    2    0    0  0.37118602861E+02  0.28991579986E+03 -0.56528616543E+02  0.32287682818E+03  0.12500000000E+03 0.  0.
         25    1    1    2    0    0  0.83470431823E+02 -0.49845593050E+01  0.46793295105E+02  0.15750165487E+03  0.12500000000E+03 0.  0.
         25    1    1    2    0    0 -0.12058903468E+03 -0.28493124056E+03  0.10250820845E+03  0.34908517575E+03  0.12500000000E+03 0.  0.
</event>
<event>
 5    0  0.5728184E-005  0.3426857E+03  0.7546771E-02  0.1065658E+00
         21   -1    0    0  502  501  0.00000000000E+00  0.00000000000E+00  0.42298969599E+03  0.42298969599E+03  0.00000000000E+00 0.  1.
         21   -1    0    0  501  502 -0.00000000000E+00 -0.00000000000E+00 -0.27762724477E+03  0.27762724477E+03  0.00000000000E+00 0.  1.
         25    1    1    2    0    0  0.12161797385E+03  0.12092320836E+03  0.23650047571E+03  0.31775907367E+03  0.12500000000E+03 0.  0.
         25    1    1    2    0    0  0.37723895653E+02  0.76474831262E+01 -0.17710954300E+02  0.13198581061E+03  0.12500000000E+03 0.  0.
         25    1    1    2    0    0 -0.15934186950E+03 -0.12857069148E+03 -0.73427070197E+02  0.25087205648E+03  0.12500000000E+03 0.  0.
</event>
<event>
 5    0  0.5728184E-005  0.2814533E+03  0.7546771E-02  0.1094898E+00
         21   -1    0    0  502  501  0.00000000000E+00  0.00000000000E+00  0.15666053559E+03  0.15666053559E+03  0.00000000000E+00 0.  1.
         21   -1    0    0  501  502 -0.00000000000E+00 -0.00000000000E+00 -0.50565343417E+03  0.50565343417E+03  0.00000000000E+00 0.  1.
         25    1    1    2    0    0 -0.18503482877E+03 -0.38475142760E+02 -0.14723016206E+03  0.27022202924E+03  0.12500000000E+03 0.  0.
         25    1    1    2    0    0  0.35712607089E+02  0.86953547574E+01 -0.12532457444E+03  0.18078232341E+03  0.12500000000E+03 0.  0.
         25    1    1    2    0    0  0.14932222168E+03  0.29779788003E+02 -0.76438162078E+02  0.21130961711E+03  0.12500000000E+03 0.  0.
</event>
<event>
 5    0  0.5728184E-005  0.2429591E+03  0.7546771E-02  0.1117837E+00
         21   -1    0    0  502  501  0.00000000000E+00  0.00000000000E+00  0.38752199548E+03  0.38752199548E+03  0.00000000000E+00 0.  1.
         21   -1    0    0  501  502 -0.00000000000E+00 -0.00000000000E+00 -0.15232459849E+03  0.15232459849E+03  0.00000000000E+00 0.  1.
         25    1    1    2    0    0 -0.12435524776E+02  0.33918949106E+02  0.73980401737E+02  0.14967710989E+03  0.12500000000E+03 0.  0.
         25    1    1    2    0    0  0.15829314752E+02  0.64428876755E+02 -0.26639519106E+02  0.14400108105E+03  0.12500000000E+03 0.  0.
         25    1    1    2    0    0 -0.33937899764E+01 -0.98347825861E+02  0.18785651435E+03  0.24616840302E+03  0.12500000000E+03 0.  0.
</event>
<event>
 5    0  0.5728184E-005  0.3467046E+03  0.7546771E-02  0.1063976E+00
         21   -1    0    0  502  501  0.00000000000E+00  0.00000000000E+00  0.80434227914E+03  0.80434227914E+03  0.00000000000E+00 0. -1.
         21   -1    0    0  501  502 -0.00000000000E+00 -0.00000000000E+00 -0.14944392263E+03  0.14944392263E+03  0.00000000000E+00 0. -1.
         25    1    1    2    0    0  0.55984051785E+02 -0.38573926268E+02  0.75616702428E+02  0.16113673550E+03  0.12500000000E+03 0.  0.
         25    1    1    2    0    0 -0.10177647527E+03 -0.17109006529E+03  0.10536208530E+03  0.25759741920E+03  0.12500000000E+03 0.  0.
         25    1    1    2    0    0  0.45792423486E+02  0.20966399156E+03  0.47391956878E+03  0.53505204707E+03  0.12500000000E+03 0.  0.
</event>
<event>
 5    0  0.5728184E-005  0.3612445E+03  0.7546771E-02  0.1058092E+00
         21   -1    0    0  502  501  0.00000000000E+00  0.00000000000E+00  0.18239714800E+04  0.18239714800E+04  0.00000000000E+00 0. -1.
         21   -1    0    0  501  502 -0.00000000000E+00 -0.00000000000E+00 -0.71545842136E+02  0.71545842136E+02  0.00000000000E+00 0. -1.
         25    1    1    2    0    0  0.97560210629E+02 -0.11360741519E+03  0.35506505951E+03  0.40511829874E+03  0.12500000000E+03 0.  0.
         25    1    1    2    0    0 -0.17591743175E+03 -0.64639759239E+02  0.10439639681E+04  0.10679939176E+04  0.12500000000E+03 0.  0.
         25    1    1    2    0    0  0.78357221123E+02  0.17824717443E+03  0.35339661024E+03  0.42240510582E+03  0.12500000000E+03 0.  0.
</event>
<event>
 5    0  0.5728184E-005  0.3363719E+03  0.7546771E-02  0.1068352E+00
         21   -1    0    0  502  501  0.00000000000E+00  0.00000000000E+00  0.15365289944E+04  0.15365289944E+04  0.00000000000E+00 0. -1.
         21   -1    0    0  501  502 -0.00000000000E+00 -0.00000000000E+00 -0.73637434681E+02  0.73637434681E+02  0.00000000000E+00 0. -1.
         25    1    1    2    0    0  0.20503803426E+01  0.19350024654E+02  0.10677698412E+04  0.10752376766E+04  0.12500000000E+03 0.  0.
         25    1    1    2    0    0  0.62281491213E+02 -0.77832714007E+02  0.33505580148E+03  0.37124696043E+03  0.12500000000E+03 0.  0.
         25    1    1    2    0    0 -0.64331871556E+02  0.58482689353E+02  0.60065917070E+02  0.16368179204E+03  0.12500000000E+03 0.  0.
</event>
<event>
 5    0  0.5728184E-005  0.2580104E+03  0.7546771E-02  0.1108345E+00
         21   -1    0    0  502  501  0.00000000000E+00  0.00000000000E+00  0.13047924789E+03  0.13047924789E+03  0.00000000000E+00 0.  1.
         21   -1    0    0  501  502 -0.00000000000E+00 -0.00000000000E+00 -0.51019130627E+03  0.51019130627E+03  0.00000000000E+00 0.  1.
         25    1    1    2    0    0  0.34258137357E+02  0.12162620239E+03 -0.45779161271E+02  0.18354096189E+03  0.12500000000E+03 0.  0.
         25    1    1    2    0    0 -0.23733514524E+02  0.13060162084E+02 -0.14545822057E+03  0.19369290508E+03  0.12500000000E+03 0.  0.
         25    1    1    2    0    0 -0.10524622833E+02 -0.13468636448E+03 -0.18847467654E+03  0.26343668719E+03  0.12500000000E+03 0.  0.
</event>
<event>
 5    0  0.5729106E-005  0.3728821E+03  0.7546771E-02  0.1053596E+00
         21   -1    0    0  502  501  0.00000000000E+00  0.00000000000E+00  0.21410758690E+03  0.21410758690E+03  0.00000000000E+00 0. -1.
         21   -1    0    0  501  502 -0.00000000000E+00 -0.00000000000E+00 -0.64939816615E+03  0.64939816615E+03  0.00000000000E+00 0. -1.
         25    1    1    2    0    0 -0.14983325054E+03  0.80221667150E+02  0.18992095206E+00  0.21097524717E+03  0.12500000000E+03 0.  0.
         25    1    1    2    0    0  0.21547733834E+03 -0.91447340353E+02 -0.91774141434E+02  0.28078566992E+03  0.12500000000E+03 0.  0.
         25    1    1    2    0    0 -0.65644087799E+02  0.11225673203E+02 -0.34370635877E+03  0.37174483596E+03  0.12500000000E+03 0.  0.
</event>
<event>
 5    0  0.5728184E-005  0.3321784E+03  0.7546771E-02  0.1070177E+00
         21   -1    0    0  502  501  0.00000000000E+00  0.00000000000E+00  0.20327229829E+04  0.20327229829E+04  0.00000000000E+00 0. -1.
         21   -1    0    0  501  502 -0.00000000000E+00 -0.00000000000E+00 -0.54283088199E+02  0.54283088199E+02  0.00000000000E+00 0. -1.
         25    1    1    2    0    0  0.13327858081E+03 -0.87502981529E+02  0.11388366947E+04  0.11567168924E+04  0.12500000000E+03 0.  0.
         25    1    1    2    0    0 -0.18512367949E+03 -0.22124065568E+02  0.51836875511E+03  0.56488177281E+03  0.12500000000E+03 0.  0.
         25    1    1    2    0    0  0.51845098673E+02  0.10962704710E+03  0.32123444481E+03  0.36540740584E+03  0.12500000000E+03 0.  0.
</event>
<event>
 5    0  0.6726824E-005  0.3713392E+03  0.7546771E-02  0.1054182E+00
         21   -1    0    0  502  501  0.00000000000E+00  0.00000000000E+00  0.28612131836E+03  0.28612131836E+03  0.00000000000E+00 0. -1.
         21   -1    0    0  501  502 -0.00000000000E+00 -0.00000000000E+00 -0.48193810816E+03  0.48193810816E+03  0.00000000000E+00 0. -1.
         25    1    1    2    0    0  0.16186378270E+02 -0.16338113963E+03 -0.84802852134E+02  0.22309621099E+03  0.12500000000E+03 0.  0.
         25    1    1    2    0    0 -0.14352987237E+03 -0.10661454460E+02 -0.20373658005E+03  0.27901269671E+03  0.12500000000E+03 0.  0.
         25    1    1    2    0    0  0.12734349410E+03  0.17404259409E+03  0.92722642392E+02  0.26595051882E+03  0.12500000000E+03 0.  0.
</event>
<event>
 5    0  0.5728184E-005  0.3511277E+03  0.7546771E-02  0.1062153E+00
         21   -1    0    0  502  501  0.00000000000E+00  0.00000000000E+00  0.88849504967E+02  0.88849504967E+02  0.00000000000E+00 0.  1.
         21   -1    0    0  501  502 -0.00000000000E+00 -0.00000000000E+00 -0.13876349190E+04  0.13876349190E+04  0.00000000000E+00 0.  1.
         25    1    1    2    0    0 -0.72967818085E+02  0.48629687180E+02 -0.28345471905E+03  0.32196385931E+03  0.12500000000E+03 0.  0.
         25    1    1    2    0    0  0.27885864028E+03 -0.12911154903E+02 -0.58071892152E+03  0.65634465412E+03  0.12500000000E+03 0.  0.
         25    1    1    2    0    0 -0.20589082219E+03 -0.35718532277E+02 -0.43461177349E+03  0.49817591057E+03  0.12500000000E+03 0.  0.
</event>
<event>
 5    0  0.5728184E-005  0.3250394E+03  0.7546771E-02  0.1073353E+00
         21   -1    0    0  502  501  0.00000000000E+00  0.00000000000E+00  0.82933932989E+03  0.82933932989E+03  0.00000000000E+00 0.  1.
         21   -1    0    0  501  502 -0.00000000000E+00 -0.00000000000E+00 -0.12739131142E+03  0.12739131142E+03  0.00000000000E+00 0.  1.
         25    1    1    2    0    0  0.19660656395E+03  0.14737049414E+02  0.43251365365E+03  0.49149199608E+03  0.12500000000E+03 0.  0.
         25    1    1    2    0    0 -0.14148771613E+03 -0.64308595198E+02  0.56244728201E+02  0.20722653952E+03  0.12500000000E+03 0.  0.
         25    1    1    2    0    0 -0.55118847823E+02  0.49571545784E+02  0.21318963662E+03  0.25801210572E+03  0.12500000000E+03 0.  0.
</event>
<event>
 5    0  0.5728184E-005  0.3915793E+03  0.7546771E-02  0.1046735E+00
         21   -1    0    0  502  501  0.00000000000E+00  0.00000000000E+00  0.31938032531E+03  0.31938032531E+03  0.00000000000E+00 0.  1.
         21   -1    0    0  501  502 -0.00000000000E+00 -0.00000000000E+00 -0.48009944963E+03  0.48009944963E+03  0.00000000000E+00 0.  1.
         25    1    1    2    0    0 -0.62608543957E+02 -0.73808102744E+02 -0.32156749337E+03  0.35832683209E+03  0.12500000000E+03 0.  0.
         25    1    1    2    0    0 -0.49316059458E+02  0.17013904050E+03  0.95918676953E+02  0.23707542979E+03  0.12500000000E+03 0.  0.
         25    1    1    2    0    0  0.11192460342E+03 -0.96330937757E+02  0.64929692091E+02  0.20407751305E+03  0.12500000000E+03 0.  0.
</event>
<event>
 5    0  0.5728184E-005  0.3243070E+03  0.7546771E-02  0.1073684E+00
         21   -1    0    0  502  501  0.00000000000E+00  0.00000000000E+00  0.36565296856E+03  0.36565296856E+03  0.00000000000E+00 0. -1.
         21   -1    0    0  501  502 -0.00000000000E+00 -0.00000000000E+00 -0.28763611615E+03  0.28763611615E+03  0.00000000000E+00 0. -1.
         25    1    1    2    0    0  0.19558865460E+02 -0.21722395247E+03 -0.22804280036E+02  0.25241598589E+03  0.12500000000E+03 0.  0.
         25    1    1    2    0    0  0.44035256636E+02  0.20385229949E+03  0.36011949453E+02  0.24579813738E+03  0.12500000000E+03 0.  0.
         25    1    1    2    0    0 -0.63594122096E+02  0.13371652978E+02  0.64809182995E+02  0.15507496145E+03  0.12500000000E+03 0.  0.
</event>
<event>
 5    0  0.5728184E-005  0.4017029E+03  0.7546771E-02  0.1043192E+00
         21   -1    0    0  502  501  0.00000000000E+00  0.00000000000E+00  0.99465848738E+02  0.99465848738E+02  0.00000000000E+00 0.  1.
         21   -1    0    0  501  502 -0.00000000000E+00 -0.00000000000E+00 -0.16223180293E+04  0.16223180293E+04  0.00000000000E+00 0.  1.
         25    1    1    2    0    0  0.19774762861E+03 -0.12426833030E+03 -0.57588810103E+03  0.63389182629E+03  0.12500000000E+03 0.  0.
         25    1    1    2    0    0 -0.14834897155E+03 -0.12186138692E+03 -0.26368966525E+03  0.34930624750E+03  0.12500000000E+03 0.  0.
         25    1    1    2    0    0 -0.49398657062E+02  0.24612971722E+03 -0.68327441432E+03  0.73858580428E+03  0.12500000000E+03 0.  0.
</event>
<event>
 5    0  0.5728184E-005  0.5572774E+03  0.7546771E-02  0.9998234E-01
         21   -1    0    0  502  501  0.00000000000E+00  0.00000000000E+00  0.22151262506E+03  0.22151262506E+03  0.00000000000E+00 0.  1.
         21   -1    0    0  501  502 -0.00000000000E+00 -0.00000000000E+00 -0.14019881290E+04  0.14019881290E+04  0.00000000000E+00 0.  1.
         25    1    1    2    0    0 -0.11021829839E+03 -0.33046933151E+03 -0.86101393756E+03  0.93719157755E+03  0.12500000000E+03 0.  0.
         25    1    1    2    0    0  0.11797840810E+03 -0.69157818613E+02 -0.65402390038E+02  0.19647946782E+03  0.12500000000E+03 0.  0.
         25    1    1    2    0    0 -0.77601097057E+01  0.39962715012E+03 -0.25405917633E+03  0.48982970867E+03  0.12500000000E+03 0.  0.
</event>
<event>
 5    0  0.5728184E-005  0.4591208E+03  0.7546771E-02  0.1025037E+00
         21   -1    0    0  502  501  0.00000000000E+00  0.00000000000E+00  0.21011429420E+03  0.21011429420E+03  0.00000000000E+00 0.  1.
         21   -1    0    0  501  502 -0.00000000000E+00 -0.00000000000E+00 -0.10032248875E+04  0.10032248875E+04  0.00000000000E+00 0.  1.
         25    1    1    2    0    0 -0.67669904207E+02  0.89063827575E+02 -0.67550580362E+03  0.69602059742E+03  0.12500000000E+03 0.  0.
         25    1    1    2    0    0  0.90062609240E+02  0.63885262990E+02 -0.23369526187E+03  0.28710812568E+03  0.12500000000E+03 0.  0.
         25    1    1    2    0    0 -0.22392705032E+02 -0.15294909057E+03  0.11609047214E+03  0.23021045864E+03  0.12500000000E+03 0.  0.
</event>
<event>
 5    0  0.5728184E-005  0.3527534E+03  0.7546771E-02  0.1061491E+00
         21   -1    0    0  502  501  0.00000000000E+00  0.00000000000E+00  0.31314943137E+03  0.31314943137E+03  0.00000000000E+00 0.  1.
         21   -1    0    0  501  502 -0.00000000000E+00 -0.00000000000E+00 -0.39736618775E+03  0.39736618775E+03  0.00000000000E+00 0.  1.
         25    1    1    2    0    0 -0.10592495670E+03 -0.10480402751E+03 -0.63164116994E+02  0.20449617677E+03  0.12500000000E+03 0.  0.
         25    1    1    2    0    0  0.95527257936E+02 -0.48591546324E+02  0.16579671265E+03  0.23366673984E+03  0.12500000000E+03 0.  0.
         25    1    1    2    0    0  0.10397698768E+02  0.15339557384E+03 -0.18684935203E+03  0.27235270251E+03  0.12500000000E+03 0.  0.
</event>
<event>
 5    0  0.5728184E-005  0.3271379E+03  0.7546771E-02  0.1072410E+00
         21   -1    0    0  502  501  0.00000000000E+00  0.00000000000E+00  0.13080865242E+04  0.13080865242E+04  0.00000000000E+00 0. -1.
         21   -1    0    0  501  502 -0.00000000000E+00 -0.00000000000E+00 -0.81813527928E+02  0.81813527928E+02  0.00000000000E+00 0. -1.
         25    1    1    2    0    0  0.54841690643E+02  0.10361816125E+03  0.24316872526E+03  0.29749010625E+03  0.12500000000E+03 0.  0.
         25    1    1    2    0    0  0.86587319987E+02 -0.10272717942E+03  0.82803713557E+03  0.84812778238E+03  0.12500000000E+03 0.  0.
         25    1    1    2    0    0 -0.14142901063E+03 -0.89098182348E+00  0.15506713540E+03  0.24428216344E+03  0.12500000000E+03 0.  0.
</event>
<event>
 5    0  0.5728184E-005  0.2129715E+03  0.7546771E-02  0.1139234E+00
         21   -1    0    0  502  501  0.00000000000E+00  0.00000000000E+00  0.10671756386E+03  0.10671756386E+03  0.00000000000E+00 0. -1.
         21   -1    0    0  501  502 -0.00000000000E+00 -0.00000000000E+00 -0.42501779427E+03  0.42501779427E+03  0.00000000000E+00 0. -1.
         25    1    1    2    0    0 -0.39755370844E+02 -0.11251684911E+02 -0.44746467391E+02  0.13904796391E+03  0.12500000000E+03 0.  0.
         25    1    1    2    0    0  0.13067483635E+02  0.64943434212E+02 -0.11708885110E+03  0.18363879718E+03  0.12500000000E+03 0.  0.
         25    1    1    2    0    0  0.26687887209E+02 -0.53691749301E+02 -0.15646491192E+03  0.20904859705E+03  0.12500000000E+03 0.  0.
</event>
<event>
 5    0  0.5728184E-005  0.3152053E+03  0.7546771E-02  0.1077877E+00
         21   -1    0    0  502  501  0.00000000000E+00  0.00000000000E+00  0.66266956783E+02  0.66266956783E+02  0.00000000000E+00 0. -1.
         21   -1    0    0  501  502 -0.00000000000E+00 -0.00000000000E+00 -0.14993052664E+04  0.14993052664E+04  0.00000000000E+00 0.  1.
         25    1    1    2    0    0 -0.41792924145E+02  0.88107730971E+02 -0.61996851841E+03  0.63991842025E+03  0.12500000000E+03 0.  0.
         25    1    1    2    0    0  0.16255574991E+03 -0.15341486287E+03 -0.44597892997E+03  0.51427881344E+03  0.12500000000E+03 0.  0.
         25    1    1    2    0    0 -0.12076282577E+03  0.65307131897E+02 -0.36709086119E+03  0.41137498944E+03  0.12500000000E+03 0.  0.
</event>
<event>
 5    0  0.5728184E-005  0.3449412E+03  0.7546771E-02  0.1064711E+00
         21   -1    0    0  502  501  0.00000000000E+00  0.00000000000E+00  0.11939410633E+03  0.11939410633E+03  0.00000000000E+00 0.  1.
         21   -1    0    0  501  502 -0.00000000000E+00 -0.00000000000E+00 -0.99656855147E+03  0.99656855147E+03  0.00000000000E+00 0.  1.
         25    1    1    2    0    0  0.20604678696E+02 -0.12322384173E+03 -0.66606849016E+03  0.68911602908E+03  0.12500000000E+03 0.  0.
         25    1    1    2    0    0  0.33106531202E+02  0.10524568806E+03  0.95463226267E+01  0.16699948964E+03  0.12500000000E+03 0.  0.
         25    1    1    2    0    0 -0.53711209898E+02  0.17978153669E+02 -0.22065227761E+03  0.25984713909E+03  0.12500000000E+03 0.  0.
</event>
<event>
 5    0  0.5728184E-005  0.3083068E+03  0.7546771E-02  0.1081160E+00
         21   -1    0    0  502  501  0.00000000000E+00  0.00000000000E+00  0.36106498383E+03  0.36106498383E+03  0.00000000000E+00 0.  1.
         21   -1    0    0  501  502 -0.00000000000E+00 -0.00000000000E+00 -0.26325762202E+03  0.26325762202E+03  0.00000000000E+00 0.  1.
         25    1    1    2    0    0  0.39628050540E+02  0.43864683588E+02  0.80226145392E+02  0.15986158782E+03  0.12500000000E+03 0.  0.
         25    1    1    2    0    0 -0.19716985209E+03 -0.80646822735E+02 -0.44137081342E+02  0.25090424975E+03  0.12500000000E+03 0.  0.
         25    1    1    2    0    0  0.15754180155E+03  0.36782139148E+02  0.61718297761E+02  0.21355676827E+03  0.12500000000E+03 0.  0.
</event>
<event>
 5    0  0.5728184E-005  0.2636051E+03  0.7546771E-02  0.1104996E+00
         21   -1    0    0  502  501  0.00000000000E+00  0.00000000000E+00  0.80721124003E+02  0.80721124003E+02  0.00000000000E+00 0. -1.
         21   -1    0    0  501  502 -0.00000000000E+00 -0.00000000000E+00 -0.86083616678E+03  0.86083616678E+03  0.00000000000E+00 0. -1.
         25    1    1    2    0    0  0.73459262106E+02 -0.59126516890E+02 -0.24458490663E+03  0.29041175035E+03  0.12500000000E+03 0.  0.
         25    1    1    2    0    0  0.55350221969E+02 -0.45753052911E+01 -0.38439552569E+03  0.40800674095E+03  0.12500000000E+03 0.  0.
         25    1    1    2    0    0 -0.12880948408E+03  0.63701822182E+02 -0.15113461045E+03  0.24313879948E+03  0.12500000000E+03 0.  0.
</event>
<event>
 5    0  0.5934845E-005  0.2899072E+03  0.7546771E-02  0.1090398E+00
         21   -1    0    0  502  501  0.00000000000E+00  0.00000000000E+00  0.37047438910E+03  0.37047438910E+03  0.00000000000E+00 0. -1.
         21   -1    0    0  501  502 -0.00000000000E+00 -0.00000000000E+00 -0.22686094115E+03  0.22686094115E+03  0.00000000000E+00 0. -1.
         25    1    1    2    0    0  0.13997654319E+03 -0.56831295417E+02  0.56040840772E+01  0.19616226584E+03  0.12500000000E+03 0.  0.
         25    1    1    2    0    0 -0.18031732487E+03  0.48164888143E+01  0.26218917187E+02  0.22102028828E+03  0.12500000000E+03 0.  0.
         25    1    1    2    0    0  0.40340781681E+02  0.52014806603E+02  0.11179044669E+03  0.18015277612E+03  0.12500000000E+03 0.  0.
</event>
<event>
 5    0  0.5728184E-005  0.2275884E+03  0.7546771E-02  0.1128349E+00
         21   -1    0    0  502  501  0.00000000000E+00  0.00000000000E+00  0.41194432157E+02  0.41194432157E+02  0.00000000000E+00 0. -1.
         21   -1    0    0  501  502 -0.00000000000E+00 -0.00000000000E+00 -0.12573655061E+04  0.12573655061E+04  0.00000000000E+00 0. -1.
         25    1    1    2    0    0 -0.18642100678E+02 -0.29110707707E+02 -0.69492332625E+03  0.70692177119E+03  0.12500000000E+03 0.  0.
         25    1    1    2    0    0  0.72162596123E+01  0.10178558356E+02 -0.38699878051E+03  0.40687680392E+03  0.12500000000E+03 0.  0.
         25    1    1    2    0    0  0.11425841066E+02  0.18932149351E+02 -0.13424896721E+03  0.18476136317E+03  0.12500000000E+03 0.  0.
</event>
<event>
 5    0  0.5728184E-005  0.3344391E+03  0.7546771E-02  0.1069189E+00
         21   -1    0    0  502  501  0.00000000000E+00  0.00000000000E+00  0.79132404183E+03  0.79132404183E+03  0.00000000000E+00 0. -1.
         21   -1    0    0  501  502 -0.00000000000E+00 -0.00000000000E+00 -0.14134478342E+03  0.14134478342E+03  0.00000000000E+00 0. -1.
         25    1    1    2    0    0 -0.16474582364E+02 -0.11433869187E+03  0.13516822874E+03  0.21734810416E+03  0.12500000000E+03 0.  0.
         25    1    1    2    0    0 -0.17178455219E+03 -0.84561930874E+00  0.36044874020E+03  0.41840045621E+03  0.12500000000E+03 0.  0.
         25    1    1    2    0    0  0.18825913455E+03  0.11518431118E+03  0.15436228946E+03  0.29692026487E+03  0.12500000000E+03 0.  0.
</event>
<event>
 5    0  0.5728184E-005  0.3092953E+03  0.7546771E-02  0.1080684E+00
         21   -1    0    0  502  501  0.00000000000E+00  0.00000000000E+00  0.40029415242E+02  0.40029415242E+02  0.00000000000E+00 0.  1.
         21   -1    0    0  501  502 -0.00000000000E+00 -0.00000000000E+00 -0.23898322250E+04  0.23898322250E+04  0.00000000000E+00 0.  1.
         25    1    1    2    0    0 -0.26507470906E+02  0.93451513492E+02 -0.15785622132E+04  0.15864802212E+04  0.12500000000E+03 0.  0.
         25    1    1    2    0    0 -0.67918889388E+02 -0.40550790812E+02 -0.53465909883E+03  0.55474561209E+03  0.12500000000E+03 0.  0.
         25    1    1    2    0    0  0.94426360294E+02 -0.52900722680E+02 -0.23658149776E+03  0.28863580696E+03  0.12500000000E+03 0.  0.
</event>
<event>
 5    0  0.5728184E-005  0.3469787E+03  0.7546771E-02  0.1063862E+00
         21   -1    0    0  502  501  0.00000000000E+00  0.00000000000E+00  0.16887228684E+03  0.16887228684E+03  0.00000000000E+00 0. -1.
         21   -1    0    0  501  502 -0.00000000000E+00 -0.00000000000E+00 -0.71293052561E+03  0.71293052561E+03  0.00000000000E+00 0. -1.
         25    1    1    2    0    0  0.21890184529E+03 -0.57990484975E+02 -0.45226499811E+03  0.52100819833E+03  0.12500000000E+03 0.  0.
         25    1    1    2    0    0 -0.70947702824E+02  0.57075860912E+02 -0.30416563468E+02  0.15761154072E+03  0.12500000000E+03 0.  0.
         25    1    1    2    0    0 -0.14795414246E+03  0.91462406352E+00 -0.61376677193E+02  0.20318307339E+03  0.12500000000E+03 0.  0.
</event>
<event>
 5    0  0.5728184E-005  0.4108390E+03  0.7546771E-02  0.1040090E+00
         21   -1    0    0  502  501  0.00000000000E+00  0.00000000000E+00  0.14436160195E+03  0.14436160195E+03  0.00000000000E+00 0. -1.
         21   -1    0    0  501  502 -0.00000000000E+00 -0.00000000000E+00 -0.11692076904E+04  0.11692076904E+04  0.00000000000E+00 0. -1.
         25    1    1    2    0    0  0.73349378088E+02 -0.15369881800E+03 -0.22468758024E+03  0.30840390178E+03  0.12500000000E+03 0.  0.
         25    1    1    2    0    0  0.75437126741E+02 -0.15207993925E+03 -0.14296583876E+03  0.25472200350E+03  0.12500000000E+03 0.  0.
         25    1    1    2    0    0 -0.14878650483E+03  0.30577875725E+03 -0.65719266944E+03  0.75044338705E+03  0.12500000000E+03 0.  0.
</event>
<event>
 5    0  0.5728184E-005  0.4716224E+03  0.7546771E-02  0.1021463E+00
         21   -1    0    0  502  501  0.00000000000E+00  0.00000000000E+00  0.23719782005E+04  0.23719782005E+04  0.00000000000E+00 0. -1.
         21   -1    0    0  501  502 -0.00000000000E+00 -0.00000000000E+00 -0.93773065889E+02  0.93773065889E+02  0.00000000000E+00 0. -1.
         25    1    1    2    0    0  0.43135943195E+02 -0.24433831902E+02  0.15687535657E+02  0.13538397435E+03  0.12500000000E+03 0.  0.
         25    1    1    2    0    0 -0.19078550704E+03 -0.13452720873E+03  0.16067248817E+04  0.16283999893E+04  0.12500000000E+03 0.  0.
         25    1    1    2    0    0  0.14764956384E+03  0.15896104063E+03  0.65579271721E+03  0.70196730272E+03  0.12500000000E+03 0.  0.
</event>
<event>
 5    0  0.5728184E-005  0.3178027E+03  0.7546771E-02  0.1076665E+00
         21   -1    0    0  502  501  0.00000000000E+00  0.00000000000E+00  0.16243803106E+03  0.16243803106E+03  0.00000000000E+00 0. -1.
         21   -1    0    0  501  502 -0.00000000000E+00 -0.00000000000E+00 -0.62176685527E+03  0.62176685527E+03  0.00000000000E+00 0. -1.
         25    1    1    2    0    0  0.11832009077E+03  0.66040740229E+02 -0.46592401597E+02  0.19014961251E+03  0.12500000000E+03 0.  0.
         25    1    1    2    0    0  0.78629187730E+02  0.55619099606E+02 -0.10674630089E+03  0.19051458253E+03  0.12500000000E+03 0.  0.
         25    1    1    2    0    0 -0.19694927850E+03 -0.12165983984E+03 -0.30599012173E+03  0.40354069129E+03  0.12500000000E+03 0.  0.
</event>
<event>
 5    0  0.5728184E-005  0.3003896E+03  0.7546771E-02  0.1085046E+00
         21   -1    0    0  502  501  0.00000000000E+00  0.00000000000E+00  0.49842373367E+03  0.49842373367E+03  0.00000000000E+00 0. -1.
         21   -1    0    0  501  502 -0.00000000000E+00 -0.00000000000E+00 -0.18103849350E+03  0.18103849350E+03  0.00000000000E+00 0. -1.
         25    1    1    2    0    0  0.15385984050E+03 -0.10114942233E+03  0.52709427178E+02  0.22870797946E+03  0.12500000000E+03 0.  0.
         25    1    1    2    0    0 -0.13848285150E+03  0.13251977842E+03  0.12769343130E+03  0.26204885848E+03  0.12500000000E+03 0.  0.
         25    1    1    2    0    0 -0.15376988999E+02 -0.31370356095E+02  0.13698238168E+03  0.18870538923E+03  0.12500000000E+03 0.  0.
</event>
<event>
 5    0  0.6443828E-005  0.8012486E+03  0.7546771E-02  0.9558212E-01
         21   -1    0    0  502  501  0.00000000000E+00  0.00000000000E+00  0.14590709534E+04  0.14590709534E+04  0.00000000000E+00 0.  1.
         21   -1    0    0  501  502 -0.00000000000E+00 -0.00000000000E+00 -0.44000549650E+03  0.44000549650E+03  0.00000000000E+00 0.  1.
         25    1    1    2    0    0 -0.29978578622E+03 -0.17242768595E+02  0.35012115276E+02  0.32713862337E+03  0.12500000000E+03 0.  0.
         25    1    1    2    0    0 -0.14614679967E+03  0.76608804200E+02  0.10762792481E+04  0.10960063029E+04  0.12500000000E+03 0.  0.
         25    1    1    2    0    0  0.44593258589E+03 -0.59366035606E+02 -0.92225906551E+02  0.47593152362E+03  0.12500000000E+03 0.  0.
</event>
<event>
 5    0  0.5728184E-005  0.4096284E+03  0.7546771E-02  0.1040496E+00
         21   -1    0    0  502  501  0.00000000000E+00  0.00000000000E+00  0.41840951480E+03  0.41840951480E+03  0.00000000000E+00 0. -1.
         21   -1    0    0  501  502 -0.00000000000E+00 -0.00000000000E+00 -0.40103153163E+03  0.40103153163E+03  0.00000000000E+00 0. -1.
         25    1    1    2    0    0  0.12149575434E+03  0.12221982643E+03  0.16741102950E+03  0.27083271053E+03  0.12500000000E+03 0.  0.
         25    1    1    2    0    0  0.30584038906E+02 -0.83713364993E+02 -0.27308820658E+03  0.31328178927E+03  0.12500000000E+03 0.  0.
         25    1    1    2    0    0 -0.15207979324E+03 -0.38506461438E+02  0.12305516025E+03  0.23532654663E+03  0.12500000000E+03 0.  0.
</event>
<event>
 5    0  0.5728184E-005  0.5035325E+03  0.7546771E-02  0.1012861E+00
         21   -1    0    0  502  501  0.00000000000E+00  0.00000000000E+00  0.92406207590E+03  0.92406207590E+03  0.00000000000E+00 0. -1.
         21   -1    0    0  501  502 -0.00000000000E+00 -0.00000000000E+00 -0.27438087434E+03  0.27438087434E+03  0.00000000000E+00 0. -1.
         25    1    1    2    0    0  0.84581241770E+02  0.13834973562E+03  0.10974587079E+03  0.23230108041E+03  0.12500000000E+03 0.  0.
         25    1    1    2    0    0  0.15774703152E+03 -0.28024799411E+03  0.56037806632E+03  0.65808178927E+03  0.12500000000E+03 0.  0.
         25    1    1    2    0    0 -0.24232827329E+03  0.14189825849E+03 -0.20442735555E+02  0.30806008056E+03  0.12500000000E+03 0.  0.
</event>
<event>
 5    0  0.5728184E-005  0.2631550E+03  0.7546771E-02  0.1105262E+00
         21   -1    0    0  502  501  0.00000000000E+00  0.00000000000E+00  0.29300641712E+03  0.29300641712E+03  0.00000000000E+00 0.  1.
         21   -1    0    0  501  502 -0.00000000000E+00 -0.00000000000E+00 -0.23634487907E+03  0.23634487907E+03  0.00000000000E+00 0.  1.
         25    1    1    2    0    0  0.86020714527E+02  0.11615270054E+03  0.61083283965E+01  0.19118923831E+03  0.12500000000E+03 0.  0.
         25    1    1    2    0    0 -0.65981984352E+02  0.20354731282E+02  0.52015653122E+02  0.15198212235E+03  0.12500000000E+03 0.  0.
         25    1    1    2    0    0 -0.20038730175E+02 -0.13650743182E+03 -0.14624434691E+01  0.18617993552E+03  0.12500000000E+03 0.  0.
</event>
<event>
 5    0  0.5728184E-005  0.3007493E+03  0.7546771E-02  0.1084867E+00
         21   -1    0    0  502  501  0.00000000000E+00  0.00000000000E+00  0.63769121648E+03  0.63769121648E+03  0.00000000000E+00 0. -1.
         21   -1    0    0  501  502 -0.00000000000E+00 -0.00000000000E+00 -0.14184001956E+03  0.14184001956E+03  0.00000000000E+00 0. -1.
         25    1    1    2    0    0  0.20707139883E+03 -0.32254466768E+02  0.13750700245E+03  0.28009300342E+03  0.12500000000E+03 0.  0.
         25    1    1    2    0    0 -0.16768846504E+03  0.46550496658E+02  0.24596606936E+03  0.32620649491E+03  0.12500000000E+03 0.  0.
         25    1    1    2    0    0 -0.39382933796E+02 -0.14296029890E+02  0.11237812511E+03  0.17323173771E+03  0.12500000000E+03 0.  0.
</event>
<event>
 5    0  0.5728184E-005  0.3676933E+03  0.7546771E-02  0.1055578E+00
         21   -1    0    0  502  501  0.00000000000E+00  0.00000000000E+00  0.39772540898E+03  0.39772540898E+03  0.00000000000E+00 0.  1.
         21   -1    0    0  501  502 -0.00000000000E+00 -0.00000000000E+00 -0.33992899681E+03  0.33992899681E+03  0.00000000000E+00 0.  1.
         25    1    1    2    0    0 -0.59686825981E+02  0.10773775721E+02 -0.94565375746E+02  0.16806606358E+03  0.12500000000E+03 0.  0.
         25    1    1    2    0    0 -0.46734753368E+02  0.20126739671E+03  0.17828803530E+03  0.30017382577E+03  0.12500000000E+03 0.  0.
         25    1    1    2    0    0  0.10642157935E+03 -0.21204117243E+03 -0.25926247381E+02  0.26941451642E+03  0.12500000000E+03 0.  0.
</event>
<event>
 5    0  0.5728184E-005  0.2489139E+03  0.7546771E-02  0.1113993E+00
         21   -1    0    0  502  501  0.00000000000E+00  0.00000000000E+00  0.70235895071E+03  0.70235895071E+03  0.00000000000E+00 0. -1.
         21   -1    0    0  501  502 -0.00000000000E+00 -0.00000000000E+00 -0.88214311719E+02  0.88214311719E+02  0.00000000000E+00 0. -1.
         25    1    1    2    0    0 -0.88516553802E+02 -0.45927110377E+02  0.14613482992E+03  0.21662148619E+03  0.12500000000E+03 0.  0.
         25    1    1    2    0    0  0.92346838592E+02  0.34214264563E+02  0.40136402082E+03  0.43175992369E+03  0.12500000000E+03 0.  0.
         25    1    1    2    0    0 -0.38302847898E+01  0.11712845814E+02  0.66645788250E+02  0.14219185254E+03  0.12500000000E+03 0.  0.
</event>
<event>
 5    0  0.5728184E-005  0.2106651E+03  0.7546771E-02  0.1141040E+00
         21   -1    0    0  502  501  0.00000000000E+00  0.00000000000E+00  0.11368068305E+04  0.11368068305E+04  0.00000000000E+00 0.  1.
         21   -1    0    0  501  502 -0.00000000000E+00 -0.00000000000E+00 -0.39038990438E+02  0.39038990438E+02  0.00000000000E+00 0.  1.
         25    1    1    2    0    0 -0.10240682457E+01  0.54773694318E+02  0.25273920077E+03  0.28723389409E+03  0.12500000000E+03 0.  0.
         25    1    1    2    0    0 -0.12688451889E+02  0.10429820911E+01  0.27708886396E+03  0.30424549817E+03  0.12500000000E+03 0.  0.
         25    1    1    2    0    0  0.13712520134E+02 -0.55816676409E+02  0.56793977533E+03  0.58436642869E+03  0.12500000000E+03 0.  0.
</event>
<event>
 5    0  0.5728184E-005  0.2921657E+03  0.7546771E-02  0.1089224E+00
         21   -1    0    0  502  501  0.00000000000E+00  0.00000000000E+00  0.26129649141E+03  0.26129649141E+03  0.00000000000E+00 0. -1.
         21   -1    0    0  501  502 -0.00000000000E+00 -0.00000000000E+00 -0.32668179764E+03  0.32668179764E+03  0.00000000000E+00 0. -1.
         25    1    1    2    0    0 -0.91337350727E+01  0.15295360526E+03 -0.36535897746E+02  0.20109227310E+03  0.12500000000E+03 0.  0.
         25    1    1    2    0    0 -0.10106731934E+03 -0.50884296811E+02  0.50448122761E+02  0.17599382884E+03  0.12500000000E+03 0.  0.
         25    1    1    2    0    0  0.11020105442E+03 -0.10206930845E+03 -0.79297531242E+02  0.21089218711E+03  0.12500000000E+03 0.  0.
</event>
<event>
 5    0  0.5861856E-005  0.2901081E+03  0.7546771E-02  0.1090293E+00
         21   -1    0    0  502  501  0.00000000000E+00  0.00000000000E+00  0.12943360237E+04  0.12943360237E+04  0.00000000000E+00 0.  1.
         21   -1    0    0  501  502 -0.00000000000E+00 -0.00000000000E+00 -0.65023861681E+02  0.65023861681E+02  0.00000000000E+00 0.  1.
         25    1    1    2    0    0  0.16038760244E+03 -0.21112944528E+02  0.26497298175E+03  0.33467240774E+03  0.12500000000E+03 0.  0.
         25    1    1    2    0    0 -0.29555195704E+02  0.67214487010E+02  0.57340981486E+03  0.59145169932E+03  0.12500000000E+03 0.  0.
         25    1    1    2    0    0 -0.13083240674E+03 -0.46101542483E+02  0.39092936538E+03  0.43323577829E+03  0.12500000000E+03 0.  0.
</event>
<event>
 5    0  0.5728184E-005  0.2459860E+03  0.7546771E-02  0.1115868E+00
         21   -1    0    0  502  501  0.00000000000E+00  0.00000000000E+00  0.77514384321E+03  0.77514384321E+03  0.00000000000E+00 0. -1.
         21   -1    0    0  501  502 -0.00000000000E+00 -0.00000000000E+00 -0.78061788067E+02  0.78061788067E+02  0.00000000000E+00 0. -1.
         25    1    1    2    0    0  0.22473353255E+02  0.79008469506E+01  0.25866539098E+02  0.12985204209E+03  0.12500000000E+03 0.  0.
         25    1    1    2    0    0 -0.32946904524E+02  0.60036444819E+01  0.45453556883E+03  0.47259827083E+03  0.12500000000E+03 0.  0.
         25    1    1    2    0    0  0.10473551269E+02 -0.13904491432E+02  0.21667994722E+03  0.25075531836E+03  0.12500000000E+03 0.  0.
</event>
<event>
 5    0  0.5728184E-005  0.3675638E+03  0.7546771E-02  0.1055628E+00
         21   -1    0    0  502  501  0.00000000000E+00  0.00000000000E+00  0.20851766915E+03  0.20851766915E+03  0.00000000000E+00 0. -1.
         21   -1    0    0  501  502 -0.00000000000E+00 -0.00000000000E+00 -0.64792180178E+03  0.64792180178E+03  0.00000000000E+00 0. -1.
         25    1    1    2    0    0  0.24597144148E+02  0.20683800689E+03 -0.30699331071E+03  0.39148036146E+03  0.12500000000E+03 0.  0.
         25    1    1    2    0    0 -0.73728835729E+02 -0.55844750536E+02  0.77364173401E+02  0.17368014483E+03  0.12500000000E+03 0.  0.
         25    1    1    2    0    0  0.49131691581E+02 -0.15099325635E+03 -0.20977499532E+03  0.29127896464E+03  0.12500000000E+03 0.  0.
</event>
<event>
 5    0  0.5728184E-005  0.2745816E+03  0.7546771E-02  0.1098686E+00
         21   -1    0    0  502  501  0.00000000000E+00  0.00000000000E+00  0.64307755771E+02  0.64307755771E+02  0.00000000000E+00 0.  1.
         21   -1    0    0  501  502 -0.00000000000E+00 -0.00000000000E+00 -0.11724100925E+04  0.11724100925E+04  0.00000000000E+00 0.  1.
         25    1    1    2    0    0  0.69063830897E+02  0.10976415450E+03 -0.61302686316E+03  0.63894046460E+03  0.12500000000E+03 0.  0.
         25    1    1    2    0    0 -0.29784135463E+02  0.11222895544E+00 -0.35232096219E+03  0.37502288959E+03  0.12500000000E+03 0.  0.
         25    1    1    2    0    0 -0.39279695434E+02 -0.10987638346E+03 -0.14275451140E+03  0.22275449410E+03  0.12500000000E+03 0.  0.
</event>
<event>
 5    0  0.5728184E-005  0.2837657E+03  0.7546771E-02  0.1093650E+00
         21   -1    0    0  502  501  0.00000000000E+00  0.00000000000E+00  0.26858919839E+03  0.26858919839E+03  0.00000000000E+00 0.  1.
         21   -1    0    0  501  502 -0.00000000000E+00 -0.00000000000E+00 -0.29979975739E+03  0.29979975739E+03  0.00000000000E+00 0.  1.
         25    1    1    2    0    0  0.34697846380E+02  0.71820185593E+01  0.49556789093E+01  0.13001953964E+03  0.12500000000E+03 0.  0.
         25    1    1    2    0    0 -0.10593996906E+03 -0.95760120231E+02  0.10615666286E+03  0.21745692618E+03  0.12500000000E+03 0.  0.
         25    1    1    2    0    0  0.71242122682E+02  0.88578101672E+02 -0.14232290077E+03  0.22091248997E+03  0.12500000000E+03 0.  0.
</event>
<event>
 5    0  0.5728184E-005  0.3149975E+03  0.7546771E-02  0.1077975E+00
         21   -1    0    0  502  501  0.00000000000E+00  0.00000000000E+00  0.34695520067E+03  0.34695520067E+03  0.00000000000E+00 0.  1.
         21   -1    0    0  501  502 -0.00000000000E+00 -0.00000000000E+00 -0.28598330790E+03  0.28598330790E+03  0.00000000000E+00 0.  1.
         25    1    1    2    0    0 -0.13191901269E+03 -0.79716240019E+02  0.10801328763E+02  0.19874348677E+03  0.12500000000E+03 0.  0.
         25    1    1    2    0    0  0.69592166840E+02 -0.12019288194E+03  0.10798011487E+02  0.18716569025E+03  0.12500000000E+03 0.  0.
         25    1    1    2    0    0  0.62326845850E+02  0.19990912195E+03  0.39372552525E+02  0.24702933155E+03  0.12500000000E+03 0.  0.
</event>
<event>
 5    0  0.5728184E-005  0.3504807E+03  0.7546771E-02  0.1062418E+00
         21   -1    0    0  502  501  0.00000000000E+00  0.00000000000E+00  0.12684377353E+03  0.12684377353E+03  0.00000000000E+00 0.  1.
         21   -1    0    0  501  502 -0.00000000000E+00 -0.00000000000E+00 -0.96840930150E+03  0.96840930150E+03  0.00000000000E+00 0.  1.
         25    1    1    2    0    0  0.65667367313E+02 -0.61256159087E+02 -0.10665963533E+02  0.15428312589E+03  0.12500000000E+03 0.  0.
         25    1    1    2    0    0 -0.33788279140E+02 -0.77143614407E+02 -0.88379555017E+02  0.17472472863E+03  0.12500000000E+03 0.  0.
         25    1    1    2    0    0 -0.31879088173E+02  0.13839977349E+03 -0.74252000942E+03  0.76624522051E+03  0.12500000000E+03 0.  0.
</event>
<event>
 5    0  0.5728184E-005  0.2375003E+03  0.7546771E-02  0.1121469E+00
         21   -1    0    0  502  501  0.00000000000E+00  0.00000000000E+00  0.45183868027E+02  0.45183868027E+02  0.00000000000E+00 0. -1.
         21   -1    0    0  501  502 -0.00000000000E+00 -0.00000000000E+00 -0.12483742558E+04  0.12483742558E+04  0.00000000000E+00 0. -1.
         25    1    1    2    0    0  0.44184648084E+02  0.13237862287E+02 -0.32044251505E+03  0.34703880125E+03  0.12500000000E+03 0.  0.
         25    1    1    2    0    0  0.62789625457E+02 -0.58840646185E+02 -0.26256337555E+03  0.30326438118E+03  0.12500000000E+03 0.  0.
         25    1    1    2    0    0 -0.10697427354E+03  0.45602783898E+02 -0.62018449713E+03  0.64325494136E+03  0.12500000000E+03 0.  0.
</event>
<event>
 5    0  0.5728184E-005  0.2956050E+03  0.7546771E-02  0.1087458E+00
         21   -1    0    0  502  501  0.00000000000E+00  0.00000000000E+00  0.19876908432E+03  0.19876908432E+03  0.00000000000E+00 0. -1.
         21   -1    0    0  501  502 -0.00000000000E+00 -0.00000000000E+00 -0.43961722558E+03  0.43961722558E+03  0.00000000000E+00 0. -1.
         25    1    1    2    0    0 -0.59161111170E+02  0.19818561323E+03 -0.13055966923E+03  0.27467872433E+03  0.12500000000E+03 0.  0.
         25    1    1    2    0    0  0.57627288691E+02 -0.50884791998E+02 -0.82996366422E+02  0.16859289219E+03  0.12500000000E+03 0.  0.
         25    1    1    2    0    0  0.15338224788E+01 -0.14730082123E+03 -0.27292105604E+02  0.19511469339E+03  0.12500000000E+03 0.  0.
</event>
<event>
 5    0  0.5728184E-005  0.2715316E+03  0.7546771E-02  0.1100406E+00
         21   -1    0    0  502  501  0.00000000000E+00  0.00000000000E+00  0.73350970052E+03  0.73350970052E+03  0.00000000000E+00 0.  1.
         21   -1    0    0  501  502 -0.00000000000E+00 -0.00000000000E+00 -0.10051594735E+03  0.10051594735E+03  0.00000000000E+00 0.  1.
         25    1    1    2    0    0  0.17413725633E+03 -0.30294596473E+02  0.17503910659E+03  0.27839762114E+03  0.12500000000E+03 0.  0.
         25    1    1    2    0    0 -0.11832973581E+03 -0.85181547229E+01  0.24778578959E+03  0.30182326427E+03  0.12500000000E+03 0.  0.
         25    1    1    2    0    0 -0.55807520524E+02  0.38812751196E+02  0.21016885699E+03  0.25380476247E+03  0.12500000000E+03 0.  0.
</event>
<event>
 5    0  0.5728184E-005  0.2821067E+03  0.7546771E-02  0.1094544E+00
         21   -1    0    0  502  501  0.00000000000E+00  0.00000000000E+00  0.20505731386E+04  0.20505731386E+04  0.00000000000E+00 0. -1.
         21   -1    0    0  501  502 -0.00000000000E+00 -0.00000000000E+00 -0.38810700235E+02  0.38810700235E+02  0.00000000000E+00 0. -1.
         25    1    1    2    0    0  0.14267500945E+03  0.92825838636E+01  0.11718784970E+04  0.11871674425E+04  0.12500000000E+03 0.  0.
         25    1    1    2    0    0 -0.91686901118E+01 -0.18393785966E+02  0.50381480317E+03  0.51949663342E+03  0.12500000000E+03 0.  0.
         25    1    1    2    0    0 -0.13350631934E+03  0.91112021021E+01  0.33606913810E+03  0.38271976287E+03  0.12500000000E+03 0.  0.
</event>
<event>
 5    0  0.5728184E-005  0.2284425E+03  0.7546771E-02  0.1127741E+00
         21   -1    0    0  502  501  0.00000000000E+00  0.00000000000E+00  0.82540053260E+03  0.82540053260E+03  0.00000000000E+00 0. -1.
         21   -1    0    0  501  502 -0.00000000000E+00 -0.00000000000E+00 -0.63225028311E+02  0.63225028311E+02  0.00000000000E+00 0. -1.
         25    1    1    2    0    0 -0.74749145448E+00 -0.86114098712E+02  0.30215171579E+03  0.33813733319E+03  0.12500000000E+03 0.  0.
         25    1    1    2    0    0 -0.28698829901E+02  0.11266246726E+03  0.24431399738E+03  0.29804493567E+03  0.12500000000E+03 0.  0.
         25    1    1    2    0    0  0.29446321355E+02 -0.26548368549E+02  0.21570979112E+03  0.25244329205E+03  0.12500000000E+03 0.  0.
</event>
<event>
 5    0  0.5728184E-005  0.4385883E+03  0.7546771E-02  0.1031181E+00
         21   -1    0    0  502  501  0.00000000000E+00  0.00000000000E+00  0.75497775088E+02  0.75497775088E+02  0.00000000000E+00 0.  1.
         21   -1    0    0  501  502 -0.00000000000E+00 -0.00000000000E+00 -0.25478859882E+04  0.25478859882E+04  0.00000000000E+00 0.  1.
         25    1    1    2    0    0  0.17118718158E+03  0.11668743219E+03 -0.34000957988E+03  0.41731585445E+03  0.12500000000E+03 0.  0.
         25    1    1    2    0    0 -0.25507511962E+03 -0.22499347076E+03 -0.16487517926E+04  0.16881033299E+04  0.12500000000E+03 0.  0.
         25    1    1    2    0    0  0.83887938033E+02  0.10830603857E+03 -0.48362684063E+03  0.51796457902E+03  0.12500000000E+03 0.  0.
</event>
<event>
 5    0  0.5728184E-005  0.3956198E+03  0.7546771E-02  0.1045307E+00
         21   -1    0    0  502  501  0.00000000000E+00  0.00000000000E+00  0.86321526792E+03  0.86321526792E+03  0.00000000000E+00 0. -1.
         21   -1    0    0  501  502 -0.00000000000E+00 -0.00000000000E+00 -0.18131635019E+03  0.18131635019E+03  0.00000000000E+00 0. -1.
         25    1    1    2    0    0 -0.90946690162E+02  0.10053231901E+02 -0.53602224337E+02  0.16392244013E+03  0.12500000000E+03 0.  0.
         25    1    1    2    0    0  0.82555811551E+02 -0.20364663889E+03  0.41078297514E+03  0.48234330950E+03  0.12500000000E+03 0.  0.
         25    1    1    2    0    0  0.83908786109E+01  0.19359340699E+03  0.32471816693E+03  0.39826586849E+03  0.12500000000E+03 0.  0.
</event>
<event>
 5    0  0.5728184E-005  0.2221686E+03  0.7546771E-02  0.1132277E+00
         21   -1    0    0  502  501  0.00000000000E+00  0.00000000000E+00  0.67643991426E+02  0.67643991426E+02  0.00000000000E+00 0.  1.
         21   -1    0    0  501  502 -0.00000000000E+00 -0.00000000000E+00 -0.72968622664E+03  0.72968622664E+03  0.00000000000E+00 0.  1.
         25    1    1    2    0    0  0.42200943518E+02 -0.26391438549E+02 -0.17355622843E+03  0.21960007307E+03  0.12500000000E+03 0.  0.
         25    1    1    2    0    0 -0.10553877154E+03 -0.61472976447E+01 -0.28191680286E+03  0.32600353572E+03  0.12500000000E+03 0.  0.
         25    1    1    2    0    0  0.63337828020E+02  0.32538736194E+02 -0.20656920392E+03  0.25172660928E+03  0.12500000000E+03 0.  0.
</event>
<event>
 5    0  0.5728184E-005  0.3000518E+03  0.7546771E-02  0.1085215E+00
         21   -1    0    0  502  501  0.00000000000E+00  0.00000000000E+00  0.17743099175E+03  0.17743099175E+03  0.00000000000E+00 0. -1.
         21   -1    0    0  501  502 -0.00000000000E+00 -0.00000000000E+00 -0.50741480461E+03  0.50741480461E+03  0.00000000000E+00 0. -1.
         25    1    1    2    0    0  0.18582971241E+03 -0.64222011292E+01 -0.13588996296E+03  0.26204008990E+03  0.12500000000E+03 0.  0.
         25    1    1    2    0    0 -0.20492416019E+03 -0.34640452203E+02 -0.11970294748E+03  0.27045825555E+03  0.12500000000E+03 0.  0.
         25    1    1    2    0    0  0.19094447772E+02  0.41062653332E+02 -0.74390902423E+02  0.15234745091E+03  0.12500000000E+03 0.  0.
</event>
<event>
 5    0  0.5728184E-005  0.3689456E+03  0.7546771E-02  0.1055097E+00
         21   -1    0    0  502  501  0.00000000000E+00  0.00000000000E+00  0.16432349634E+04  0.16432349634E+04  0.00000000000E+00 0. -1.
         21   -1    0    0  501  502 -0.00000000000E+00 -0.00000000000E+00 -0.82837121420E+02  0.82837121420E+02  0.00000000000E+00 0. -1.
         25    1    1    2    0    0  0.15155602686E+03 -0.17690914567E+03  0.24089248343E+03  0.35765942413E+03  0.12500000000E+03 0.  0.
         25    1    1    2    0    0 -0.13768789028E+03  0.11491938170E+03  0.89675822162E+03  0.92301935379E+03  0.12500000000E+03 0.  0.
         25    1    1    2    0    0 -0.13868136574E+02  0.61989763970E+02  0.42274713697E+03  0.44539330694E+03  0.12500000000E+03 0.  0.
</event>
<event>
 5    0  0.5728184E-005  0.2518763E+03  0.7546771E-02  0.1112125E+00
         21   -1    0    0  502  501  0.00000000000E+00  0.00000000000E+00  0.16978236081E+03  0.16978236081E+03  0.00000000000E+00 0. -1.
         21   -1    0    0  501  502 -0.00000000000E+00 -0.00000000000E+00 -0.37366465646E+03  0.37366465646E+03  0.00000000000E+00 0. -1.
         25    1    1    2    0    0  0.24363257453E+02 -0.85103020518E+02 -0.79181802625E+02  0.17242636191E+03  0.12500000000E+03 0.  0.
         25    1    1    2    0    0  0.19544217981E+02 -0.12333288944E+02 -0.15844541800E+03  0.20313551378E+03  0.12500000000E+03 0.  0.
         25    1    1    2    0    0 -0.43907475433E+02  0.97436309462E+02  0.33744924976E+02  0.16788514158E+03  0.12500000000E+03 0.  0.
</event>
<event>
 5    0  0.5728184E-005  0.3247136E+03  0.7546771E-02  0.1073500E+00
         21   -1    0    0  502  501  0.00000000000E+00  0.00000000000E+00  0.71649058189E+02  0.71649058189E+02  0.00000000000E+00 0.  1.
         21   -1    0    0  501  502 -0.00000000000E+00 -0.00000000000E+00 -0.14716021349E+04  0.14716021349E+04  0.00000000000E+00 0.  1.
         25    1    1    2    0    0 -0.12201399812E+03 -0.36546387235E+02 -0.12840883265E+03  0.21985650425E+03  0.12500000000E+03 0.  0.
         25    1    1    2    0    0  0.16131152681E+02 -0.56508691062E+02 -0.25957241940E+03  0.29403449996E+03  0.12500000000E+03 0.  0.
         25    1    1    2    0    0  0.10588284544E+03  0.93055078297E+02 -0.10119718247E+04  0.10293601889E+04  0.12500000000E+03 0.  0.
</event>
<event>
 5    0  0.5728184E-005  0.3132860E+03  0.7546771E-02  0.1078781E+00
         21   -1    0    0  502  501  0.00000000000E+00  0.00000000000E+00  0.48627333357E+02  0.48627333357E+02  0.00000000000E+00 0. -1.
         21   -1    0    0  501  502 -0.00000000000E+00 -0.00000000000E+00 -0.20183731556E+04  0.20183731556E+04  0.00000000000E+00 0. -1.
         25    1    1    2    0    0  0.11649831104E+02  0.10592799114E+03 -0.84563347598E+03  0.86143916417E+03  0.12500000000E+03 0.  0.
         25    1    1    2    0    0 -0.47567376096E+02  0.10366673198E+03 -0.64309008867E+03  0.66498068298E+03  0.12500000000E+03 0.  0.
         25    1    1    2    0    0  0.35917544992E+02 -0.20959472312E+03 -0.48102225760E+03  0.54058064181E+03  0.12500000000E+03 0.  0.
</event>
<event>
 5    0  0.5728184E-005  0.2531123E+03  0.7546771E-02  0.1111354E+00
         21   -1    0    0  502  501  0.00000000000E+00  0.00000000000E+00  0.22302722689E+03  0.22302722689E+03  0.00000000000E+00 0. -1.
         21   -1    0    0  501  502 -0.00000000000E+00 -0.00000000000E+00 -0.28725576096E+03  0.28725576096E+03  0.00000000000E+00 0. -1.
         25    1    1    2    0    0 -0.10124911116E+03 -0.23209279745E+02  0.31661919858E+02  0.16558239746E+03  0.12500000000E+03 0.  0.
         25    1    1    2    0    0  0.14961515279E+03  0.27142306171E+02 -0.62366636787E+02  0.20648485686E+03  0.12500000000E+03 0.  0.
         25    1    1    2    0    0 -0.48366041624E+02 -0.39330264253E+01 -0.33523817138E+02  0.13821573353E+03  0.12500000000E+03 0.  0.
</event>
<event>
 5    0  0.5728184E-005  0.2619254E+03  0.7546771E-02  0.1105992E+00
         21   -1    0    0  502  501  0.00000000000E+00  0.00000000000E+00  0.65541297911E+03  0.65541297911E+03  0.00000000000E+00 0. -1.
         21   -1    0    0  501  502 -0.00000000000E+00 -0.00000000000E+00 -0.10467432018E+03  0.10467432018E+03  0.00000000000E+00 0. -1.
         25    1    1    2    0    0  0.60251575692E+02 -0.48094933995E+01  0.36592707253E+02  0.14358763813E+03  0.12500000000E+03 0.  0.
         25    1    1    2    0    0 -0.52220467523E+02  0.91575037327E+02  0.37922757423E+03  0.41297883450E+03  0.12500000000E+03 0.  0.
         25    1    1    2    0    0 -0.80311081687E+01 -0.86765543928E+02  0.13491837745E+03  0.20352082666E+03  0.12500000000E+03 0.  0.
</event>
<event>
 5    0  0.5728184E-005  0.2566945E+03  0.7546771E-02  0.1109146E+00
         21   -1    0    0  502  501  0.00000000000E+00  0.00000000000E+00  0.19824278202E+03  0.19824278202E+03  0.00000000000E+00 0.  1.
         21   -1    0    0  501  502 -0.00000000000E+00 -0.00000000000E+00 -0.33238072930E+03  0.33238072930E+03  0.00000000000E+00 0.  1.
         25    1    1    2    0    0 -0.62444791805E+02 -0.62647092435E+02 -0.11417179416E+03  0.19100839980E+03  0.12500000000E+03 0.  0.
         25    1    1    2    0    0  0.10854098677E+03  0.76285569709E+02 -0.71935929281E+02  0.19596023034E+03  0.12500000000E+03 0.  0.
         25    1    1    2    0    0 -0.46096194960E+02 -0.13638477274E+02  0.51969776153E+02  0.14365488118E+03  0.12500000000E+03 0.  0.
</event>
<event>
 5    0  0.5728184E-005  0.2719910E+03  0.7546771E-02  0.1100145E+00
         21   -1    0    0  502  501  0.00000000000E+00  0.00000000000E+00  0.15260779050E+03  0.15260779050E+03  0.00000000000E+00 0.  1.
         21   -1    0    0  501  502 -0.00000000000E+00 -0.00000000000E+00 -0.48476640613E+03  0.48476640613E+03  0.00000000000E+00 0.  1.
         25    1    1    2    0    0  0.10533661618E+03  0.27505034490E+02 -0.53398357909E+02  0.17415141188E+03  0.12500000000E+03 0.  0.
         25    1    1    2    0    0 -0.95552768727E+01  0.10547709577E+03 -0.12197560928E+03  0.20425418064E+03  0.12500000000E+03 0.  0.
         25    1    1    2    0    0 -0.95781339311E+02 -0.13298213026E+03 -0.15678464844E+03  0.25896860411E+03  0.12500000000E+03 0.  0.
</event>
<event>
 5    0  0.5728184E-005  0.3913957E+03  0.7546771E-02  0.1046800E+00
         21   -1    0    0  502  501  0.00000000000E+00  0.00000000000E+00  0.59684762417E+03  0.59684762417E+03  0.00000000000E+00 0. -1.
         21   -1    0    0  501  502 -0.00000000000E+00 -0.00000000000E+00 -0.25666617347E+03  0.25666617347E+03  0.00000000000E+00 0. -1.
         25    1    1    2    0    0  0.10399487263E+03  0.29269761602E+03  0.71043069306E+02  0.34228488961E+03  0.12500000000E+03 0.  0.
         25    1    1    2    0    0 -0.94822381636E+02 -0.26228337040E+03  0.19267772923E+03  0.36129428142E+03  0.12500000000E+03 0.  0.
         25    1    1    2    0    0 -0.91724909959E+01 -0.30414245619E+02  0.76460652160E+02  0.14993462661E+03  0.12500000000E+03 0.  0.
</event>
<event>
 5    0  0.5728184E-005  0.4083376E+03  0.7546771E-02  0.1040930E+00
         21   -1    0    0  502  501  0.00000000000E+00  0.00000000000E+00  0.14897916874E+03  0.14897916874E+03  0.00000000000E+00 0. -1.
         21   -1    0    0  501  502 -0.00000000000E+00 -0.00000000000E+00 -0.11192139611E+04  0.11192139611E+04  0.00000000000E+00 0. -1.
         25    1    1    2    0    0  0.16964759783E+03  0.33728562383E+02 -0.55846570394E+03  0.59785187618E+03  0.12500000000E+03 0.  0.
         25    1    1    2    0    0  0.14175920408E+03 -0.34901057411E+02 -0.17202064650E+03  0.25793382595E+03  0.12500000000E+03 0.  0.
         25    1    1    2    0    0 -0.31140680191E+03  0.11724950286E+01 -0.23974844191E+03  0.41240742769E+03  0.12500000000E+03 0.  0.
</event>
<event>
 5    0  0.5728184E-005  0.3377920E+03  0.7546771E-02  0.1067740E+00
         21   -1    0    0  502  501  0.00000000000E+00  0.00000000000E+00  0.88408776415E+02  0.88408776415E+02  0.00000000000E+00 0. -1.
         21   -1    0    0  501  502 -0.00000000000E+00 -0.00000000000E+00 -0.12906350814E+04  0.12906350814E+04  0.00000000000E+00 0. -1.
         25    1    1    2    0    0  0.16663540967E+02 -0.14121660786E+03 -0.35286629409E+03  0.40044902976E+03  0.12500000000E+03 0.  0.
         25    1    1    2    0    0 -0.12259112062E+03 -0.67708804045E+02 -0.53575177490E+03  0.56768655903E+03  0.12500000000E+03 0.  0.
         25    1    1    2    0    0  0.10592757965E+03  0.20892541190E+03 -0.31360823601E+03  0.41090826903E+03  0.12500000000E+03 0.  0.
</event>
<event>
 5    0  0.5728184E-005  0.3360732E+03  0.7546771E-02  0.1068481E+00
         21   -1    0    0  502  501  0.00000000000E+00  0.00000000000E+00  0.17176192316E+03  0.17176192316E+03  0.00000000000E+00 0.  1.
         21   -1    0    0  501  502 -0.00000000000E+00 -0.00000000000E+00 -0.65756846048E+03  0.65756846048E+03  0.00000000000E+00 0.  1.
         25    1    1    2    0    0  0.10756933515E+03 -0.69852383012E+02 -0.19155580503E+03  0.26223871514E+03  0.12500000000E+03 0.  0.
         25    1    1    2    0    0  0.10248075281E+03  0.38622039347E+02 -0.27320035040E+03  0.31977710687E+03  0.12500000000E+03 0.  0.
         25    1    1    2    0    0 -0.21005008796E+03  0.31230343664E+02 -0.21050381891E+02  0.24731456163E+03  0.12500000000E+03 0.  0.
</event>
<event>
 5    0  0.5728184E-005  0.1031496E+04  0.7546771E-02  0.9274660E-01
         21   -1    0    0  502  501  0.00000000000E+00  0.00000000000E+00  0.13449997497E+04  0.13449997497E+04  0.00000000000E+00 0.  1.
         21   -1    0    0  501  502 -0.00000000000E+00 -0.00000000000E+00 -0.79106598206E+03  0.79106598206E+03  0.00000000000E+00 0.  1.
         25    1    1    2    0    0  0.17629262601E+03 -0.48025665972E+03 -0.46171073439E+03  0.70037657831E+03  0.12500000000E+03 0.  0.
         25    1    1    2    0    0  0.19471980238E+03 -0.19931626245E+02 -0.64120399518E+01  0.23233421061E+03  0.12500000000E+03 0.  0.
         25    1    1    2    0    0 -0.37101242839E+03  0.50018828597E+03  0.10220565420E+04  0.12033549429E+04  0.12500000000E+03 0.  0.
</event>
<event>
 5    0  0.5728184E-005  0.2822767E+03  0.7546771E-02  0.1094452E+00
         21   -1    0    0  502  501  0.00000000000E+00  0.00000000000E+00  0.10517593405E+04  0.10517593405E+04  0.00000000000E+00 0. -1.
         21   -1    0    0  501  502 -0.00000000000E+00 -0.00000000000E+00 -0.75758920000E+02  0.75758920000E+02  0.00000000000E+00 0. -1.
         25    1    1    2    0    0 -0.10329481921E+03 -0.11343999538E+03  0.53785846152E+03  0.57311009139E+03  0.12500000000E+03 0.  0.
         25    1    1    2    0    0  0.37521563275E+02  0.86231987776E+02  0.96695632088E+02  0.18389907202E+03  0.12500000000E+03 0.  0.
         25    1    1    2    0    0  0.65773255937E+02  0.27208007607E+02  0.34144632692E+03  0.37050909711E+03  0.12500000000E+03 0.  0.
</event>
<event>
 5    0  0.5728184E-005  0.2838933E+03  0.7546771E-02  0.1093581E+00
         21   -1    0    0  502  501  0.00000000000E+00  0.00000000000E+00  0.54333118129E+02  0.54333118129E+02  0.00000000000E+00 0.  1.
         21   -1    0    0  501  502 -0.00000000000E+00 -0.00000000000E+00 -0.14833567951E+04  0.14833567951E+04  0.00000000000E+00 0.  1.
         25    1    1    2    0    0  0.11527720666E+03 -0.70612454454E+02 -0.25726104738E+03  0.31635928878E+03  0.12500000000E+03 0.  0.
         25    1    1    2    0    0  0.79788810813E+01 -0.28427445222E+02 -0.29586835696E+03  0.32254436414E+03  0.12500000000E+03 0.  0.
         25    1    1    2    0    0 -0.12325608775E+03  0.99039899675E+02 -0.87589427258E+03  0.89878626026E+03  0.12500000000E+03 0.  0.
</event>
<event>
 5    0  0.6102681E-005  0.2904255E+03  0.7546771E-02  0.1090127E+00
         21   -1    0    0  502  501  0.00000000000E+00  0.00000000000E+00  0.22617658573E+03  0.22617658573E+03  0.00000000000E+00 0.  1.
         21   -1    0    0  501  502 -0.00000000000E+00 -0.00000000000E+00 -0.37292527570E+03  0.37292527570E+03  0.00000000000E+00 0.  1.
         25    1    1    2    0    0  0.86742686918E+02  0.25428025827E+02 -0.70752554547E+02  0.16971093720E+03  0.12500000000E+03 0.  0.
         25    1    1    2    0    0  0.36043784204E+02  0.11711784055E+03 -0.10106537601E+03  0.20212608239E+03  0.12500000000E+03 0.  0.
         25    1    1    2    0    0 -0.12278647112E+03 -0.14254586638E+03  0.25069240584E+02  0.22726484184E+03  0.12500000000E+03 0.  0.
</event>
<event>
 5    0  0.5728184E-005  0.3003806E+03  0.7546771E-02  0.1085050E+00
         21   -1    0    0  502  501  0.00000000000E+00  0.00000000000E+00  0.60964859809E+02  0.60964859809E+02  0.00000000000E+00 0.  1.
         21   -1    0    0  501  502 -0.00000000000E+00 -0.00000000000E+00 -0.14800088933E+04  0.14800088933E+04  0.00000000000E+00 0. -1.
         25    1    1    2    0    0  0.17182916748E+03 -0.89109712423E+02 -0.57569743763E+03  0.62009543083E+03  0.12500000000E+03 0.  0.
         25    1    1    2    0    0 -0.48085787411E+02 -0.48174702235E+02 -0.39965352327E+03  0.42424165702E+03  0.12500000000E+03 0.  0.
         25    1    1    2    0    0 -0.12374338006E+03  0.13728441466E+03 -0.44369307260E+03  0.49663666527E+03  0.12500000000E+03 0.  0.
</event>
<event>
 5    0  0.5728184E-005  0.2346135E+03  0.7546771E-02  0.1123434E+00
         21   -1    0    0  502  501  0.00000000000E+00  0.00000000000E+00  0.95330505476E+03  0.95330505476E+03  0.00000000000E+00 0.  1.
         21   -1    0    0  501  502 -0.00000000000E+00 -0.00000000000E+00 -0.57739668045E+02  0.57739668045E+02  0.00000000000E+00 0.  1.
         25    1    1    2    0    0  0.18062492316E+02  0.12669909914E+02  0.34534013647E+03  0.36792878401E+03  0.12500000000E+03 0.  0.
         25    1    1    2    0    0  0.38793063387E+02 -0.10406735950E+03  0.25508730482E+03  0.30500729526E+03  0.12500000000E+03 0.  0.
         25    1    1    2    0    0 -0.56855555703E+02  0.91397449586E+02  0.29513794543E+03  0.33810864354E+03  0.12500000000E+03 0.  0.
</event>
<event>
 5    0  0.5728184E-005  0.2235775E+03  0.7546771E-02  0.1131244E+00
         21   -1    0    0  502  501  0.00000000000E+00  0.00000000000E+00  0.28044141427E+03  0.28044141427E+03  0.00000000000E+00 0.  1.
         21   -1    0    0  501  502 -0.00000000000E+00 -0.00000000000E+00 -0.17824359217E+03  0.17824359217E+03  0.00000000000E+00 0.  1.
         25    1    1    2    0    0 -0.97552570215E+01  0.80447652071E+02 -0.46267628602E+02  0.15598936893E+03  0.12500000000E+03 0.  0.
         25    1    1    2    0    0 -0.45285799063E+01 -0.33479643510E+02  0.73865721071E+02  0.14907226206E+03  0.12500000000E+03 0.  0.
         25    1    1    2    0    0  0.14283836928E+02 -0.46968008561E+02  0.74599729628E+02  0.15362337545E+03  0.12500000000E+03 0.  0.
</event>
<event>
 5    0  0.5728184E-005  0.5149912E+03  0.7546771E-02  0.1009938E+00
         21   -1    0    0  502  501  0.00000000000E+00  0.00000000000E+00  0.16483646764E+04  0.16483646764E+04  0.00000000000E+00 0.  1.
         21   -1    0    0  501  502 -0.00000000000E+00 -0.00000000000E+00 -0.16089637482E+03  0.16089637482E+03  0.00000000000E+00 0.  1.
         25    1    1    2    0    0  0.26889743413E+03  0.54303622111E+02  0.75687608918E+02  0.31081880187E+03  0.12500000000E+03 0.  0.
         25    1    1    2    0    0  0.17233483874E+02  0.65603601193E+02  0.66715825605E+03  0.68214805143E+03  0.12500000000E+03 0.  0.
         25    1    1    2    0    0 -0.28613091800E+03 -0.11990722330E+03  0.74462243662E+03  0.81629419792E+03  0.12500000000E+03 0.  0.
</event>
<event>
 5    0  0.5868478E-005  0.4131728E+03  0.7546771E-02  0.1039312E+00
         21   -1    0    0  502  501  0.00000000000E+00  0.00000000000E+00  0.81358434150E+03  0.81358434150E+03  0.00000000000E+00 0. -1.
         21   -1    0    0  501  502 -0.00000000000E+00 -0.00000000000E+00 -0.20982670580E+03  0.20982670580E+03  0.00000000000E+00 0. -1.
         25    1    1    2    0    0 -0.16047277182E+02  0.21015989117E+03  0.87179353840E+02  0.26009601054E+03  0.12500000000E+03 0.  0.
         25    1    1    2    0    0  0.31534881305E+02 -0.89230638801E+02 -0.54618048980E+02  0.16602616334E+03  0.12500000000E+03 0.  0.
         25    1    1    2    0    0 -0.15487604123E+02 -0.12092925237E+03  0.57119633083E+03  0.59728887342E+03  0.12500000000E+03 0.  0.
</event>
<event>
 5    0  0.5728184E-005  0.4108155E+03  0.7546771E-02  0.1040098E+00
         21   -1    0    0  502  501  0.00000000000E+00  0.00000000000E+00  0.24055172188E+03  0.24055172188E+03  0.00000000000E+00 0. -1.
         21   -1    0    0  501  502 -0.00000000000E+00 -0.00000000000E+00 -0.70159298102E+03  0.70159298102E+03  0.00000000000E+00 0. -1.
         25    1    1    2    0    0  0.16949321617E+03 -0.74912730012E+02  0.12607334199E+01  0.22353178050E+03  0.12500000000E+03 0.  0.
         25    1    1    2    0    0 -0.26005513528E+03  0.19994443618E+03 -0.30950890019E+03  0.46800342973E+03  0.12500000000E+03 0.  0.
         25    1    1    2    0    0  0.90561919116E+02 -0.12503170617E+03 -0.15279309237E+03  0.25060949267E+03  0.12500000000E+03 0.  0.
</event>
<event>
 5    0  0.5728184E-005  0.2586961E+03  0.7546771E-02  0.1107929E+00
         21   -1    0    0  502  501  0.00000000000E+00  0.00000000000E+00  0.19062159643E+03  0.19062159643E+03  0.00000000000E+00 0. -1.
         21   -1    0    0  501  502 -0.00000000000E+00 -0.00000000000E+00 -0.35108128066E+03  0.35108128066E+03  0.00000000000E+00 0. -1.
         25    1    1    2    0    0 -0.13093194023E+03  0.35035998899E+02 -0.10999334992E+03  0.21469567117E+03  0.12500000000E+03 0.  0.
         25    1    1    2    0    0  0.62686934360E+02 -0.72742246901E+01 -0.10177457287E+03  0.17310583401E+03  0.12500000000E+03 0.  0.
         25    1    1    2    0    0  0.68245005868E+02 -0.27761774209E+02  0.51308238569E+02  0.15390137192E+03  0.12500000000E+03 0.  0.
</event>
<event>
 5    0  0.5728184E-005  0.3618324E+03  0.7546771E-02  0.1057861E+00
         21   -1    0    0  502  501  0.00000000000E+00  0.00000000000E+00  0.49617723440E+03  0.49617723440E+03  0.00000000000E+00 0. -1.
         21   -1    0    0  501  502 -0.00000000000E+00 -0.00000000000E+00 -0.26386266959E+03  0.26386266959E+03  0.00000000000E+00 0. -1.
         25    1    1    2    0    0  0.12307797502E+03  0.10793848939E+03  0.82247488367E+02  0.22178492909E+03  0.12500000000E+03 0.  0.
         25    1    1    2    0    0  0.83655248614E+02 -0.13171490140E+02 -0.97393832359E+02  0.17967261159E+03  0.12500000000E+03 0.  0.
         25    1    1    2    0    0 -0.20673322364E+03 -0.94766999245E+02  0.24746090880E+03  0.35858236332E+03  0.12500000000E+03 0.  0.
</event>
<event>
 5    0  0.5728184E-005  0.3211764E+03  0.7546771E-02  0.1075109E+00
         21   -1    0    0  502  501  0.00000000000E+00  0.00000000000E+00  0.56786934774E+02  0.56786934774E+02  0.00000000000E+00 0.  1.
         21   -1    0    0  501  502 -0.00000000000E+00 -0.00000000000E+00 -0.18165144875E+04  0.18165144875E+04  0.00000000000E+00 0.  1.
         25    1    1    2    0    0 -0.59195040607E+02 -0.51832006233E+00 -0.96263343033E+03  0.97251860788E+03  0.12500000000E+03 0.  0.
         25    1    1    2    0    0  0.19234030284E+03  0.36545315705E+02 -0.40906743438E+03  0.47041632419E+03  0.12500000000E+03 0.  0.
         25    1    1    2    0    0 -0.13314526224E+03 -0.36026995642E+02 -0.38802668801E+03  0.43036649019E+03  0.12500000000E+03 0.  0.
</event>
<event>
 5    0  0.5728184E-005  0.4398435E+03  0.7546771E-02  0.1030795E+00
         21   -1    0    0  502  501  0.00000000000E+00  0.00000000000E+00  0.15010771394E+04  0.15010771394E+04  0.00000000000E+00 0.  1.
         21   -1    0    0  501  502 -0.00000000000E+00 -0.00000000000E+00 -0.12888229527E+03  0.12888229527E+03  0.00000000000E+00 0.  1.
         25    1    1    2    0    0 -0.29988620784E+03  0.13384058540E+03  0.59572169611E+03  0.69163167884E+03  0.12500000000E+03 0.  0.
         25    1    1    2    0    0  0.12115668600E+03 -0.14014100838E+03  0.13576982742E+03  0.26148975282E+03  0.12500000000E+03 0.  0.
         25    1    1    2    0    0  0.17872952184E+03  0.63004229835E+01  0.64070332060E+03  0.67683800302E+03  0.12500000000E+03 0.  0.
</event>
<event>
 5    0  0.5728184E-005  0.3043496E+03  0.7546771E-02  0.1083086E+00
         21   -1    0    0  502  501  0.00000000000E+00  0.00000000000E+00  0.12386386742E+03  0.12386386742E+03  0.00000000000E+00 0.  1.
         21   -1    0    0  501  502 -0.00000000000E+00 -0.00000000000E+00 -0.74782632764E+03  0.74782632764E+03  0.00000000000E+00 0.  1.
         25    1    1    2    0    0  0.25053152628E+02  0.16925883671E+03 -0.24176369213E+03  0.32148234336E+03  0.12500000000E+03 0.  0.
         25    1    1    2    0    0  0.37318225262E+01 -0.16639635162E+03 -0.36577984664E+03  0.42085813351E+03  0.12500000000E+03 0.  0.
         25    1    1    2    0    0 -0.28784975154E+02 -0.28624850947E+01 -0.16418921448E+02  0.12934971819E+03  0.12500000000E+03 0.  0.
</event>
<event>
 5    0  0.5728184E-005  0.5600852E+03  0.7546771E-02  0.9991862E-01
         21   -1    0    0  502  501  0.00000000000E+00  0.00000000000E+00  0.23793669330E+03  0.23793669330E+03  0.00000000000E+00 0.  1.
         21   -1    0    0  501  502 -0.00000000000E+00 -0.00000000000E+00 -0.13183986020E+04  0.13183986020E+04  0.00000000000E+00 0.  1.
         25    1    1    2    0    0  0.22432656011E+03 -0.44582028414E+03 -0.66081735074E+03  0.83748594159E+03  0.12500000000E+03 0.  0.
         25    1    1    2    0    0 -0.19761653761E+03  0.32131343301E+03 -0.34182663980E+03  0.52418037911E+03  0.12500000000E+03 0.  0.
         25    1    1    2    0    0 -0.26710022496E+02  0.12450685113E+03 -0.77817918134E+02  0.19466897458E+03  0.12500000000E+03 0.  0.
</event>
<event>
 5    0  0.5728184E-005  0.3278330E+03  0.7546771E-02  0.1072100E+00
         21   -1    0    0  502  501  0.00000000000E+00  0.00000000000E+00  0.39706942748E+03  0.39706942748E+03  0.00000000000E+00 0.  1.
         21   -1    0    0  501  502 -0.00000000000E+00 -0.00000000000E+00 -0.27066928456E+03  0.27066928456E+03  0.00000000000E+00 0.  1.
         25    1    1    2    0    0  0.87351202073E+02 -0.20795053912E+03 -0.36550003164E+02  0.26045069006E+03  0.12500000000E+03 0.  0.
         25    1    1    2    0    0 -0.90821216960E+02  0.13644848386E+03  0.16371620471E+03  0.26323882291E+03  0.12500000000E+03 0.  0.
         25    1    1    2    0    0  0.34700148874E+01  0.71502055252E+02 -0.76605863117E+00  0.14404919908E+03  0.12500000000E+03 0.  0.
</event>
<event>
 5    0  0.5728184E-005  0.3456735E+03  0.7546771E-02  0.1064405E+00
         21   -1    0    0  502  501  0.00000000000E+00  0.00000000000E+00  0.78052390135E+02  0.78052390135E+02  0.00000000000E+00 0. -1.
         21   -1    0    0  501  502 -0.00000000000E+00 -0.00000000000E+00 -0.15308966282E+04  0.15308966282E+04  0.00000000000E+00 0. -1.
         25    1    1    2    0    0  0.41947901104E+02  0.32187608219E+02 -0.83702806457E+03  0.84796028763E+03  0.12500000000E+03 0.  0.
         25    1    1    2    0    0 -0.10008835786E+03  0.10840038905E+03 -0.49138551348E+03  0.52806538097E+03  0.12500000000E+03 0.  0.
         25    1    1    2    0    0  0.58140456751E+02 -0.14058799727E+03 -0.12443065997E+03  0.23292334968E+03  0.12500000000E+03 0.  0.
</event>
<event>
 5    0  0.5728184E-005  0.3206699E+03  0.7546771E-02  0.1075341E+00
         21   -1    0    0  502  501  0.00000000000E+00  0.00000000000E+00  0.34445875964E+03  0.34445875964E+03  0.00000000000E+00 0.  1.
         21   -1    0    0  501  502 -0.00000000000E+00 -0.00000000000E+00 -0.29852396549E+03  0.29852396549E+03  0.00000000000E+00 0.  1.
         25    1    1    2    0    0  0.23943135619E+02  0.20537257336E+03  0.10117285268E+03  0.26193914131E+03  0.12500000000E+03 0.  0.
         25    1    1    2    0    0 -0.18566345565E+02 -0.16984416799E+03  0.45496483569E+02  0.21653332447E+03  0.12500000000E+03 0.  0.
         25    1    1    2    0    0 -0.53767900545E+01 -0.35528405371E+02 -0.10073454210E+03  0.16451025935E+03  0.12500000000E+03 0.  0.
</event>
<event>
 5    0  0.5728184E-005  0.6141171E+03  0.7546771E-02  0.9876543E-01
         21   -1    0    0  502  501  0.00000000000E+00  0.00000000000E+00  0.24638178136E+03  0.24638178136E+03  0.00000000000E+00 0. -1.
         21   -1    0    0  501  502 -0.00000000000E+00 -0.00000000000E+00 -0.15307132827E+04  0.15307132827E+04  0.00000000000E+00 0. -1.
         25    1    1    2    0    0 -0.13939716367E+01  0.31612187589E+03 -0.21033021242E+03  0.39974839816E+03  0.12500000000E+03 0.  0.
         25    1    1    2    0    0  0.17661665433E+03 -0.18231518628E+03 -0.10873446238E+04  0.11235548944E+04  0.12500000000E+03 0.  0.
         25    1    1    2    0    0 -0.17522268269E+03 -0.13380668962E+03  0.13343334884E+02  0.25379177154E+03  0.12500000000E+03 0.  0.
</event>
<event>
 5    0  0.5728184E-005  0.3883891E+03  0.7546771E-02  0.1047876E+00
         21   -1    0    0  502  501  0.00000000000E+00  0.00000000000E+00  0.52853533461E+03  0.52853533461E+03  0.00000000000E+00 0. -1.
         21   -1    0    0  501  502 -0.00000000000E+00 -0.00000000000E+00 -0.28540395769E+03  0.28540395769E+03  0.00000000000E+00 0. -1.
         25    1    1    2    0    0  0.17447411709E+03 -0.50635408089E+02  0.27632946853E+03  0.35353661375E+03  0.12500000000E+03 0.  0.
         25    1    1    2    0    0 -0.25604137908E+03 -0.17884109526E+02 -0.65782427171E+02  0.29296647743E+03  0.12500000000E+03 0.  0.
         25    1    1    2    0    0  0.81567261992E+02  0.68519517615E+02  0.32584335558E+02  0.16743620112E+03  0.12500000000E+03 0.  0.
</event>
<event>
 5    0  0.5728184E-005  0.2836702E+03  0.7546771E-02  0.1093701E+00
         21   -1    0    0  502  501  0.00000000000E+00  0.00000000000E+00  0.87870664353E+03  0.87870664353E+03  0.00000000000E+00 0.  1.
         21   -1    0    0  501  502 -0.00000000000E+00 -0.00000000000E+00 -0.91576394934E+02  0.91576394934E+02  0.00000000000E+00 0.  1.
         25    1    1    2    0    0 -0.79081126148E+02 -0.43916981792E+02  0.45531180273E+03  0.48074563285E+03  0.12500000000E+03 0.  0.
         25    1    1    2    0    0  0.20112953214E+02  0.12902124632E+03  0.10011008695E+03  0.20663504639E+03  0.12500000000E+03 0.  0.
         25    1    1    2    0    0  0.58968172934E+02 -0.85104264528E+02  0.23170835892E+03  0.28290235922E+03  0.12500000000E+03 0.  0.
</event>
<event>
 5    0  0.5728184E-005  0.2588107E+03  0.7546771E-02  0.1107860E+00
         21   -1    0    0  502  501  0.00000000000E+00  0.00000000000E+00  0.49460265389E+03  0.49460265389E+03  0.00000000000E+00 0.  1.
         21   -1    0    0  501  502 -0.00000000000E+00 -0.00000000000E+00 -0.13542786468E+03  0.13542786468E+03  0.00000000000E+00 0.  1.
         25    1    1    2    0    0  0.69548093909E+02  0.45793788562E+02  0.11388296071E+03  0.18848962087E+03  0.12500000000E+03 0.  0.
         25    1    1    2    0    0 -0.10946421138E+02  0.10350107384E+03  0.12636348407E+03  0.20597336364E+03  0.12500000000E+03 0.  0.
         25    1    1    2    0    0 -0.58601672771E+02 -0.14929486240E+03  0.11892834443E+03  0.23556753405E+03  0.12500000000E+03 0.  0.
</event>
<event>
 5    0  0.5728184E-005  0.4094216E+03  0.7546771E-02  0.1040565E+00
         21   -1    0    0  502  501  0.00000000000E+00  0.00000000000E+00  0.56637203991E+03  0.56637203991E+03  0.00000000000E+00 0.  1.
         21   -1    0    0  501  502 -0.00000000000E+00 -0.00000000000E+00 -0.29596461877E+03  0.29596461877E+03  0.00000000000E+00 0.  1.
         25    1    1    2    0    0 -0.16180502049E+03 -0.16914910597E+03  0.28388974773E+03  0.38860091814E+03  0.12500000000E+03 0.  0.
         25    1    1    2    0    0  0.16241482398E+03  0.16073869789E+03  0.12336521464E+03  0.28820041678E+03  0.12500000000E+03 0.  0.
         25    1    1    2    0    0 -0.60980349057E+00  0.84104080790E+01 -0.13684754124E+03  0.18553532377E+03  0.12500000000E+03 0.  0.
</event>
<event>
 5    0  0.5728184E-005  0.5207574E+03  0.7546771E-02  0.1008499E+00
         21   -1    0    0  502  501  0.00000000000E+00  0.00000000000E+00  0.23536620899E+03  0.23536620899E+03  0.00000000000E+00 0. -1.
         21   -1    0    0  501  502 -0.00000000000E+00 -0.00000000000E+00 -0.11521972624E+04  0.11521972624E+04  0.00000000000E+00 0. -1.
         25    1    1    2    0    0 -0.78212665766E+02  0.70423026582E+02  0.12409348711E+03  0.20518483692E+03  0.12500000000E+03 0.  0.
         25    1    1    2    0    0  0.31071685418E+02  0.29544896676E+02 -0.10024782025E+04  0.10111507786E+04  0.12500000000E+03 0.  0.
         25    1    1    2    0    0  0.47140980348E+02 -0.99967923258E+02 -0.38446337959E+02  0.17122785583E+03  0.12500000000E+03 0.  0.
</event>
<event>
 5    0  0.5728184E-005  0.2795079E+03  0.7546771E-02  0.1095958E+00
         21   -1    0    0  502  501  0.00000000000E+00  0.00000000000E+00  0.26599810018E+03  0.26599810018E+03  0.00000000000E+00 0. -1.
         21   -1    0    0  501  502 -0.00000000000E+00 -0.00000000000E+00 -0.29370381507E+03  0.29370381507E+03  0.00000000000E+00 0.  1.
         25    1    1    2    0    0 -0.91644671877E+02  0.25313338413E+02  0.53563741406E+02  0.16593247235E+03  0.12500000000E+03 0.  0.
         25    1    1    2    0    0  0.18299153116E+03 -0.23460355880E+02 -0.85998404859E+02  0.23886610143E+03  0.12500000000E+03 0.  0.
         25    1    1    2    0    0 -0.91346859284E+02 -0.18529825330E+01  0.47289485590E+01  0.15490334147E+03  0.12500000000E+03 0.  0.
</event>
<event>
 5    0  0.5728184E-005  0.3250746E+03  0.7546771E-02  0.1073337E+00
         21   -1    0    0  502  501  0.00000000000E+00  0.00000000000E+00  0.48205645414E+03  0.48205645414E+03  0.00000000000E+00 0.  1.
         21   -1    0    0  501  502 -0.00000000000E+00 -0.00000000000E+00 -0.21921389319E+03  0.21921389319E+03  0.00000000000E+00 0.  1.
         25    1    1    2    0    0 -0.10512117595E+03  0.86737248420E+02  0.22067070694E+03  0.28791382877E+03  0.12500000000E+03 0.  0.
         25    1    1    2    0    0  0.38777416534E+02 -0.81273926160E+02 -0.12201926177E+03  0.19652694306E+03  0.12500000000E+03 0.  0.
         25    1    1    2    0    0  0.66343759419E+02 -0.54633222604E+01  0.16419111578E+03  0.21682957549E+03  0.12500000000E+03 0.  0.
</event>
<event>
 5    0  0.5728184E-005  0.3107841E+03  0.7546771E-02  0.1079971E+00
         21   -1    0    0  502  501  0.00000000000E+00  0.00000000000E+00  0.54729699033E+03  0.54729699033E+03  0.00000000000E+00 0.  1.
         21   -1    0    0  501  502 -0.00000000000E+00 -0.00000000000E+00 -0.17647966144E+03  0.17647966144E+03  0.00000000000E+00 0.  1.
         25    1    1    2    0    0  0.14179362457E+03  0.22816465179E+02 -0.53696016849E+02  0.19782387439E+03  0.12500000000E+03 0.  0.
         25    1    1    2    0    0 -0.12544316119E+03 -0.11731743987E+02  0.29905443599E+03  0.34775303908E+03  0.12500000000E+03 0.  0.
         25    1    1    2    0    0 -0.16350463381E+02 -0.11084721193E+02  0.12545890975E+03  0.17819973830E+03  0.12500000000E+03 0.  0.
</event>
<event>
 5    0  0.5728184E-005  0.2940948E+03  0.7546771E-02  0.1088230E+00
         21   -1    0    0  502  501  0.00000000000E+00  0.00000000000E+00  0.58319643259E+02  0.58319643259E+02  0.00000000000E+00 0. -1.
         21   -1    0    0  501  502 -0.00000000000E+00 -0.00000000000E+00 -0.14830634845E+04  0.14830634845E+04  0.00000000000E+00 0. -1.
         25    1    1    2    0    0  0.17146976611E+03  0.11195269552E+03 -0.76104758262E+03  0.79796848919E+03  0.12500000000E+03 0.  0.
         25    1    1    2    0    0 -0.78360473907E+02 -0.96407436018E+02 -0.31021159949E+03  0.35677863452E+03  0.12500000000E+03 0.  0.
         25    1    1    2    0    0 -0.93109292203E+02 -0.15545259507E+02 -0.35348465911E+03  0.38663600403E+03  0.12500000000E+03 0.  0.
</event>
<event>
 5    0  0.5728184E-005  0.3132400E+03  0.7546771E-02  0.1078803E+00
         21   -1    0    0  502  501  0.00000000000E+00  0.00000000000E+00  0.62549437359E+02  0.62549437359E+02  0.00000000000E+00 0. -1.
         21   -1    0    0  501  502 -0.00000000000E+00 -0.00000000000E+00 -0.15686678936E+04  0.15686678936E+04  0.00000000000E+00 0. -1.
         25    1    1    2    0    0  0.19163531721E+03  0.35642526592E+02 -0.90835547528E+03  0.93740554403E+03  0.12500000000E+03 0.  0.
         25    1    1    2    0    0 -0.16564055661E+03 -0.36136906423E+02 -0.27271667912E+03  0.34458969379E+03  0.12500000000E+03 0.  0.
         25    1    1    2    0    0 -0.25994760597E+02  0.49437983172E+00 -0.32504630180E+03  0.34922209309E+03  0.12500000000E+03 0.  0.
</event>
<event>
 5    0  0.5728184E-005  0.1950522E+03  0.7546771E-02  0.1153982E+00
         21   -1    0    0  502  501  0.00000000000E+00  0.00000000000E+00  0.70788917101E+03  0.70788917101E+03  0.00000000000E+00 0.  1.
         21   -1    0    0  501  502 -0.00000000000E+00 -0.00000000000E+00 -0.53744823372E+02  0.53744823372E+02  0.00000000000E+00 0.  1.
         25    1    1    2    0    0  0.17993684923E+02  0.12814029702E+02  0.23677535218E+03  0.26865505663E+03  0.12500000000E+03 0.  0.
         25    1    1    2    0    0 -0.37273499325E+02  0.16141999101E+02  0.18673573248E+03  0.22835304174E+03  0.12500000000E+03 0.  0.
         25    1    1    2    0    0  0.19279814401E+02 -0.28956028802E+02  0.23063326298E+03  0.26462589601E+03  0.12500000000E+03 0.  0.
</event>
<event>
 5    0  0.5728184E-005  0.2875394E+03  0.7546771E-02  0.1091641E+00
         21   -1    0    0  502  501  0.00000000000E+00  0.00000000000E+00  0.11478739887E+04  0.11478739887E+04  0.00000000000E+00 0. -1.
         21   -1    0    0  501  502 -0.00000000000E+00 -0.00000000000E+00 -0.72027874354E+02  0.72027874354E+02  0.00000000000E+00 0. -1.
         25    1    1    2    0    0 -0.70094615390E+02  0.22144320226E+02  0.13681508933E+03  0.19936648338E+03  0.12500000000E+03 0.  0.
         25    1    1    2    0    0  0.70841642419E+02  0.12835353361E+02  0.11000647062E+03  0.18141033095E+03  0.12500000000E+03 0.  0.
         25    1    1    2    0    0 -0.74702702973E+00 -0.34979673587E+02  0.82902455437E+03  0.83912504871E+03  0.12500000000E+03 0.  0.
</event>
<event>
 5    0  0.5728184E-005  0.2606599E+03  0.7546771E-02  0.1106747E+00
         21   -1    0    0  502  501  0.00000000000E+00  0.00000000000E+00  0.46095054159E+02  0.46095054159E+02  0.00000000000E+00 0. -1.
         21   -1    0    0  501  502 -0.00000000000E+00 -0.00000000000E+00 -0.14739886987E+04  0.14739886987E+04  0.00000000000E+00 0. -1.
         25    1    1    2    0    0 -0.12422685888E+03 -0.44142833246E+02 -0.38309071537E+03  0.42398631865E+03  0.12500000000E+03 0.  0.
         25    1    1    2    0    0  0.20854121247E+02  0.95975100778E+02 -0.44267067740E+03  0.47034927764E+03  0.12500000000E+03 0.  0.
         25    1    1    2    0    0  0.10337273763E+03 -0.51832267531E+02 -0.60213225179E+03  0.62574815660E+03  0.12500000000E+03 0.  0.
</event>
<event>
 5    0  0.5728184E-005  0.3194997E+03  0.7546771E-02  0.1075880E+00
         21   -1    0    0  502  501  0.00000000000E+00  0.00000000000E+00  0.30712793959E+03  0.30712793959E+03  0.00000000000E+00 0.  1.
         21   -1    0    0  501  502 -0.00000000000E+00 -0.00000000000E+00 -0.33236978794E+03  0.33236978794E+03  0.00000000000E+00 0.  1.
         25    1    1    2    0    0  0.15876727909E+03  0.51374648554E+02  0.68939807160E+02  0.21959986438E+03  0.12500000000E+03 0.  0.
         25    1    1    2    0    0 -0.28852203420E+02  0.16341674178E+02 -0.16942119132E+03  0.21313854655E+03  0.12500000000E+03 0.  0.
         25    1    1    2    0    0 -0.12991507567E+03 -0.67716322732E+02  0.75239535806E+02  0.20675931660E+03  0.12500000000E+03 0.  0.
</event>
<event>
 5    0  0.5728184E-005  0.2473099E+03  0.7546771E-02  0.1115017E+00
         21   -1    0    0  502  501  0.00000000000E+00  0.00000000000E+00  0.29004338972E+03  0.29004338972E+03  0.00000000000E+00 0. -1.
         21   -1    0    0  501  502 -0.00000000000E+00 -0.00000000000E+00 -0.21087261137E+03  0.21087261137E+03  0.00000000000E+00 0. -1.
         25    1    1    2    0    0  0.23526529294E+02  0.10187399693E+03 -0.33779226104E+02  0.16642669542E+03  0.12500000000E+03 0.  0.
         25    1    1    2    0    0  0.50974650811E+02 -0.10203711292E+03  0.56413735802E+02  0.17837459748E+03  0.12500000000E+03 0.  0.
         25    1    1    2    0    0 -0.74501180105E+02  0.16311598973E+00  0.56536268649E+02  0.15611470820E+03  0.12500000000E+03 0.  0.
</event>
<event>
 5    0  0.5728184E-005  0.2418868E+03  0.7546771E-02  0.1118542E+00
         21   -1    0    0  502  501  0.00000000000E+00  0.00000000000E+00  0.64368471881E+02  0.64368471881E+02  0.00000000000E+00 0.  1.
         21   -1    0    0  501  502 -0.00000000000E+00 -0.00000000000E+00 -0.90897339320E+03  0.90897339320E+03  0.00000000000E+00 0.  1.
         25    1    1    2    0    0  0.23059535423E+02 -0.40677151468E+02 -0.11482635267E+03  0.17605812703E+03  0.12500000000E+03 0.  0.
         25    1    1    2    0    0 -0.65632647039E+02 -0.14847109335E+02 -0.54665389927E+03  0.56478630171E+03  0.12500000000E+03 0.  0.
         25    1    1    2    0    0  0.42573111616E+02  0.55524260803E+02 -0.18312466938E+03  0.23249743634E+03  0.12500000000E+03 0.  0.
</event>
<event>
 5    0  0.5728184E-005  0.3550319E+03  0.7546771E-02  0.1060568E+00
         21   -1    0    0  502  501  0.00000000000E+00  0.00000000000E+00  0.88866325548E+03  0.88866325548E+03  0.00000000000E+00 0. -1.
         21   -1    0    0  501  502 -0.00000000000E+00 -0.00000000000E+00 -0.14183964015E+03  0.14183964015E+03  0.00000000000E+00 0. -1.
         25    1    1    2    0    0 -0.13668998203E+02 -0.47674502716E+02 -0.16442740065E+02  0.13548085998E+03  0.12500000000E+03 0.  0.
         25    1    1    2    0    0 -0.10538073670E+03 -0.74597444015E+02  0.60417953716E+03  0.63033942558E+03  0.12500000000E+03 0.  0.
         25    1    1    2    0    0  0.11904973490E+03  0.12227194673E+03  0.15908681824E+03  0.26468261007E+03  0.12500000000E+03 0.  0.
</event>
<event>
 5    0  0.5728184E-005  0.4051683E+03  0.7546771E-02  0.1042005E+00
         21   -1    0    0  502  501  0.00000000000E+00  0.00000000000E+00  0.22471789447E+03  0.22471789447E+03  0.00000000000E+00 0.  1.
         21   -1    0    0  501  502 -0.00000000000E+00 -0.00000000000E+00 -0.73052207098E+03  0.73052207098E+03  0.00000000000E+00 0.  1.
         25    1    1    2    0    0 -0.24657258594E+03 -0.22201322193E+03 -0.24989394913E+03  0.43377401566E+03  0.12500000000E+03 0.  0.
         25    1    1    2    0    0  0.34406637191E+02  0.23309096326E+02 -0.37419986767E+02  0.13693935177E+03  0.12500000000E+03 0.  0.
         25    1    1    2    0    0  0.21216594875E+03  0.19870412560E+03 -0.21849024062E+03  0.38452659802E+03  0.12500000000E+03 0.  0.
</event>
<event>
 5    0  0.5728184E-005  0.2710067E+03  0.7546771E-02  0.1100705E+00
         21   -1    0    0  502  501  0.00000000000E+00  0.00000000000E+00  0.24242171194E+03  0.24242171194E+03  0.00000000000E+00 0. -1.
         21   -1    0    0  501  502 -0.00000000000E+00 -0.00000000000E+00 -0.30296230889E+03  0.30296230889E+03  0.00000000000E+00 0. -1.
         25    1    1    2    0    0 -0.49162564354E+01 -0.46502489358E+02  0.18661924485E+02  0.13475874190E+03  0.12500000000E+03 0.  0.
         25    1    1    2    0    0 -0.85553059119E+02 -0.99924142198E+02 -0.78972646078E+02  0.19790361024E+03  0.12500000000E+03 0.  0.
         25    1    1    2    0    0  0.90469315554E+02  0.14642663156E+03 -0.22987535721E+00  0.21272166868E+03  0.12500000000E+03 0.  0.
</event>
<event>
 5    0  0.5728184E-005  0.2723480E+03  0.7546771E-02  0.1099943E+00
         21   -1    0    0  502  501  0.00000000000E+00  0.00000000000E+00  0.35067395263E+03  0.35067395263E+03  0.00000000000E+00 0.  1.
         21   -1    0    0  501  502 -0.00000000000E+00 -0.00000000000E+00 -0.21151680441E+03  0.21151680441E+03  0.00000000000E+00 0.  1.
         25    1    1    2    0    0  0.45639762750E+02 -0.41800516881E+02  0.86986108077E+02  0.16438325387E+03  0.12500000000E+03 0.  0.
         25    1    1    2    0    0  0.45108048287E+02 -0.10867504474E+03 -0.13999048039E+02  0.17223813374E+03  0.12500000000E+03 0.  0.
         25    1    1    2    0    0 -0.90747811037E+02  0.15047556162E+03  0.66170088177E+02  0.22556936942E+03  0.12500000000E+03 0.  0.
</event>
<event>
 5    0  0.5728184E-005  0.2492335E+03  0.7546771E-02  0.1113790E+00
         21   -1    0    0  502  501  0.00000000000E+00  0.00000000000E+00  0.29398887785E+03  0.29398887785E+03  0.00000000000E+00 0.  1.
         21   -1    0    0  501  502 -0.00000000000E+00 -0.00000000000E+00 -0.21129145142E+03  0.21129145142E+03  0.00000000000E+00 0.  1.
         25    1    1    2    0    0  0.36182608374E+02 -0.13078016194E+03 -0.38926188070E+02  0.18855471361E+03  0.12500000000E+03 0.  0.
         25    1    1    2    0    0 -0.39276785896E+01  0.96201840387E+02  0.52673010852E+02  0.16634201762E+03  0.12500000000E+03 0.  0.
         25    1    1    2    0    0 -0.32254929784E+02  0.34578321558E+02  0.68950603643E+02  0.15038359804E+03  0.12500000000E+03 0.  0.
</event>
<event>
 5    0  0.5728184E-005  0.3253659E+03  0.7546771E-02  0.1073206E+00
         21   -1    0    0  502  501  0.00000000000E+00  0.00000000000E+00  0.76802430829E+02  0.76802430829E+02  0.00000000000E+00 0. -1.
         21   -1    0    0  501  502 -0.00000000000E+00 -0.00000000000E+00 -0.13783803106E+04  0.13783803106E+04  0.00000000000E+00 0. -1.
         25    1    1    2    0    0  0.38522751315E+02 -0.18582010031E+03 -0.60830280254E+03  0.64936154153E+03  0.12500000000E+03 0.  0.
         25    1    1    2    0    0 -0.42168914425E+02  0.36999168421E+02 -0.71860574398E+02  0.15471295343E+03  0.12500000000E+03 0.  0.
         25    1    1    2    0    0  0.36461631094E+01  0.14882093189E+03 -0.62141450281E+03  0.65110824643E+03  0.12500000000E+03 0.  0.
</event>
<event>
 5    0  0.5728184E-005  0.2190869E+03  0.7546771E-02  0.1134566E+00
         21   -1    0    0  502  501  0.00000000000E+00  0.00000000000E+00  0.30955657122E+03  0.30955657122E+03  0.00000000000E+00 0.  1.
         21   -1    0    0  501  502 -0.00000000000E+00 -0.00000000000E+00 -0.15505750528E+03  0.15505750528E+03  0.00000000000E+00 0.  1.
         25    1    1    2    0    0 -0.16277225499E+02  0.75512119347E+02  0.92594312081E+02  0.17368285715E+03  0.12500000000E+03 0.  0.
         25    1    1    2    0    0  0.93289379057E+01 -0.76289762487E+01 -0.19206264479E+02  0.12703980068E+03  0.12500000000E+03 0.  0.
         25    1    1    2    0    0  0.69482875931E+01 -0.67883143098E+02  0.81111018340E+02  0.16389141867E+03  0.12500000000E+03 0.  0.
</event>
<event>
 5    0  0.5728184E-005  0.2679341E+03  0.7546771E-02  0.1102468E+00
         21   -1    0    0  502  501  0.00000000000E+00  0.00000000000E+00  0.38944911193E+03  0.38944911193E+03  0.00000000000E+00 0.  1.
         21   -1    0    0  501  502 -0.00000000000E+00 -0.00000000000E+00 -0.18433386535E+03  0.18433386535E+03  0.00000000000E+00 0.  1.
         25    1    1    2    0    0  0.87381607840E+02  0.90083100332E+01  0.19061944106E+03  0.24428971806E+03  0.12500000000E+03 0.  0.
         25    1    1    2    0    0 -0.73316981369E+02  0.44271134670E+02  0.87114973872E+02  0.17478367142E+03  0.12500000000E+03 0.  0.
         25    1    1    2    0    0 -0.14064626471E+02 -0.53279444704E+02 -0.72619168357E+02  0.15470958780E+03  0.12500000000E+03 0.  0.
</event>
<event>
 5    0  0.5802524E-005  0.7498571E+03  0.7546771E-02  0.9635575E-01
         21   -1    0    0  502  501  0.00000000000E+00  0.00000000000E+00  0.51409816081E+03  0.51409816081E+03  0.00000000000E+00 0. -1.
         21   -1    0    0  501  502 -0.00000000000E+00 -0.00000000000E+00 -0.10937319875E+04  0.10937319875E+04  0.00000000000E+00 0. -1.
         25    1    1    2    0    0 -0.16518489799E+03 -0.31376575094E+03 -0.11355218209E+03  0.39275195104E+03  0.12500000000E+03 0.  0.
         25    1    1    2    0    0  0.40592132638E+03  0.23470626320E+03 -0.69761028616E+03  0.84979071809E+03  0.12500000000E+03 0.  0.
         25    1    1    2    0    0 -0.24073642839E+03  0.79059487740E+02  0.23152864159E+03  0.36528747916E+03  0.12500000000E+03 0.  0.
</event>
<event>
 5    0  0.5728184E-005  0.3750066E+03  0.7546771E-02  0.1052795E+00
         21   -1    0    0  502  501  0.00000000000E+00  0.00000000000E+00  0.95449769985E+02  0.95449769985E+02  0.00000000000E+00 0. -1.
         21   -1    0    0  501  502 -0.00000000000E+00 -0.00000000000E+00 -0.14733398682E+04  0.14733398682E+04  0.00000000000E+00 0. -1.
         25    1    1    2    0    0  0.13108217238E+03 -0.20809566853E+03 -0.74384779935E+03  0.79336050555E+03  0.12500000000E+03 0.  0.
         25    1    1    2    0    0 -0.36595230412E+02 -0.35892074081E+02 -0.32337386279E+03  0.35046127747E+03  0.12500000000E+03 0.  0.
         25    1    1    2    0    0 -0.94486941967E+02  0.24398774261E+03 -0.31066843609E+03  0.42496785517E+03  0.12500000000E+03 0.  0.
</event>
<event>
 5    0  0.5728184E-005  0.2692247E+03  0.7546771E-02  0.1101724E+00
         21   -1    0    0  502  501  0.00000000000E+00  0.00000000000E+00  0.71210150062E+02  0.71210150062E+02  0.00000000000E+00 0. -1.
         21   -1    0    0  501  502 -0.00000000000E+00 -0.00000000000E+00 -0.10178597943E+04  0.10178597943E+04  0.00000000000E+00 0. -1.
         25    1    1    2    0    0 -0.34330954174E+02  0.88779106555E+02 -0.39849309435E+03  0.42834809492E+03  0.12500000000E+03 0.  0.
         25    1    1    2    0    0  0.37202551354E+02 -0.80400678966E+02 -0.50571937549E+03  0.52841781362E+03  0.12500000000E+03 0.  0.
         25    1    1    2    0    0 -0.28715971800E+01 -0.83784275886E+01 -0.42437174370E+02  0.13230403580E+03  0.12500000000E+03 0.  0.
</event>
<event>
 5    0  0.5728184E-005  0.3858470E+03  0.7546771E-02  0.1048794E+00
         21   -1    0    0  502  501  0.00000000000E+00  0.00000000000E+00  0.19648262966E+03  0.19648262966E+03  0.00000000000E+00 0. -1.
         21   -1    0    0  501  502 -0.00000000000E+00 -0.00000000000E+00 -0.75771542818E+03  0.75771542818E+03  0.00000000000E+00 0. -1.
         25    1    1    2    0    0 -0.17225891407E+03  0.17144032316E+03 -0.14813983262E+03  0.31086223298E+03  0.12500000000E+03 0.  0.
         25    1    1    2    0    0  0.16619263996E+03 -0.10904678312E+03 -0.31484111186E+02  0.23691231235E+03  0.12500000000E+03 0.  0.
         25    1    1    2    0    0  0.60662741133E+01 -0.62393540043E+02 -0.38160885471E+03  0.40642351250E+03  0.12500000000E+03 0.  0.
</event>
<event>
 5    0  0.5728184E-005  0.2862084E+03  0.7546771E-02  0.1092346E+00
         21   -1    0    0  502  501  0.00000000000E+00  0.00000000000E+00  0.35290938171E+03  0.35290938171E+03  0.00000000000E+00 0.  1.
         21   -1    0    0  501  502 -0.00000000000E+00 -0.00000000000E+00 -0.23211414058E+03  0.23211414058E+03  0.00000000000E+00 0.  1.
         25    1    1    2    0    0 -0.50315474132E+02 -0.62135241824E+01 -0.61143629988E+01  0.13502829427E+03  0.12500000000E+03 0.  0.
         25    1    1    2    0    0 -0.13063726953E+02  0.16672909476E+03  0.15060320183E+02  0.20933481614E+03  0.12500000000E+03 0.  0.
         25    1    1    2    0    0  0.63379201085E+02 -0.16051557058E+03  0.11184928395E+03  0.24066041189E+03  0.12500000000E+03 0.  0.
</event>
<event>
 5    0  0.5884340E-005  0.2895024E+03  0.7546771E-02  0.1090609E+00
         21   -1    0    0  502  501  0.00000000000E+00  0.00000000000E+00  0.28295757836E+03  0.28295757836E+03  0.00000000000E+00 0. -1.
         21   -1    0    0  501  502 -0.00000000000E+00 -0.00000000000E+00 -0.29619850168E+03  0.29619850168E+03  0.00000000000E+00 0. -1.
         25    1    1    2    0    0  0.83464559753E+02 -0.11195989901E+03  0.13455505127E+03  0.23071933934E+03  0.12500000000E+03 0.  0.
         25    1    1    2    0    0  0.80745026461E+01  0.85126176336E+02 -0.36473439824E+02  0.15577860990E+03  0.12500000000E+03 0.  0.
         25    1    1    2    0    0 -0.91539062399E+02  0.26833722675E+02 -0.11132253477E+03  0.19265813080E+03  0.12500000000E+03 0.  0.
</event>
<event>
 5    0  0.5728184E-005  0.3086474E+03  0.7546771E-02  0.1080996E+00
         21   -1    0    0  502  501  0.00000000000E+00  0.00000000000E+00  0.34649778666E+03  0.34649778666E+03  0.00000000000E+00 0.  1.
         21   -1    0    0  501  502 -0.00000000000E+00 -0.00000000000E+00 -0.27493175155E+03  0.27493175155E+03  0.00000000000E+00 0.  1.
         25    1    1    2    0    0 -0.66124019366E+02  0.21507317056E+03 -0.88531949716E+01  0.25755044883E+03  0.12500000000E+03 0.  0.
         25    1    1    2    0    0 -0.66289245281E+01 -0.87446552003E+02  0.76878622894E+02  0.17095661659E+03  0.12500000000E+03 0.  0.
         25    1    1    2    0    0  0.72752943894E+02 -0.12762661855E+03  0.35406071870E+01  0.19292247279E+03  0.12500000000E+03 0.  0.
</event>
<event>
 5    0  0.5728184E-005  0.3252268E+03  0.7546771E-02  0.1073269E+00
         21   -1    0    0  502  501  0.00000000000E+00  0.00000000000E+00  0.79952843083E+03  0.79952843083E+03  0.00000000000E+00 0. -1.
         21   -1    0    0  501  502 -0.00000000000E+00 -0.00000000000E+00 -0.13229359471E+03  0.13229359471E+03  0.00000000000E+00 0. -1.
         25    1    1    2    0    0  0.11741897642E+03 -0.85569483027E+02  0.91185036540E+02  0.21224764625E+03  0.12500000000E+03 0.  0.
         25    1    1    2    0    0 -0.14795765191E+03  0.17608595077E+03  0.43803989079E+03  0.51029567384E+03  0.12500000000E+03 0.  0.
         25    1    1    2    0    0  0.30538675492E+02 -0.90516467740E+02  0.13800990879E+03  0.20927870545E+03  0.12500000000E+03 0.  0.
</event>
<event>
 5    0  0.5728184E-005  0.5515996E+03  0.7546771E-02  0.1001124E+00
         21   -1    0    0  502  501  0.00000000000E+00  0.00000000000E+00  0.22115535147E+04  0.22115535147E+04  0.00000000000E+00 0. -1.
         21   -1    0    0  501  502 -0.00000000000E+00 -0.00000000000E+00 -0.13757846756E+03  0.13757846756E+03  0.00000000000E+00 0. -1.
         25    1    1    2    0    0  0.26382069458E+03 -0.15375919481E+03  0.29388406218E+03  0.44185528273E+03  0.12500000000E+03 0.  0.
         25    1    1    2    0    0 -0.20600376765E+03  0.18484408838E+03  0.32295612416E+03  0.44331765972E+03  0.12500000000E+03 0.  0.
         25    1    1    2    0    0 -0.57816926929E+02 -0.31084893564E+02  0.14571348608E+04  0.14639590398E+04  0.12500000000E+03 0.  0.
</event>
<event>
 5    0  0.5728184E-005  0.4019426E+03  0.7546771E-02  0.1043109E+00
         21   -1    0    0  502  501  0.00000000000E+00  0.00000000000E+00  0.26727827627E+03  0.26727827627E+03  0.00000000000E+00 0. -1.
         21   -1    0    0  501  502 -0.00000000000E+00 -0.00000000000E+00 -0.60445546455E+03  0.60445546455E+03  0.00000000000E+00 0. -1.
         25    1    1    2    0    0 -0.29780467946E+00 -0.10887665907E+03  0.61270521903E+02  0.17672943284E+03  0.12500000000E+03 0.  0.
         25    1    1    2    0    0 -0.44436618770E+02  0.16031803069E+03 -0.48543339649E+03  0.52815439644E+03  0.12500000000E+03 0.  0.
         25    1    1    2    0    0  0.44734423450E+02 -0.51441371622E+02  0.86985686313E+02  0.16684991153E+03  0.12500000000E+03 0.  0.
</event>
<event>
 5    0  0.5728184E-005  0.3417724E+03  0.7546771E-02  0.1066044E+00
         21   -1    0    0  502  501  0.00000000000E+00  0.00000000000E+00  0.16570037420E+04  0.16570037420E+04  0.00000000000E+00 0. -1.
         21   -1    0    0  501  502 -0.00000000000E+00 -0.00000000000E+00 -0.70493726374E+02  0.70493726374E+02  0.00000000000E+00 0. -1.
         25    1    1    2    0    0 -0.23448930105E+03  0.30049408094E+02  0.70599518592E+03  0.75494529721E+03  0.12500000000E+03 0.  0.
         25    1    1    2    0    0  0.23950489739E+03 -0.31066125618E+02  0.46573439863E+03  0.53931551999E+03  0.12500000000E+03 0.  0.
         25    1    1    2    0    0 -0.50155963339E+01  0.10167175240E+01  0.41478043110E+03  0.43323665120E+03  0.12500000000E+03 0.  0.
</event>
<event>
 5    0  0.5728184E-005  0.3139862E+03  0.7546771E-02  0.1078451E+00
         21   -1    0    0  502  501  0.00000000000E+00  0.00000000000E+00  0.86254342390E+02  0.86254342390E+02  0.00000000000E+00 0. -1.
         21   -1    0    0  501  502 -0.00000000000E+00 -0.00000000000E+00 -0.11429842851E+04  0.11429842851E+04  0.00000000000E+00 0. -1.
         25    1    1    2    0    0  0.26081618174E+02  0.35721207817E+02 -0.39781149554E+03  0.41932712943E+03  0.12500000000E+03 0.  0.
         25    1    1    2    0    0 -0.17951294988E+03  0.89913916165E+02 -0.32727870305E+03  0.40378925316E+03  0.12500000000E+03 0.  0.
         25    1    1    2    0    0  0.15343133170E+03 -0.12563512398E+03 -0.33163974412E+03  0.40612224491E+03  0.12500000000E+03 0.  0.
</event>
<event>
 5    0  0.5728184E-005  0.3413821E+03  0.7546771E-02  0.1066209E+00
         21   -1    0    0  502  501  0.00000000000E+00  0.00000000000E+00  0.97423159455E+03  0.97423159455E+03  0.00000000000E+00 0.  1.
         21   -1    0    0  501  502 -0.00000000000E+00 -0.00000000000E+00 -0.11962426748E+03  0.11962426748E+03  0.00000000000E+00 0.  1.
         25    1    1    2    0    0  0.10228573489E+02  0.80234441474E+02  0.37790645387E+03  0.40617788860E+03  0.12500000000E+03 0.  0.
         25    1    1    2    0    0 -0.20734499289E+02 -0.48156930393E+02 -0.50619860688E+02  0.14469409007E+03  0.12500000000E+03 0.  0.
         25    1    1    2    0    0  0.10505925800E+02 -0.32077511081E+02  0.52732073389E+03  0.54298388335E+03  0.12500000000E+03 0.  0.
</event>
<event>
 5    0  0.5728184E-005  0.1937899E+03  0.7546771E-02  0.1155087E+00
         21   -1    0    0  502  501  0.00000000000E+00  0.00000000000E+00  0.35487828066E+03  0.35487828066E+03  0.00000000000E+00 0.  1.
         21   -1    0    0  501  502 -0.00000000000E+00 -0.00000000000E+00 -0.10582366150E+03  0.10582366150E+03  0.00000000000E+00 0.  1.
         25    1    1    2    0    0 -0.57963311316E+01  0.91511780641E+01  0.57696020006E+02  0.13809841505E+03  0.12500000000E+03 0.  0.
         25    1    1    2    0    0 -0.73275207000E+01 -0.76399574303E+00  0.13642901927E+03  0.18518140713E+03  0.12500000000E+03 0.  0.
         25    1    1    2    0    0  0.13123851832E+02 -0.83871823211E+01  0.54929579887E+02  0.13742211998E+03  0.12500000000E+03 0.  0.
</event>
<event>
 5    0  0.5728184E-005  0.5065600E+03  0.7546771E-02  0.1012081E+00
         21   -1    0    0  502  501  0.00000000000E+00  0.00000000000E+00  0.39478136485E+03  0.39478136485E+03  0.00000000000E+00 0. -1.
         21   -1    0    0  501  502 -0.00000000000E+00 -0.00000000000E+00 -0.64998762741E+03  0.64998762741E+03  0.00000000000E+00 0. -1.
         25    1    1    2    0    0  0.16020663326E+03 -0.18721899619E+02 -0.39627371594E+02  0.20787497070E+03  0.12500000000E+03 0.  0.
         25    1    1    2    0    0 -0.46088740928E+03  0.23134767440E+02 -0.82836155130E+02  0.48522082612E+03  0.12500000000E+03 0.  0.
         25    1    1    2    0    0  0.30068077602E+03 -0.44128678207E+01 -0.13274273585E+03  0.35167319544E+03  0.12500000000E+03 0.  0.
</event>
<event>
 5    0  0.5728184E-005  0.4268758E+03  0.7546771E-02  0.1034851E+00
         21   -1    0    0  502  501  0.00000000000E+00  0.00000000000E+00  0.17891233345E+03  0.17891233345E+03  0.00000000000E+00 0.  1.
         21   -1    0    0  501  502 -0.00000000000E+00 -0.00000000000E+00 -0.10185042697E+04  0.10185042697E+04  0.00000000000E+00 0.  1.
         25    1    1    2    0    0  0.48250504973E+02 -0.98065319631E+02 -0.30860780847E+03  0.35044071908E+03  0.12500000000E+03 0.  0.
         25    1    1    2    0    0 -0.28539514615E+02 -0.16448269191E+03 -0.51437973117E+03  0.55505005871E+03  0.12500000000E+03 0.  0.
         25    1    1    2    0    0 -0.19710990358E+02  0.26254801154E+03 -0.16604396586E+02  0.29192582533E+03  0.12500000000E+03 0.  0.
</event>
<event>
 5    0  0.5728184E-005  0.3588241E+03  0.7546771E-02  0.1059050E+00
         21   -1    0    0  502  501  0.00000000000E+00  0.00000000000E+00  0.22050392348E+03  0.22050392348E+03  0.00000000000E+00 0.  1.
         21   -1    0    0  501  502 -0.00000000000E+00 -0.00000000000E+00 -0.58391124334E+03  0.58391124334E+03  0.00000000000E+00 0.  1.
         25    1    1    2    0    0 -0.88409100259E+02  0.72783721695E+01 -0.14036327934E+03  0.20783645950E+03  0.12500000000E+03 0.  0.
         25    1    1    2    0    0  0.24913010425E+03  0.87023517757E+02 -0.17895905306E+02  0.29254771391E+03  0.12500000000E+03 0.  0.
         25    1    1    2    0    0 -0.16072100399E+03 -0.94301889926E+02 -0.20514813521E+03  0.30403099340E+03  0.12500000000E+03 0.  0.
</event>
<event>
 5    0  0.5728184E-005  0.2600576E+03  0.7546771E-02  0.1107109E+00
         21   -1    0    0  502  501  0.00000000000E+00  0.00000000000E+00  0.21156318196E+04  0.21156318196E+04  0.00000000000E+00 0. -1.
         21   -1    0    0  501  502 -0.00000000000E+00 -0.00000000000E+00 -0.31966784708E+02  0.31966784708E+02  0.00000000000E+00 0. -1.
         25    1    1    2    0    0  0.95131692171E+02 -0.76649674532E+02  0.51255281495E+03  0.54153540935E+03  0.12500000000E+03 0.  0.
         25    1    1    2    0    0 -0.12051674577E+02 -0.50105357108E+02  0.56521669197E+03  0.58116322884E+03  0.12500000000E+03 0.  0.
         25    1    1    2    0    0 -0.83080017595E+02  0.12675503164E+03  0.10058955280E+04  0.10248999661E+04  0.12500000000E+03 0.  0.
</event>
<event>
 5    0  0.5728184E-005  0.3523360E+03  0.7546771E-02  0.1061660E+00
         21   -1    0    0  502  501  0.00000000000E+00  0.00000000000E+00  0.11631962052E+03  0.11631962052E+03  0.00000000000E+00 0.  1.
         21   -1    0    0  501  502 -0.00000000000E+00 -0.00000000000E+00 -0.10672374985E+04  0.10672374985E+04  0.00000000000E+00 0.  1.
         25    1    1    2    0    0  0.12230170825E+02  0.17853420134E+03 -0.15273991399E+03  0.26641794131E+03  0.12500000000E+03 0.  0.
         25    1    1    2    0    0  0.39673030813E+02 -0.22850351269E+03 -0.30374938215E+03  0.40209015388E+03  0.12500000000E+03 0.  0.
         25    1    1    2    0    0 -0.51903201638E+02  0.49969311356E+02 -0.49442858186E+03  0.51504902386E+03  0.12500000000E+03 0.  0.
</event>
<event>
 5    0  0.5728184E-005  0.4310529E+03  0.7546771E-02  0.1033528E+00
         21   -1    0    0  502  501  0.00000000000E+00  0.00000000000E+00  0.11427080281E+04  0.11427080281E+04  0.00000000000E+00 0. -1.
         21   -1    0    0  501  502 -0.00000000000E+00 -0.00000000000E+00 -0.16260198426E+03  0.16260198426E+03  0.00000000000E+00 0. -1.
         25    1    1    2    0    0 -0.12670596433E+03  0.45772690564E+02  0.50481381811E+03  0.53722577335E+03  0.12500000000E+03 0.  0.
         25    1    1    2    0    0 -0.15052953613E+03  0.12963816295E+03  0.28344781382E+03  0.36801203473E+03  0.12500000000E+03 0.  0.
         25    1    1    2    0    0  0.27723550046E+03 -0.17541085352E+03  0.19184441187E+03  0.40007220425E+03  0.12500000000E+03 0.  0.
</event>
<event>
 5    0  0.5728184E-005  0.4929675E+03  0.7546771E-02  0.1015631E+00
         21   -1    0    0  502  501  0.00000000000E+00  0.00000000000E+00  0.17025764938E+03  0.17025764938E+03  0.00000000000E+00 0. -1.
         21   -1    0    0  501  502 -0.00000000000E+00 -0.00000000000E+00 -0.14273481918E+04  0.14273481918E+04  0.00000000000E+00 0. -1.
         25    1    1    2    0    0 -0.18473557789E+03  0.17711596240E+03 -0.16417326215E+02  0.28529252790E+03  0.12500000000E+03 0.  0.
         25    1    1    2    0    0  0.11000920660E+03 -0.94947886816E+02 -0.29387579820E+03  0.35086338013E+03  0.12500000000E+03 0.  0.
         25    1    1    2    0    0  0.74726371298E+02 -0.82168075587E+02 -0.94679741805E+03  0.96144993320E+03  0.12500000000E+03 0.  0.
</event>
<event>
 5    0  0.5728184E-005  0.3091197E+03  0.7546771E-02  0.1080769E+00
         21   -1    0    0  502  501  0.00000000000E+00  0.00000000000E+00  0.80285480549E+03  0.80285480549E+03  0.00000000000E+00 0. -1.
         21   -1    0    0  501  502 -0.00000000000E+00 -0.00000000000E+00 -0.11901900206E+03  0.11901900206E+03  0.00000000000E+00 0. -1.
         25    1    1    2    0    0 -0.18302165002E+03  0.61346147447E+02  0.22826222705E+03  0.32401993531E+03  0.12500000000E+03 0.  0.
         25    1    1    2    0    0  0.57567806299E+02 -0.68395885259E+01  0.41007550657E+02  0.14376178736E+03  0.12500000000E+03 0.  0.
         25    1    1    2    0    0  0.12545384372E+03 -0.54506558921E+02  0.41456602573E+03  0.45409208489E+03  0.12500000000E+03 0.  0.
</event>
<event>
 5    0  0.5728184E-005  0.3353698E+03  0.7546771E-02  0.1068785E+00
         21   -1    0    0  502  501  0.00000000000E+00  0.00000000000E+00  0.81384011382E+03  0.81384011382E+03  0.00000000000E+00 0. -1.
         21   -1    0    0  501  502 -0.00000000000E+00 -0.00000000000E+00 -0.13820020624E+03  0.13820020624E+03  0.00000000000E+00 0. -1.
         25    1    1    2    0    0 -0.11523019367E+03 -0.88384711121E+02  0.96765732506E+02  0.21465894270E+03  0.12500000000E+03 0.  0.
         25    1    1    2    0    0  0.20928404212E+03  0.41179398197E+02  0.49592708881E+03  0.55413376592E+03  0.12500000000E+03 0.  0.
         25    1    1    2    0    0 -0.94053848452E+02  0.47205312924E+02  0.82947086269E+02  0.18324761144E+03  0.12500000000E+03 0.  0.
</event>
<event>
 5    0  0.5728184E-005  0.2666976E+03  0.7546771E-02  0.1103185E+00
         21   -1    0    0  502  501  0.00000000000E+00  0.00000000000E+00  0.27954925356E+03  0.27954925356E+03  0.00000000000E+00 0.  1.
         21   -1    0    0  501  502 -0.00000000000E+00 -0.00000000000E+00 -0.25443684316E+03  0.25443684316E+03  0.00000000000E+00 0.  1.
         25    1    1    2    0    0  0.33679576743E+02 -0.79611627065E+02 -0.10585963960E+02  0.15234627559E+03  0.12500000000E+03 0.  0.
         25    1    1    2    0    0 -0.12707324037E+03  0.37761312117E+02 -0.62451340751E+02  0.19261021539E+03  0.12500000000E+03 0.  0.
         25    1    1    2    0    0  0.93393663628E+02  0.41850314948E+02  0.98149715110E+02  0.18902960573E+03  0.12500000000E+03 0.  0.
</event>
<event>
 5    0  0.5728184E-005  0.2943968E+03  0.7546771E-02  0.1088076E+00
         21   -1    0    0  502  501  0.00000000000E+00  0.00000000000E+00  0.86955741344E+03  0.86955741344E+03  0.00000000000E+00 0.  1.
         21   -1    0    0  501  502 -0.00000000000E+00 -0.00000000000E+00 -0.99670818960E+02  0.99670818960E+02  0.00000000000E+00 0.  1.
         25    1    1    2    0    0 -0.16506361777E+03  0.84345405192E+02  0.33720684431E+03  0.40459065874E+03  0.12500000000E+03 0.  0.
         25    1    1    2    0    0  0.17804632802E+03 -0.31074505545E+02  0.21322126747E+03  0.30619344983E+03  0.12500000000E+03 0.  0.
         25    1    1    2    0    0 -0.12982710250E+02 -0.53270899647E+02  0.21945848270E+03  0.25844412384E+03  0.12500000000E+03 0.  0.
</event>
<event>
 5    0  0.5728184E-005  0.3663160E+03  0.7546771E-02  0.1056111E+00
         21   -1    0    0  502  501  0.00000000000E+00  0.00000000000E+00  0.15407652435E+03  0.15407652435E+03  0.00000000000E+00 0.  1.
         21   -1    0    0  501  502 -0.00000000000E+00 -0.00000000000E+00 -0.87091421658E+03  0.87091421658E+03  0.00000000000E+00 0.  1.
         25    1    1    2    0    0 -0.14368573562E+03 -0.11970727045E+03 -0.21824064456E+03  0.31341569865E+03  0.12500000000E+03 0.  0.
         25    1    1    2    0    0  0.12233320399E+03 -0.13177552917E+03 -0.27758420749E+03  0.35356498008E+03  0.12500000000E+03 0.  0.
         25    1    1    2    0    0  0.21352531636E+02  0.25148279962E+03 -0.22101284017E+03  0.35801006220E+03  0.12500000000E+03 0.  0.
</event>
<event>
 5    0  0.5728184E-005  0.2428448E+03  0.7546771E-02  0.1117912E+00
         21   -1    0    0  502  501  0.00000000000E+00  0.00000000000E+00  0.61715996266E+02  0.61715996266E+02  0.00000000000E+00 0. -1.
         21   -1    0    0  501  502 -0.00000000000E+00 -0.00000000000E+00 -0.95556441896E+03  0.95556441896E+03  0.00000000000E+00 0. -1.
         25    1    1    2    0    0 -0.72956041663E+01 -0.14307095634E+02 -0.81375755033E+02  0.15001644021E+03  0.12500000000E+03 0.  0.
         25    1    1    2    0    0  0.47233725162E+02  0.80694507624E+02 -0.40224793477E+03  0.43147540994E+03  0.12500000000E+03 0.  0.
         25    1    1    2    0    0 -0.39938120995E+02 -0.66387411990E+02 -0.41022473289E+03  0.43578856508E+03  0.12500000000E+03 0.  0.
</event>
<event>
 5    0  0.6593890E-005  0.2708030E+03  0.7546771E-02  0.1100821E+00
         21   -1    0    0  502  501  0.00000000000E+00  0.00000000000E+00  0.33244611607E+03  0.33244611607E+03  0.00000000000E+00 0. -1.
         21   -1    0    0  501  502 -0.00000000000E+00 -0.00000000000E+00 -0.22058985128E+03  0.22058985128E+03  0.00000000000E+00 0. -1.
         25    1    1    2    0    0  0.47135332453E+02 -0.31366274447E+02  0.14655518372E+03  0.20077102534E+03  0.12500000000E+03 0.  0.
         25    1    1    2    0    0  0.12342860032E+02  0.76074007085E+02  0.79808087097E+02  0.16713447135E+03  0.12500000000E+03 0.  0.
         25    1    1    2    0    0 -0.59478192485E+02 -0.44707732638E+02 -0.11450700602E+03  0.18513047066E+03  0.12500000000E+03 0.  0.
</event>
<event>
 5    0  0.5728184E-005  0.2424667E+03  0.7546771E-02  0.1118160E+00
         21   -1    0    0  502  501  0.00000000000E+00  0.00000000000E+00  0.69996798701E+03  0.69996798701E+03  0.00000000000E+00 0.  1.
         21   -1    0    0  501  502 -0.00000000000E+00 -0.00000000000E+00 -0.83989695874E+02  0.83989695874E+02  0.00000000000E+00 0.  1.
         25    1    1    2    0    0 -0.10527076386E+03  0.54440987429E+02  0.14323512389E+03  0.22402467621E+03  0.12500000000E+03 0.  0.
         25    1    1    2    0    0  0.33567587281E+02  0.17184809636E+02  0.14702522591E+03  0.19663040876E+03  0.12500000000E+03 0.  0.
         25    1    1    2    0    0  0.71703176576E+02 -0.71625797065E+02  0.32571794134E+03  0.36330259791E+03  0.12500000000E+03 0.  0.
</event>
<event>
 5    0  0.5728184E-005  0.3202313E+03  0.7546771E-02  0.1075543E+00
         21   -1    0    0  502  501  0.00000000000E+00  0.00000000000E+00  0.14063394520E+03  0.14063394520E+03  0.00000000000E+00 0.  1.
         21   -1    0    0  501  502 -0.00000000000E+00 -0.00000000000E+00 -0.72918424687E+03  0.72918424687E+03  0.00000000000E+00 0.  1.
         25    1    1    2    0    0  0.54883818000E+02 -0.13593726195E+03  0.18369079807E+02  0.19352931499E+03  0.12500000000E+03 0.  0.
         25    1    1    2    0    0  0.78146786357E+01  0.58772306854E+02 -0.29651243836E+03  0.32720006015E+03  0.12500000000E+03 0.  0.
         25    1    1    2    0    0 -0.62698496636E+02  0.77164955099E+02 -0.31040694312E+03  0.34908881694E+03  0.12500000000E+03 0.  0.
</event>
<event>
 5    0  0.5728184E-005  0.3026048E+03  0.7546771E-02  0.1083946E+00
         21   -1    0    0  502  501  0.00000000000E+00  0.00000000000E+00  0.80038214125E+03  0.80038214125E+03  0.00000000000E+00 0.  1.
         21   -1    0    0  501  502 -0.00000000000E+00 -0.00000000000E+00 -0.11440740292E+03  0.11440740292E+03  0.00000000000E+00 0.  1.
         25    1    1    2    0    0 -0.66703035973E+02  0.22458590958E+02  0.18882857971E+03  0.23713902216E+03  0.12500000000E+03 0.  0.
         25    1    1    2    0    0 -0.11358066829E+02  0.67356066694E+02 -0.91581217765E+01  0.14274003152E+03  0.12500000000E+03 0.  0.
         25    1    1    2    0    0  0.78061102802E+02 -0.89814657652E+02  0.50630428038E+03  0.53491049049E+03  0.12500000000E+03 0.  0.
</event>
<event>
 5    0  0.5728184E-005  0.4225723E+03  0.7546771E-02  0.1036232E+00
         21   -1    0    0  502  501  0.00000000000E+00  0.00000000000E+00  0.27358364259E+03  0.27358364259E+03  0.00000000000E+00 0.  1.
         21   -1    0    0  501  502 -0.00000000000E+00 -0.00000000000E+00 -0.65269746286E+03  0.65269746286E+03  0.00000000000E+00 0. -1.
         25    1    1    2    0    0 -0.44760035288E+02  0.13077240389E+03 -0.27042920672E+03  0.32842326078E+03  0.12500000000E+03 0.  0.
         25    1    1    2    0    0 -0.34300247424E+02  0.55055281580E+02 -0.27428241221E+03  0.30832358432E+03  0.12500000000E+03 0.  0.
         25    1    1    2    0    0  0.79060282712E+02 -0.18582768547E+03  0.16559779866E+03  0.28953426034E+03  0.12500000000E+03 0.  0.
</event>
<event>
 5    0  0.5728184E-005  0.3030908E+03  0.7546771E-02  0.1083706E+00
         21   -1    0    0  502  501  0.00000000000E+00  0.00000000000E+00  0.25373648667E+03  0.25373648667E+03  0.00000000000E+00 0. -1.
         21   -1    0    0  501  502 -0.00000000000E+00 -0.00000000000E+00 -0.36204502322E+03  0.36204502322E+03  0.00000000000E+00 0. -1.
         25    1    1    2    0    0  0.95212170863E+02  0.61471614088E+02 -0.29158431101E+02  0.17122888461E+03  0.12500000000E+03 0.  0.
         25    1    1    2    0    0  0.84278181426E+02  0.72776853348E+02 -0.85204391068E+02  0.18784054542E+03  0.12500000000E+03 0.  0.
         25    1    1    2    0    0 -0.17949035229E+03 -0.13424846744E+03  0.60542856147E+01  0.25671207986E+03  0.12500000000E+03 0.  0.
</event>
<event>
 5    0  0.7342724E-005  0.3130493E+03  0.7546771E-02  0.1078893E+00
         21   -1    0    0  502  501  0.00000000000E+00  0.00000000000E+00  0.48458564840E+03  0.48458564840E+03  0.00000000000E+00 0.  1.
         21   -1    0    0  501  502 -0.00000000000E+00 -0.00000000000E+00 -0.20223439930E+03  0.20223439930E+03  0.00000000000E+00 0.  1.
         25    1    1    2    0    0 -0.17642136678E+02 -0.12967167545E+03  0.79410642913E+02  0.19762853693E+03  0.12500000000E+03 0.  0.
         25    1    1    2    0    0 -0.10874195605E+03 -0.10506740701E+02 -0.25060443313E+02  0.16789350918E+03  0.12500000000E+03 0.  0.
         25    1    1    2    0    0  0.12638409273E+03  0.14017841616E+03  0.22800104950E+03  0.32129800158E+03  0.12500000000E+03 0.  0.
</event>
<event>
 5    0  0.5728184E-005  0.6054387E+03  0.7546771E-02  0.9894186E-01
         21   -1    0    0  502  501  0.00000000000E+00  0.00000000000E+00  0.16972729736E+04  0.16972729736E+04  0.00000000000E+00 0. -1.
         21   -1    0    0  501  502 -0.00000000000E+00 -0.00000000000E+00 -0.21596765908E+03  0.21596765908E+03  0.00000000000E+00 0. -1.
         25    1    1    2    0    0 -0.21923219568E+03  0.17367799638E+03  0.11759373685E+04  0.12151874328E+04  0.12500000000E+03 0.  0.
         25    1    1    2    0    0 -0.11164634968E+03 -0.14440242899E+03  0.25821092597E+03  0.34002183928E+03  0.12500000000E+03 0.  0.
         25    1    1    2    0    0  0.33087854537E+03 -0.29275567391E+02  0.47157019965E+02  0.35803136059E+03  0.12500000000E+03 0.  0.
</event>
<event>
 5    0  0.5728184E-005  0.3295302E+03  0.7546771E-02  0.1071345E+00
         21   -1    0    0  502  501  0.00000000000E+00  0.00000000000E+00  0.25720483804E+03  0.25720483804E+03  0.00000000000E+00 0.  1.
         21   -1    0    0  501  502 -0.00000000000E+00 -0.00000000000E+00 -0.42219325257E+03  0.42219325257E+03  0.00000000000E+00 0.  1.
         25    1    1    2    0    0 -0.16206637936E+03  0.13977957650E+03 -0.84462232840E+02  0.26184482065E+03  0.12500000000E+03 0.  0.
         25    1    1    2    0    0  0.10354562753E+03  0.54531809874E+02 -0.39082360169E+02  0.17563554921E+03  0.12500000000E+03 0.  0.
         25    1    1    2    0    0  0.58520751829E+02 -0.19431138637E+03 -0.41443821520E+02  0.24191772075E+03  0.12500000000E+03 0.  0.
</event>
<event>
 5    0  0.5728184E-005  0.2305723E+03  0.7546771E-02  0.1126238E+00
         21   -1    0    0  502  501  0.00000000000E+00  0.00000000000E+00  0.84972709206E+02  0.84972709206E+02  0.00000000000E+00 0. -1.
         21   -1    0    0  501  502 -0.00000000000E+00 -0.00000000000E+00 -0.62565499851E+03  0.62565499851E+03  0.00000000000E+00 0. -1.
         25    1    1    2    0    0  0.90415173385E+02 -0.68163800736E+02 -0.23543906924E+03  0.28961657866E+03  0.12500000000E+03 0.  0.
         25    1    1    2    0    0 -0.26946810494E+00  0.47298685028E+02 -0.15662684064E+03  0.20589853187E+03  0.12500000000E+03 0.  0.
         25    1    1    2    0    0 -0.90145705280E+02  0.20865115707E+02 -0.14861637942E+03  0.21511259718E+03  0.12500000000E+03 0.  0.
</event>
<event>
 5    0  0.5728184E-005  0.3298606E+03  0.7546771E-02  0.1071199E+00
         21   -1    0    0  502  501  0.00000000000E+00  0.00000000000E+00  0.92102333993E+03  0.92102333993E+03  0.00000000000E+00 0.  1.
         21   -1    0    0  501  502 -0.00000000000E+00 -0.00000000000E+00 -0.11813816441E+03  0.11813816441E+03  0.00000000000E+00 0.  1.
         25    1    1    2    0    0 -0.21990954207E+03 -0.77588589177E+02  0.20158567470E+03  0.33262889247E+03  0.12500000000E+03 0.  0.
         25    1    1    2    0    0  0.11947465750E+03  0.52243688942E+00  0.18196766404E+03  0.25102130882E+03  0.12500000000E+03 0.  0.
         25    1    1    2    0    0  0.10043488457E+03  0.77066152287E+02  0.41933183677E+03  0.45551130304E+03  0.12500000000E+03 0.  0.
</event>
<event>
 5    0  0.5728184E-005  0.2652042E+03  0.7546771E-02  0.1104056E+00
         21   -1    0    0  502  501  0.00000000000E+00  0.00000000000E+00  0.25931028861E+03  0.25931028861E+03  0.00000000000E+00 0. -1.
         21   -1    0    0  501  502 -0.00000000000E+00 -0.00000000000E+00 -0.27123212742E+03  0.27123212742E+03  0.00000000000E+00 0. -1.
         25    1    1    2    0    0 -0.24068795849E+02 -0.12609611972E+03 -0.41034158412E+02  0.18381605071E+03  0.12500000000E+03 0.  0.
         25    1    1    2    0    0 -0.54447794095E+02  0.47701437595E+02 -0.61050340697E+02  0.15681879202E+03  0.12500000000E+03 0.  0.
         25    1    1    2    0    0  0.78516589944E+02  0.78394682130E+02  0.90162660304E+02  0.18990757330E+03  0.12500000000E+03 0.  0.
</event>
<event>
 5    0  0.5728184E-005  0.2689431E+03  0.7546771E-02  0.1101886E+00
         21   -1    0    0  502  501  0.00000000000E+00  0.00000000000E+00  0.84066611272E+02  0.84066611272E+02  0.00000000000E+00 0. -1.
         21   -1    0    0  501  502 -0.00000000000E+00 -0.00000000000E+00 -0.86039393199E+03  0.86039393199E+03  0.00000000000E+00 0. -1.
         25    1    1    2    0    0  0.10975129592E+03 -0.68437287919E+02 -0.43707641531E+03  0.47264130390E+03  0.12500000000E+03 0.  0.
         25    1    1    2    0    0  0.20168785697E+02  0.73488157931E+02 -0.17173597850E+03  0.22566686860E+03  0.12500000000E+03 0.  0.
         25    1    1    2    0    0 -0.12992008161E+03 -0.50508700118E+01 -0.16751492691E+03  0.24615237076E+03  0.12500000000E+03 0.  0.
</event>
<event>
 5    0  0.5728184E-005  0.2958607E+03  0.7546771E-02  0.1087328E+00
         21   -1    0    0  502  501  0.00000000000E+00  0.00000000000E+00  0.42103312763E+03  0.42103312763E+03  0.00000000000E+00 0. -1.
         21   -1    0    0  501  502 -0.00000000000E+00 -0.00000000000E+00 -0.20790187882E+03  0.20790187882E+03  0.00000000000E+00 0. -1.
         25    1    1    2    0    0  0.17875396085E+03 -0.71772971940E+02  0.18489844228E+03  0.29481650560E+03  0.12500000000E+03 0.  0.
         25    1    1    2    0    0 -0.98073263816E+02  0.81736106515E+02 -0.13778264505E+02  0.17920378555E+03  0.12500000000E+03 0.  0.
         25    1    1    2    0    0 -0.80680697031E+02 -0.99631345748E+01  0.42011071035E+02  0.15491471529E+03  0.12500000000E+03 0.  0.
</event>
<event>
 5    0  0.5728184E-005  0.3393822E+03  0.7546771E-02  0.1067059E+00
         21   -1    0    0  502  501  0.00000000000E+00  0.00000000000E+00  0.61369117431E+02  0.61369117431E+02  0.00000000000E+00 0. -1.
         21   -1    0    0  501  502 -0.00000000000E+00 -0.00000000000E+00 -0.18768447691E+04  0.18768447691E+04  0.00000000000E+00 0. -1.
         25    1    1    2    0    0 -0.12707409761E+02 -0.68072727452E+02 -0.14967981380E+03  0.20694062227E+03  0.12500000000E+03 0.  0.
         25    1    1    2    0    0 -0.65348636519E+01 -0.16298984881E+03 -0.63929914228E+03  0.67151827122E+03  0.12500000000E+03 0.  0.
         25    1    1    2    0    0  0.19242273413E+02  0.23106257626E+03 -0.10264966956E+04  0.10597549931E+04  0.12500000000E+03 0.  0.
</event>
<event>
 5    0  0.5728184E-005  0.2993853E+03  0.7546771E-02  0.1085548E+00
         21   -1    0    0  502  501  0.00000000000E+00  0.00000000000E+00  0.76261806024E+02  0.76261806024E+02  0.00000000000E+00 0.  1.
         21   -1    0    0  501  502 -0.00000000000E+00 -0.00000000000E+00 -0.11753139543E+04  0.11753139543E+04  0.00000000000E+00 0.  1.
         25    1    1    2    0    0 -0.64858918924E+02  0.43476673297E+02 -0.28879407152E+03  0.32422818543E+03  0.12500000000E+03 0.  0.
         25    1    1    2    0    0  0.19970260257E+03  0.55561841775E+02 -0.44704747511E+03  0.50837455949E+03  0.12500000000E+03 0.  0.
         25    1    1    2    0    0 -0.13484368364E+03 -0.99038515072E+02 -0.36321060164E+03  0.41897301540E+03  0.12500000000E+03 0.  0.
</event>
<event>
 5    0  0.5728184E-005  0.3240613E+03  0.7546771E-02  0.1073795E+00
         21   -1    0    0  502  501  0.00000000000E+00  0.00000000000E+00  0.41708172098E+03  0.41708172098E+03  0.00000000000E+00 0. -1.
         21   -1    0    0  501  502 -0.00000000000E+00 -0.00000000000E+00 -0.25178693345E+03  0.25178693345E+03  0.00000000000E+00 0. -1.
         25    1    1    2    0    0 -0.81022632744E+02  0.19255739861E+03  0.63565690413E+02  0.25161203424E+03  0.12500000000E+03 0.  0.
         25    1    1    2    0    0 -0.47352605088E+02 -0.10674424209E+03  0.13229742843E+03  0.21625034566E+03  0.12500000000E+03 0.  0.
         25    1    1    2    0    0  0.12837523783E+03 -0.85813156518E+02 -0.30568331313E+02  0.20100627453E+03  0.12500000000E+03 0.  0.
</event>
<event>
 5    0  0.5728184E-005  0.2668005E+03  0.7546771E-02  0.1103125E+00
         21   -1    0    0  502  501  0.00000000000E+00  0.00000000000E+00  0.37988412255E+03  0.37988412255E+03  0.00000000000E+00 0.  1.
         21   -1    0    0  501  502 -0.00000000000E+00 -0.00000000000E+00 -0.18737958848E+03  0.18737958848E+03  0.00000000000E+00 0.  1.
         25    1    1    2    0    0 -0.76031103359E+02 -0.50350766620E+02 -0.68714428871E+01  0.15488106761E+03  0.12500000000E+03 0.  0.
         25    1    1    2    0    0  0.13543079848E+03 -0.41323969279E+02  0.68221335207E+02  0.20081912805E+03  0.12500000000E+03 0.  0.
         25    1    1    2    0    0 -0.59399695123E+02  0.91674735899E+02  0.13115464175E+03  0.21156351537E+03  0.12500000000E+03 0.  0.
</event>
<event>
 5    0  0.5728184E-005  0.4243997E+03  0.7546771E-02  0.1035644E+00
         21   -1    0    0  502  501  0.00000000000E+00  0.00000000000E+00  0.51666492093E+03  0.51666492093E+03  0.00000000000E+00 0. -1.
         21   -1    0    0  501  502 -0.00000000000E+00 -0.00000000000E+00 -0.34861106311E+03  0.34861106311E+03  0.00000000000E+00 0. -1.
         25    1    1    2    0    0 -0.21233875177E+03  0.75661131839E+02  0.17684089459E+03  0.31258607515E+03  0.12500000000E+03 0.  0.
         25    1    1    2    0    0  0.18346131742E+03 -0.16901452826E+03  0.15951240839E+03  0.32139255465E+03  0.12500000000E+03 0.  0.
         25    1    1    2    0    0  0.28877434346E+02  0.93353396423E+02 -0.16829944517E+03  0.23129735425E+03  0.12500000000E+03 0.  0.
</event>
<event>
 5    0  0.5728184E-005  0.3165490E+03  0.7546771E-02  0.1077249E+00
         21   -1    0    0  502  501  0.00000000000E+00  0.00000000000E+00  0.58133607692E+03  0.58133607692E+03  0.00000000000E+00 0.  1.
         21   -1    0    0  501  502 -0.00000000000E+00 -0.00000000000E+00 -0.17236718735E+03  0.17236718735E+03  0.00000000000E+00 0.  1.
         25    1    1    2    0    0  0.18816327759E+03  0.12652830025E+02  0.26606650400E+02  0.22781226259E+03  0.12500000000E+03 0.  0.
         25    1    1    2    0    0 -0.11992937768E+03 -0.91762103922E+02  0.18031929151E+03  0.26635199687E+03  0.12500000000E+03 0.  0.
         25    1    1    2    0    0 -0.68233899915E+02  0.79109273897E+02  0.20204294766E+03  0.25953900480E+03  0.12500000000E+03 0.  0.
</event>
<event>
 5    0  0.5728184E-005  0.3031383E+03  0.7546771E-02  0.1083682E+00
         21   -1    0    0  502  501  0.00000000000E+00  0.00000000000E+00  0.16127965838E+03  0.16127965838E+03  0.00000000000E+00 0.  1.
         21   -1    0    0  501  502 -0.00000000000E+00 -0.00000000000E+00 -0.56977325761E+03  0.56977325761E+03  0.00000000000E+00 0. -1.
         25    1    1    2    0    0 -0.77441732804E+02 -0.27688566407E+02 -0.39800753269E+03  0.42520450934E+03  0.12500000000E+03 0.  0.
         25    1    1    2    0    0  0.11365224167E+03  0.87144982442E+00  0.18170645008E+02  0.16991987465E+03  0.12500000000E+03 0.  0.
         25    1    1    2    0    0 -0.36210508862E+02  0.26817116582E+02 -0.28656711545E+02  0.13592853200E+03  0.12500000000E+03 0.  0.
</event>
<event>
 5    0  0.5728184E-005  0.5381363E+03  0.7546771E-02  0.1004278E+00
         21   -1    0    0  502  501  0.00000000000E+00  0.00000000000E+00  0.15007137623E+03  0.15007137623E+03  0.00000000000E+00 0.  1.
         21   -1    0    0  501  502 -0.00000000000E+00 -0.00000000000E+00 -0.19296861509E+04  0.19296861509E+04  0.00000000000E+00 0.  1.
         25    1    1    2    0    0  0.15408876551E+03 -0.20698264761E+03 -0.10207868310E+04  0.10602904878E+04  0.12500000000E+03 0.  0.
         25    1    1    2    0    0  0.10719840061E+03 -0.13417248153E+03 -0.13488218183E+03  0.25161866955E+03  0.12500000000E+03 0.  0.
         25    1    1    2    0    0 -0.26128716613E+03  0.34115512914E+03 -0.62394576185E+03  0.76784836983E+03  0.12500000000E+03 0.  0.
</event>
<event>
 5    0  0.5728184E-005  0.2746628E+03  0.7546771E-02  0.1098640E+00
         21   -1    0    0  502  501  0.00000000000E+00  0.00000000000E+00  0.79307753765E+03  0.79307753765E+03  0.00000000000E+00 0. -1.
         21   -1    0    0  501  502 -0.00000000000E+00 -0.00000000000E+00 -0.95122641556E+02  0.95122641556E+02  0.00000000000E+00 0. -1.
         25    1    1    2    0    0 -0.69559384910E+01 -0.36968956232E+02  0.24868611936E+02  0.13288542683E+03  0.12500000000E+03 0.  0.
         25    1    1    2    0    0  0.28357077897E+02  0.94549478883E+01  0.58383964925E+03  0.59781874841E+03  0.12500000000E+03 0.  0.
         25    1    1    2    0    0 -0.21401139406E+02  0.27514008344E+02  0.89246634901E+02  0.15749600396E+03  0.12500000000E+03 0.  0.
</event>
<event>
 5    0  0.6879067E-005  0.3264747E+03  0.7546771E-02  0.1072707E+00
         21   -1    0    0  502  501  0.00000000000E+00  0.00000000000E+00  0.19753870842E+03  0.19753870842E+03  0.00000000000E+00 0.  1.
         21   -1    0    0  501  502 -0.00000000000E+00 -0.00000000000E+00 -0.53956881049E+03  0.53956881049E+03  0.00000000000E+00 0.  1.
         25    1    1    2    0    0 -0.27051812501E+02  0.25692897137E+02  0.73976538494E+02  0.14996484178E+03  0.12500000000E+03 0.  0.
         25    1    1    2    0    0  0.17091889138E+03 -0.61208635122E+02 -0.21673094842E+03  0.30912306360E+03  0.12500000000E+03 0.  0.
         25    1    1    2    0    0 -0.14386707888E+03  0.35515737985E+02 -0.19927569214E+03  0.27801961353E+03  0.12500000000E+03 0.  0.
</event>
<event>
 5    0  0.5728184E-005  0.2818013E+03  0.7546771E-02  0.1094709E+00
         21   -1    0    0  502  501  0.00000000000E+00  0.00000000000E+00  0.15142557692E+03  0.15142557692E+03  0.00000000000E+00 0.  1.
         21   -1    0    0  501  502 -0.00000000000E+00 -0.00000000000E+00 -0.52442914179E+03  0.52442914179E+03  0.00000000000E+00 0.  1.
         25    1    1    2    0    0 -0.10175229793E+03 -0.20122046070E+02  0.24456412027E+02  0.16426059467E+03  0.12500000000E+03 0.  0.
         25    1    1    2    0    0  0.31998154775E+02 -0.75101151012E+02 -0.20375092567E+03  0.25259355594E+03  0.12500000000E+03 0.  0.
         25    1    1    2    0    0  0.69754143150E+02  0.95223197082E+02 -0.19370905123E+03  0.25900056810E+03  0.12500000000E+03 0.  0.
</event>
<event>
 5    0  0.5728184E-005  0.3343706E+03  0.7546771E-02  0.1069219E+00
         21   -1    0    0  502  501  0.00000000000E+00  0.00000000000E+00  0.24719157685E+03  0.24719157685E+03  0.00000000000E+00 0.  1.
         21   -1    0    0  501  502 -0.00000000000E+00 -0.00000000000E+00 -0.45229561134E+03  0.45229561134E+03  0.00000000000E+00 0.  1.
         25    1    1    2    0    0  0.14044256622E+02  0.76259915473E+02 -0.83342540734E+02  0.16906742722E+03  0.12500000000E+03 0.  0.
         25    1    1    2    0    0  0.91765623862E+02  0.10629146682E+03  0.88118897968E+02  0.20762645742E+03  0.12500000000E+03 0.  0.
         25    1    1    2    0    0 -0.10580988048E+03 -0.18255138230E+03 -0.20988039172E+03  0.32279330355E+03  0.12500000000E+03 0.  0.
</event>
<event>
 5    0  0.5728184E-005  0.4515388E+03  0.7546771E-02  0.1027264E+00
         21   -1    0    0  502  501  0.00000000000E+00  0.00000000000E+00  0.24632268361E+03  0.24632268361E+03  0.00000000000E+00 0. -1.
         21   -1    0    0  501  502 -0.00000000000E+00 -0.00000000000E+00 -0.82772434866E+03  0.82772434866E+03  0.00000000000E+00 0. -1.
         25    1    1    2    0    0  0.18064234388E+03 -0.17269564409E+03 -0.22678087459E+03  0.35987498797E+03  0.12500000000E+03 0.  0.
         25    1    1    2    0    0  0.36169936800E+02 -0.12176341360E+03 -0.26186297695E+03  0.31675197224E+03  0.12500000000E+03 0.  0.
         25    1    1    2    0    0 -0.21681228068E+03  0.29445905769E+03 -0.92757813505E+02  0.39742007206E+03  0.12500000000E+03 0.  0.
</event>
<event>
 5    0  0.5728184E-005  0.3307570E+03  0.7546771E-02  0.1070802E+00
         21   -1    0    0  502  501  0.00000000000E+00  0.00000000000E+00  0.64576603445E+02  0.64576603445E+02  0.00000000000E+00 0. -1.
         21   -1    0    0  501  502 -0.00000000000E+00 -0.00000000000E+00 -0.16941147036E+04  0.16941147036E+04  0.00000000000E+00 0. -1.
         25    1    1    2    0    0 -0.76369905409E+02  0.77915150179E+02 -0.23399183222E+03  0.28684544728E+03  0.12500000000E+03 0.  0.
         25    1    1    2    0    0  0.21655709862E+03 -0.10364696771E+03 -0.68764594557E+03  0.73900041769E+03  0.12500000000E+03 0.  0.
         25    1    1    2    0    0 -0.14018719321E+03  0.25731817532E+02 -0.70790032235E+03  0.73284544206E+03  0.12500000000E+03 0.  0.
</event>
<event>
 5    0  0.5728184E-005  0.3001894E+03  0.7546771E-02  0.1085146E+00
         21   -1    0    0  502  501  0.00000000000E+00  0.00000000000E+00  0.64917090626E+02  0.64917090626E+02  0.00000000000E+00 0.  1.
         21   -1    0    0  501  502 -0.00000000000E+00 -0.00000000000E+00 -0.13881353041E+04  0.13881353041E+04  0.00000000000E+00 0.  1.
         25    1    1    2    0    0  0.70841087374E+02  0.92533048577E+02 -0.92227002198E+03  0.93797005186E+03  0.12500000000E+03 0.  0.
         25    1    1    2    0    0 -0.31058475667E+02 -0.78639910411E+01 -0.30662721167E+03  0.33267359108E+03  0.12500000000E+03 0.  0.
         25    1    1    2    0    0 -0.39782611706E+02 -0.84669057536E+02 -0.94320979851E+02  0.18240875181E+03  0.12500000000E+03 0.  0.
</event>
<event>
 5    0  0.5728184E-005  0.2450098E+03  0.7546771E-02  0.1116500E+00
         21   -1    0    0  502  501  0.00000000000E+00  0.00000000000E+00  0.74470905338E+03  0.74470905338E+03  0.00000000000E+00 0. -1.
         21   -1    0    0  501  502 -0.00000000000E+00 -0.00000000000E+00 -0.80608400450E+02  0.80608400450E+02  0.00000000000E+00 0. -1.
         25    1    1    2    0    0 -0.11660582837E+03 -0.82958623682E+01  0.16475083086E+03  0.23755752316E+03  0.12500000000E+03 0.  0.
         25    1    1    2    0    0  0.36464629853E+02 -0.74185754231E+01  0.10949757187E+03  0.17029216875E+03  0.12500000000E+03 0.  0.
         25    1    1    2    0    0  0.80141198515E+02  0.15714437791E+02  0.38985225021E+03  0.41746776193E+03  0.12500000000E+03 0.  0.
</event>
<event>
 5    0  0.5728184E-005  0.6326908E+03  0.7546771E-02  0.9839812E-01
         21   -1    0    0  502  501  0.00000000000E+00  0.00000000000E+00  0.43483594432E+03  0.43483594432E+03  0.00000000000E+00 0.  1.
         21   -1    0    0  501  502 -0.00000000000E+00 -0.00000000000E+00 -0.92057179331E+03  0.92057179331E+03  0.00000000000E+00 0.  1.
         25    1    1    2    0    0 -0.11483484505E+03 -0.20183122857E+03  0.15209561390E+03  0.30443548123E+03  0.12500000000E+03 0.  0.
         25    1    1    2    0    0  0.12886930415E+03  0.26051580472E+03 -0.78639678763E+03  0.84765599724E+03  0.12500000000E+03 0.  0.
         25    1    1    2    0    0 -0.14034459100E+02 -0.58684576143E+02  0.14856532475E+03  0.20331625915E+03  0.12500000000E+03 0.  0.
</event>
<event>
 5    0  0.5728184E-005  0.3924963E+03  0.7546771E-02  0.1046409E+00
         21   -1    0    0  502  501  0.00000000000E+00  0.00000000000E+00  0.34154736771E+03  0.34154736771E+03  0.00000000000E+00 0. -1.
         21   -1    0    0  501  502 -0.00000000000E+00 -0.00000000000E+00 -0.45104532315E+03  0.45104532315E+03  0.00000000000E+00 0. -1.
         25    1    1    2    0    0 -0.17827048011E+02  0.12557293062E+03 -0.18466899246E+03  0.25654239673E+03  0.12500000000E+03 0.  0.
         25    1    1    2    0    0 -0.14964621792E+03 -0.16857165702E+03  0.16338929703E+03  0.30517446891E+03  0.12500000000E+03 0.  0.
         25    1    1    2    0    0  0.16747326593E+03  0.42998726393E+02 -0.88218260010E+02  0.23087582522E+03  0.12500000000E+03 0.  0.
</event>
<event>
 5    0  0.5728184E-005  0.3581164E+03  0.7546771E-02  0.1059332E+00
         21   -1    0    0  502  501  0.00000000000E+00  0.00000000000E+00  0.26649569606E+03  0.26649569606E+03  0.00000000000E+00 0. -1.
         21   -1    0    0  501  502 -0.00000000000E+00 -0.00000000000E+00 -0.48123613504E+03  0.48123613504E+03  0.00000000000E+00 0. -1.
         25    1    1    2    0    0  0.88214785156E+02  0.16019805357E+03 -0.13795715893E+03  0.26096444660E+03  0.12500000000E+03 0.  0.
         25    1    1    2    0    0 -0.41369575734E+00 -0.58215268342E+02 -0.21602539475E+03  0.25628335840E+03  0.12500000000E+03 0.  0.
         25    1    1    2    0    0 -0.87801089398E+02 -0.10198278522E+03  0.13924211470E+03  0.23048402610E+03  0.12500000000E+03 0.  0.
</event>
<event>
 5    0  0.5728184E-005  0.4267316E+03  0.7546771E-02  0.1034897E+00
         21   -1    0    0  502  501  0.00000000000E+00  0.00000000000E+00  0.71106438285E+03  0.71106438285E+03  0.00000000000E+00 0. -1.
         21   -1    0    0  501  502 -0.00000000000E+00 -0.00000000000E+00 -0.25609475561E+03  0.25609475561E+03  0.00000000000E+00 0. -1.
         25    1    1    2    0    0  0.16136017771E+03 -0.25709144120E+02  0.38305606292E+03  0.43480457034E+03  0.12500000000E+03 0.  0.
         25    1    1    2    0    0  0.13511500873E+03 -0.17074632921E+02  0.93301329781E+02  0.20706942510E+03  0.12500000000E+03 0.  0.
         25    1    1    2    0    0 -0.29647518645E+03  0.42783777041E+02 -0.21387765461E+02  0.32528514302E+03  0.12500000000E+03 0.  0.
</event>
<event>
 5    0  0.5728184E-005  0.3211635E+03  0.7546771E-02  0.1075115E+00
         21   -1    0    0  502  501  0.00000000000E+00  0.00000000000E+00  0.10832039760E+04  0.10832039760E+04  0.00000000000E+00 0. -1.
         21   -1    0    0  501  502 -0.00000000000E+00 -0.00000000000E+00 -0.95223062616E+02  0.95223062616E+02  0.00000000000E+00 0. -1.
         25    1    1    2    0    0  0.16503008584E+03 -0.65451111201E+02  0.13340996513E+03  0.25483719506E+03  0.12500000000E+03 0.  0.
         25    1    1    2    0    0 -0.10870615156E+03  0.47594517762E+02  0.67668580552E+03  0.69829144696E+03  0.12500000000E+03 0.  0.
         25    1    1    2    0    0 -0.56323934275E+02  0.17856593439E+02  0.17788514271E+03  0.22529839658E+03  0.12500000000E+03 0.  0.
</event>
<event>
 5    0  0.5728184E-005  0.5396545E+03  0.7546771E-02  0.1003917E+00
         21   -1    0    0  502  501  0.00000000000E+00  0.00000000000E+00  0.58690441709E+03  0.58690441709E+03  0.00000000000E+00 0. -1.
         21   -1    0    0  501  502 -0.00000000000E+00 -0.00000000000E+00 -0.49620854852E+03  0.49620854852E+03  0.00000000000E+00 0. -1.
         25    1    1    2    0    0 -0.10647370738E+03  0.32936477382E+03 -0.11146244135E+03  0.38453436833E+03  0.12500000000E+03 0.  0.
         25    1    1    2    0    0  0.77639671771E+01 -0.41704351172E+03  0.12172250908E+02  0.43561305484E+03  0.12500000000E+03 0.  0.
         25    1    1    2    0    0  0.98709740204E+02  0.87678737901E+02  0.18998605901E+03  0.26296554244E+03  0.12500000000E+03 0.  0.
</event>
<event>
 5    0  0.5821501E-005  0.3504651E+03  0.7546771E-02  0.1062424E+00
         21   -1    0    0  502  501  0.00000000000E+00  0.00000000000E+00  0.14808271884E+03  0.14808271884E+03  0.00000000000E+00 0.  1.
         21   -1    0    0  501  502 -0.00000000000E+00 -0.00000000000E+00 -0.82944054343E+03  0.82944054343E+03  0.00000000000E+00 0.  1.
         25    1    1    2    0    0  0.92965263599E+02 -0.78389425008E+02 -0.44495230223E+03  0.47790688785E+03  0.12500000000E+03 0.  0.
         25    1    1    2    0    0 -0.28862855597E+01  0.20539733404E+03 -0.13086525488E+03  0.27376469898E+03  0.12500000000E+03 0.  0.
         25    1    1    2    0    0 -0.90078978039E+02 -0.12700790903E+03 -0.10554026748E+03  0.22585167544E+03  0.12500000000E+03 0.  0.
</event>
<event>
 5    0  0.5728184E-005  0.4332903E+03  0.7546771E-02  0.1032826E+00
         21   -1    0    0  502  501  0.00000000000E+00  0.00000000000E+00  0.16335141026E+03  0.16335141026E+03  0.00000000000E+00 0. -1.
         21   -1    0    0  501  502 -0.00000000000E+00 -0.00000000000E+00 -0.11493043303E+04  0.11493043303E+04  0.00000000000E+00 0. -1.
         25    1    1    2    0    0  0.19179521926E+02 -0.28785925046E+03 -0.26987380177E+03  0.41435210995E+03  0.12500000000E+03 0.  0.
         25    1    1    2    0    0  0.13269956141E+03  0.24403619872E+03 -0.26304376433E+03  0.40246721834E+03  0.12500000000E+03 0.  0.
         25    1    1    2    0    0 -0.15187908334E+03  0.43823051738E+02 -0.45303535397E+03  0.49583641230E+03  0.12500000000E+03 0.  0.
</event>
<event>
 5    0  0.5728184E-005  0.3310375E+03  0.7546771E-02  0.1070679E+00
         21   -1    0    0  502  501  0.00000000000E+00  0.00000000000E+00  0.23673657289E+03  0.23673657289E+03  0.00000000000E+00 0. -1.
         21   -1    0    0  501  502 -0.00000000000E+00 -0.00000000000E+00 -0.46290206564E+03  0.46290206564E+03  0.00000000000E+00 0. -1.
         25    1    1    2    0    0 -0.12365538410E+03  0.13275457686E+02 -0.91676597787E+01  0.17656709144E+03  0.12500000000E+03 0.  0.
         25    1    1    2    0    0  0.26108837829E+03 -0.45175332315E+01 -0.14317649784E+03  0.32297377435E+03  0.12500000000E+03 0.  0.
         25    1    1    2    0    0 -0.13743299419E+03 -0.87579244544E+01 -0.73821335138E+02  0.20009777274E+03  0.12500000000E+03 0.  0.
</event>
<event>
 5    0  0.5728184E-005  0.2826417E+03  0.7546771E-02  0.1094255E+00
         21   -1    0    0  502  501  0.00000000000E+00  0.00000000000E+00  0.10985144999E+04  0.10985144999E+04  0.00000000000E+00 0. -1.
         21   -1    0    0  501  502 -0.00000000000E+00 -0.00000000000E+00 -0.72722148463E+02  0.72722148463E+02  0.00000000000E+00 0. -1.
         25    1    1    2    0    0  0.94323757116E+02  0.11429134957E+03  0.44975558873E+03  0.48975970979E+03  0.12500000000E+03 0.  0.
         25    1    1    2    0    0 -0.17420527068E+02  0.47721574436E+02  0.14432751311E+03  0.19757594608E+03  0.12500000000E+03 0.  0.
         25    1    1    2    0    0 -0.76903230048E+02 -0.16201292401E+03  0.43170924955E+03  0.48390099244E+03  0.12500000000E+03 0.  0.
</event>
<event>
 5    0  0.5728184E-005  0.3914752E+03  0.7546771E-02  0.1046772E+00
         21   -1    0    0  502  501  0.00000000000E+00  0.00000000000E+00  0.27572609924E+03  0.27572609924E+03  0.00000000000E+00 0.  1.
         21   -1    0    0  501  502 -0.00000000000E+00 -0.00000000000E+00 -0.55581543342E+03  0.55581543342E+03  0.00000000000E+00 0.  1.
         25    1    1    2    0    0  0.15649550230E+03 -0.85377016905E+01 -0.15751972970E+03  0.25495332873E+03  0.12500000000E+03 0.  0.
         25    1    1    2    0    0 -0.30797764500E+03  0.89248141356E+02 -0.31640867411E+02  0.34560324803E+03  0.12500000000E+03 0.  0.
         25    1    1    2    0    0  0.15148214271E+03 -0.80710439665E+02 -0.90928737071E+02  0.23098495591E+03  0.12500000000E+03 0.  0.
</event>
<event>
 5    0  0.5728184E-005  0.3415063E+03  0.7546771E-02  0.1066156E+00
         21   -1    0    0  502  501  0.00000000000E+00  0.00000000000E+00  0.24206426095E+03  0.24206426095E+03  0.00000000000E+00 0.  1.
         21   -1    0    0  501  502 -0.00000000000E+00 -0.00000000000E+00 -0.48179991849E+03  0.48179991849E+03  0.00000000000E+00 0.  1.
         25    1    1    2    0    0 -0.10815912514E+03  0.11320466366E+03  0.10433956571E+02  0.20061794455E+03  0.12500000000E+03 0.  0.
         25    1    1    2    0    0 -0.45952253980E+02 -0.27437690965E+02  0.57161433714E+02  0.14750208824E+03  0.12500000000E+03 0.  0.
         25    1    1    2    0    0  0.15411137912E+03 -0.85766972696E+02 -0.30733104782E+03  0.37574414664E+03  0.12500000000E+03 0.  0.
</event>
<event>
 5    0  0.5728184E-005  0.4332751E+03  0.7546771E-02  0.1032830E+00
         21   -1    0    0  502  501  0.00000000000E+00  0.00000000000E+00  0.59314191333E+03  0.59314191333E+03  0.00000000000E+00 0. -1.
         21   -1    0    0  501  502 -0.00000000000E+00 -0.00000000000E+00 -0.31649639029E+03  0.31649639029E+03  0.00000000000E+00 0. -1.
         25    1    1    2    0    0  0.21285082066E+02  0.29462426895E+03  0.80077896400E+02  0.33059640661E+03  0.12500000000E+03 0.  0.
         25    1    1    2    0    0 -0.25601874798E+02  0.72590146981E+02  0.62250373594E+01  0.14693037985E+03  0.12500000000E+03 0.  0.
         25    1    1    2    0    0  0.43167927321E+01 -0.36721441593E+03  0.19034258929E+03  0.43211151716E+03  0.12500000000E+03 0.  0.
</event>
<event>
 5    0  0.5728184E-005  0.2816175E+03  0.7546771E-02  0.1094809E+00
         21   -1    0    0  502  501  0.00000000000E+00  0.00000000000E+00  0.38053639466E+02  0.38053639466E+02  0.00000000000E+00 0. -1.
         21   -1    0    0  501  502 -0.00000000000E+00 -0.00000000000E+00 -0.20841221446E+04  0.20841221446E+04  0.00000000000E+00 0. -1.
         25    1    1    2    0    0  0.34778196456E+02 -0.23652380513E+02 -0.38869964530E+03  0.41046482469E+03  0.12500000000E+03 0.  0.
         25    1    1    2    0    0  0.30718618988E+02 -0.14145399506E+03 -0.10352310616E+04  0.10527493611E+04  0.12500000000E+03 0.  0.
         25    1    1    2    0    0 -0.65496815444E+02  0.16510637557E+03 -0.62213779822E+03  0.65896159832E+03  0.12500000000E+03 0.  0.
</event>
<event>
 5    0  0.5728184E-005  0.3605889E+03  0.7546771E-02  0.1058351E+00
         21   -1    0    0  502  501  0.00000000000E+00  0.00000000000E+00  0.16773133518E+03  0.16773133518E+03  0.00000000000E+00 0.  1.
         21   -1    0    0  501  502 -0.00000000000E+00 -0.00000000000E+00 -0.77519427498E+03  0.77519427498E+03  0.00000000000E+00 0.  1.
         25    1    1    2    0    0  0.26999042530E+03 -0.82362928009E+02 -0.23717955403E+03  0.38930402324E+03  0.12500000000E+03 0.  0.
         25    1    1    2    0    0 -0.18011918626E+03  0.70787270498E+02 -0.31365257658E+03  0.38917437958E+03  0.12500000000E+03 0.  0.
         25    1    1    2    0    0 -0.89871239035E+02  0.11575657512E+02 -0.56630809200E+02  0.16444720734E+03  0.12500000000E+03 0.  0.
</event>
<event>
 5    0  0.5728184E-005  0.2735962E+03  0.7546771E-02  0.1099239E+00
         21   -1    0    0  502  501  0.00000000000E+00  0.00000000000E+00  0.42593933502E+03  0.42593933502E+03  0.00000000000E+00 0.  1.
         21   -1    0    0  501  502 -0.00000000000E+00 -0.00000000000E+00 -0.17574075416E+03  0.17574075416E+03  0.00000000000E+00 0.  1.
         25    1    1    2    0    0  0.13704383028E+03  0.53358745438E+02  0.14249439838E+03  0.23991211037E+03  0.12500000000E+03 0.  0.
         25    1    1    2    0    0  0.28541474247E+02 -0.19595319108E+01  0.65144251808E+02  0.14383055677E+03  0.12500000000E+03 0.  0.
         25    1    1    2    0    0 -0.16558530453E+03 -0.51399213528E+02  0.42559930677E+02  0.21793742204E+03  0.12500000000E+03 0.  0.
</event>
<event>
 5    0  0.5728184E-005  0.2892317E+03  0.7546771E-02  0.1090751E+00
         21   -1    0    0  502  501  0.00000000000E+00  0.00000000000E+00  0.91730426899E+02  0.91730426899E+02  0.00000000000E+00 0. -1.
         21   -1    0    0  501  502 -0.00000000000E+00 -0.00000000000E+00 -0.91196555490E+03  0.91196555490E+03  0.00000000000E+00 0. -1.
         25    1    1    2    0    0  0.13202820188E+03  0.78574984787E+02 -0.20756518090E+03  0.28690377943E+03  0.12500000000E+03 0.  0.
         25    1    1    2    0    0  0.36711318908E+02 -0.77103705487E+02 -0.34361343613E+03  0.37548354934E+03  0.12500000000E+03 0.  0.
         25    1    1    2    0    0 -0.16873952079E+03 -0.14712793001E+01 -0.26905651097E+03  0.34130865303E+03  0.12500000000E+03 0.  0.
</event>
<event>
 5    0  0.5728184E-005  0.2541510E+03  0.7546771E-02  0.1110709E+00
         21   -1    0    0  502  501  0.00000000000E+00  0.00000000000E+00  0.70507885505E+03  0.70507885505E+03  0.00000000000E+00 0. -1.
         21   -1    0    0  501  502 -0.00000000000E+00 -0.00000000000E+00 -0.91610638101E+02  0.91610638101E+02  0.00000000000E+00 0. -1.
         25    1    1    2    0    0  0.79510349402E+02  0.59646846934E+02  0.85143358721E+02  0.18098075463E+03  0.12500000000E+03 0.  0.
         25    1    1    2    0    0  0.60516137409E+01 -0.17711018271E+02  0.37661723707E+03  0.39726042523E+03  0.12500000000E+03 0.  0.
         25    1    1    2    0    0 -0.85561963143E+02 -0.41935828663E+02  0.15170762116E+03  0.21844831329E+03  0.12500000000E+03 0.  0.
</event>
<event>
 5    0  0.5728184E-005  0.3691719E+03  0.7546771E-02  0.1055010E+00
         21   -1    0    0  502  501  0.00000000000E+00  0.00000000000E+00  0.67120375024E+02  0.67120375024E+02  0.00000000000E+00 0. -1.
         21   -1    0    0  501  502 -0.00000000000E+00 -0.00000000000E+00 -0.20304998165E+04  0.20304998165E+04  0.00000000000E+00 0. -1.
         25    1    1    2    0    0 -0.25638813023E+02  0.11945303148E+03 -0.96356062630E+02  0.19958924387E+03  0.12500000000E+03 0.  0.
         25    1    1    2    0    0  0.27809786617E+02 -0.15650397085E+03 -0.91218951087E+03  0.93433483338E+03  0.12500000000E+03 0.  0.
         25    1    1    2    0    0 -0.21709735940E+01  0.37050939370E+02 -0.95483386793E+03  0.96369611423E+03  0.12500000000E+03 0.  0.
</event>
<event>
 5    0  0.5728184E-005  0.3119947E+03  0.7546771E-02  0.1079394E+00
         21   -1    0    0  502  501  0.00000000000E+00  0.00000000000E+00  0.10036172371E+04  0.10036172371E+04  0.00000000000E+00 0.  1.
         21   -1    0    0  501  502 -0.00000000000E+00 -0.00000000000E+00 -0.96989832220E+02  0.96989832220E+02  0.00000000000E+00 0.  1.
         25    1    1    2    0    0  0.37305364923E+02  0.12684802676E+03  0.21397017665E+03  0.28087425771E+03  0.12500000000E+03 0.  0.
         25    1    1    2    0    0 -0.13841273470E+03 -0.79186771603E+02  0.58832349869E+03  0.62223642535E+03  0.12500000000E+03 0.  0.
         25    1    1    2    0    0  0.10110736977E+03 -0.47661255152E+02  0.10433372952E+03  0.19749638625E+03  0.12500000000E+03 0.  0.
</event>
<event>
 5    0  0.5737005E-005  0.3219479E+03  0.7546771E-02  0.1074756E+00
         21   -1    0    0  502  501  0.00000000000E+00  0.00000000000E+00  0.62024083649E+03  0.62024083649E+03  0.00000000000E+00 0.  1.
         21   -1    0    0  501  502 -0.00000000000E+00 -0.00000000000E+00 -0.16711318030E+03  0.16711318030E+03  0.00000000000E+00 0.  1.
         25    1    1    2    0    0  0.19880619475E+03  0.85878874338E+02  0.90197591722E+02  0.26581890392E+03  0.12500000000E+03 0.  0.
         25    1    1    2    0    0 -0.11513202127E+03 -0.63356074092E+01  0.29047259464E+03  0.33659300420E+03  0.12500000000E+03 0.  0.
         25    1    1    2    0    0 -0.83674173479E+02 -0.79543266929E+02  0.72457469838E+02  0.18494210866E+03  0.12500000000E+03 0.  0.
</event>
<event>
 5    0  0.5728184E-005  0.3277354E+03  0.7546771E-02  0.1072143E+00
         21   -1    0    0  502  501  0.00000000000E+00  0.00000000000E+00  0.18747993107E+03  0.18747993107E+03  0.00000000000E+00 0. -1.
         21   -1    0    0  501  502 -0.00000000000E+00 -0.00000000000E+00 -0.57291733188E+03  0.57291733188E+03  0.00000000000E+00 0. -1.
         25    1    1    2    0    0 -0.74592304568E+02 -0.17864900656E+03 -0.27856591037E+03  0.36152931536E+03  0.12500000000E+03 0.  0.
         25    1    1    2    0    0  0.45452643348E+02  0.16835121638E+03  0.23245715226E+02  0.21580879991E+03  0.12500000000E+03 0.  0.
         25    1    1    2    0    0  0.29139661220E+02  0.10297790181E+02 -0.13011720567E+03  0.18305914768E+03  0.12500000000E+03 0.  0.
</event>
<event>
 5    0  0.5728184E-005  0.3604315E+03  0.7546771E-02  0.1058413E+00
         21   -1    0    0  502  501  0.00000000000E+00  0.00000000000E+00  0.39927192472E+03  0.39927192472E+03  0.00000000000E+00 0. -1.
         21   -1    0    0  501  502 -0.00000000000E+00 -0.00000000000E+00 -0.32536942435E+03  0.32536942435E+03  0.00000000000E+00 0. -1.
         25    1    1    2    0    0 -0.78565021909E+02  0.64742457134E+02 -0.23703732677E+02  0.16294451622E+03  0.12500000000E+03 0.  0.
         25    1    1    2    0    0  0.15714173418E+03 -0.38566363261E+02  0.26646418212E+03  0.33587058423E+03  0.12500000000E+03 0.  0.
         25    1    1    2    0    0 -0.78576712274E+02 -0.26176093873E+02 -0.16885794907E+03  0.22582624862E+03  0.12500000000E+03 0.  0.
</event>
<event>
 5    0  0.5728184E-005  0.2691554E+03  0.7546771E-02  0.1101764E+00
         21   -1    0    0  502  501  0.00000000000E+00  0.00000000000E+00  0.93760610634E+02  0.93760610634E+02  0.00000000000E+00 0.  1.
         21   -1    0    0  501  502 -0.00000000000E+00 -0.00000000000E+00 -0.77265500685E+03  0.77265500685E+03  0.00000000000E+00 0.  1.
         25    1    1    2    0    0 -0.74319262360E+02  0.12657099595E+03 -0.30876184942E+03  0.36400885900E+03  0.12500000000E+03 0.  0.
         25    1    1    2    0    0  0.55606166394E+02 -0.97679445323E+02 -0.83250056050E+02  0.18758702410E+03  0.12500000000E+03 0.  0.
         25    1    1    2    0    0  0.18713095967E+02 -0.28891550627E+02 -0.28688249075E+03  0.31481973439E+03  0.12500000000E+03 0.  0.
</event>
<event>
 5    0  0.5728184E-005  0.2015291E+03  0.7546771E-02  0.1148455E+00
         21   -1    0    0  502  501  0.00000000000E+00  0.00000000000E+00  0.17419882754E+04  0.17419882754E+04  0.00000000000E+00 0.  1.
         21   -1    0    0  501  502 -0.00000000000E+00 -0.00000000000E+00 -0.23314721621E+02  0.23314721621E+02  0.00000000000E+00 0.  1.
         25    1    1    2    0    0 -0.88418367168E+00  0.59631204576E+02  0.68296902446E+03  0.69687039736E+03  0.12500000000E+03 0.  0.
         25    1    1    2    0    0 -0.23832639883E+02 -0.29737013348E+02  0.47424346141E+03  0.49191884024E+03  0.12500000000E+03 0.  0.
         25    1    1    2    0    0  0.24716823555E+02 -0.29894191228E+02  0.56146106788E+03  0.57651375940E+03  0.12500000000E+03 0.  0.
</event>
<event>
 5    0  0.5728184E-005  0.3001653E+03  0.7546771E-02  0.1085158E+00
         21   -1    0    0  502  501  0.00000000000E+00  0.00000000000E+00  0.15735052825E+04  0.15735052825E+04  0.00000000000E+00 0.  1.
         21   -1    0    0  501  502 -0.00000000000E+00 -0.00000000000E+00 -0.57260189623E+02  0.57260189623E+02  0.00000000000E+00 0.  1.
         25    1    1    2    0    0 -0.13289353395E+03  0.42055546424E+02  0.30025696550E+03  0.35384828059E+03  0.12500000000E+03 0.  0.
         25    1    1    2    0    0  0.30214565761E+02 -0.13091404830E+03  0.39658104986E+03  0.43698162105E+03  0.12500000000E+03 0.  0.
         25    1    1    2    0    0  0.10267896819E+03  0.88858501876E+02  0.81940707750E+03  0.83993557046E+03  0.12500000000E+03 0.  0.
</event>
<event>
 5    0  0.5728184E-005  0.2725604E+03  0.7546771E-02  0.1099823E+00
         21   -1    0    0  502  501  0.00000000000E+00  0.00000000000E+00  0.14250863265E+04  0.14250863265E+04  0.00000000000E+00 0.  1.
         21   -1    0    0  501  502 -0.00000000000E+00 -0.00000000000E+00 -0.52129580021E+02  0.52129580021E+02  0.00000000000E+00 0.  1.
         25    1    1    2    0    0 -0.73823795327E+02 -0.75332571691E+02  0.77248790137E+03  0.78961225097E+03  0.12500000000E+03 0.  0.
         25    1    1    2    0    0 -0.37114616508E+02  0.32314069061E+02  0.13190912562E+03  0.18827297002E+03  0.12500000000E+03 0.  0.
         25    1    1    2    0    0  0.11093841183E+03  0.43018502629E+02  0.46855971947E+03  0.49933068551E+03  0.12500000000E+03 0.  0.
</event>
<event>
 5    0  0.5728184E-005  0.4580780E+03  0.7546771E-02  0.1025340E+00
         21   -1    0    0  502  501  0.00000000000E+00  0.00000000000E+00  0.56680521422E+03  0.56680521422E+03  0.00000000000E+00 0.  1.
         21   -1    0    0  501  502 -0.00000000000E+00 -0.00000000000E+00 -0.37020727868E+03  0.37020727868E+03  0.00000000000E+00 0.  1.
         25    1    1    2    0    0 -0.31854395981E+03  0.87678783330E+02 -0.10127381674E+03  0.36747681469E+03  0.12500000000E+03 0.  0.
         25    1    1    2    0    0  0.26687201752E+03 -0.12248900516E+03  0.11455405112E+03  0.33907500755E+03  0.12500000000E+03 0.  0.
         25    1    1    2    0    0  0.51671942288E+02  0.34810221831E+02  0.18331770115E+03  0.23046067066E+03  0.12500000000E+03 0.  0.
</event>
<event>
 5    0  0.5728184E-005  0.2462932E+03  0.7546771E-02  0.1115670E+00
         21   -1    0    0  502  501  0.00000000000E+00  0.00000000000E+00  0.69981783452E+02  0.69981783452E+02  0.00000000000E+00 0.  1.
         21   -1    0    0  501  502 -0.00000000000E+00 -0.00000000000E+00 -0.86680170333E+03  0.86680170333E+03  0.00000000000E+00 0.  1.
         25    1    1    2    0    0  0.18847363246E+02  0.76568448133E+02 -0.49849010552E+03  0.51993781903E+03  0.12500000000E+03 0.  0.
         25    1    1    2    0    0 -0.97085328126E+01 -0.77865473004E+02 -0.87514618888E+02  0.17158407856E+03  0.12500000000E+03 0.  0.
         25    1    1    2    0    0 -0.91388304337E+01  0.12970248709E+01 -0.21081519546E+03  0.24526158919E+03  0.12500000000E+03 0.  0.
</event>
<event>
 5    0  0.5728184E-005  0.2400786E+03  0.7546771E-02  0.1119740E+00
         21   -1    0    0  502  501  0.00000000000E+00  0.00000000000E+00  0.18581748732E+03  0.18581748732E+03  0.00000000000E+00 0.  1.
         21   -1    0    0  501  502 -0.00000000000E+00 -0.00000000000E+00 -0.31018472086E+03  0.31018472086E+03  0.00000000000E+00 0.  1.
         25    1    1    2    0    0  0.27855380036E+02 -0.71795014678E+02 -0.65850913579E+02  0.16090925750E+03  0.12500000000E+03 0.  0.
         25    1    1    2    0    0  0.29585275154E+02 -0.57581349687E+02 -0.32405632477E+02  0.14445077139E+03  0.12500000000E+03 0.  0.
         25    1    1    2    0    0 -0.57440655191E+02  0.12937636436E+03 -0.26110687483E+02  0.19064217929E+03  0.12500000000E+03 0.  0.
</event>
<event>
 5    0  0.6061237E-005  0.3012449E+03  0.7546771E-02  0.1084620E+00
         21   -1    0    0  502  501  0.00000000000E+00  0.00000000000E+00  0.63209634366E+03  0.63209634366E+03  0.00000000000E+00 0.  1.
         21   -1    0    0  501  502 -0.00000000000E+00 -0.00000000000E+00 -0.14356746386E+03  0.14356746386E+03  0.00000000000E+00 0.  1.
         25    1    1    2    0    0  0.13084708016E+02  0.24344419266E+02  0.30450993386E+03  0.33032583937E+03  0.12500000000E+03 0.  0.
         25    1    1    2    0    0  0.40214736312E+02 -0.16271550999E+03  0.12015034116E+03  0.24115278702E+03  0.12500000000E+03 0.  0.
         25    1    1    2    0    0 -0.53299444328E+02  0.13837109072E+03  0.63868604770E+02  0.20418518112E+03  0.12500000000E+03 0.  0.
</event>
<event>
 5    0  0.5728184E-005  0.4372186E+03  0.7546771E-02  0.1031604E+00
         21   -1    0    0  502  501  0.00000000000E+00  0.00000000000E+00  0.44556530430E+03  0.44556530430E+03  0.00000000000E+00 0. -1.
         21   -1    0    0  501  502 -0.00000000000E+00 -0.00000000000E+00 -0.42902821253E+03  0.42902821253E+03  0.00000000000E+00 0. -1.
         25    1    1    2    0    0 -0.32098912276E+00  0.85517729334E+02  0.73832033589E+02  0.16849200055E+03  0.12500000000E+03 0.  0.
         25    1    1    2    0    0  0.80633577435E+02 -0.10375065279E+03 -0.34049032972E+03  0.38577796256E+03  0.12500000000E+03 0.  0.
         25    1    1    2    0    0 -0.80312588312E+02  0.18232923453E+02  0.28319538790E+03  0.32032355372E+03  0.12500000000E+03 0.  0.
</event>
<event>
 5    0  0.5728184E-005  0.2641475E+03  0.7546771E-02  0.1104677E+00
         21   -1    0    0  502  501  0.00000000000E+00  0.00000000000E+00  0.54408619002E+02  0.54408619002E+02  0.00000000000E+00 0. -1.
         21   -1    0    0  501  502 -0.00000000000E+00 -0.00000000000E+00 -0.12824054086E+04  0.12824054086E+04  0.00000000000E+00 0. -1.
         25    1    1    2    0    0 -0.33491517917E+02  0.23756842319E+02 -0.20615024916E+03  0.24455877527E+03  0.12500000000E+03 0.  0.
         25    1    1    2    0    0  0.62080869995E+02 -0.14924231978E+03 -0.60006991338E+03  0.63390551770E+03  0.12500000000E+03 0.  0.
         25    1    1    2    0    0 -0.28589352078E+02  0.12548547746E+03 -0.42177662705E+03  0.45834973463E+03  0.12500000000E+03 0.  0.
</event>
<event>
 5    0  0.5787619E-005  0.3138093E+03  0.7546771E-02  0.1078534E+00
         21   -1    0    0  502  501  0.00000000000E+00  0.00000000000E+00  0.26713085014E+03  0.26713085014E+03  0.00000000000E+00 0. -1.
         21   -1    0    0  501  502 -0.00000000000E+00 -0.00000000000E+00 -0.36864428930E+03  0.36864428930E+03  0.00000000000E+00 0. -1.
         25    1    1    2    0    0  0.11941848001E+03 -0.14277740434E+03 -0.19074277061E+03  0.29437045554E+03  0.12500000000E+03 0.  0.
         25    1    1    2    0    0 -0.78043840202E+02  0.35327631749E+02  0.47380174669E+01  0.15161243804E+03  0.12500000000E+03 0.  0.
         25    1    1    2    0    0 -0.41374639805E+02  0.10744977259E+03  0.84491313983E+02  0.18979224586E+03  0.12500000000E+03 0.  0.
</event>
<event>
 5    0  0.5773115E-005  0.4419137E+03  0.7546771E-02  0.1030161E+00
         21   -1    0    0  502  501  0.00000000000E+00  0.00000000000E+00  0.96211960705E+03  0.96211960705E+03  0.00000000000E+00 0. -1.
         21   -1    0    0  501  502 -0.00000000000E+00 -0.00000000000E+00 -0.20297655652E+03  0.20297655652E+03  0.00000000000E+00 0. -1.
         25    1    1    2    0    0  0.67679628619E+02 -0.26458487576E+03  0.28469740150E+03  0.41383970209E+03  0.12500000000E+03 0.  0.
         25    1    1    2    0    0  0.17162671454E+01  0.82102193368E+01 -0.61973263726E+02  0.13977138009E+03  0.12500000000E+03 0.  0.
         25    1    1    2    0    0 -0.69395895765E+02  0.25637465642E+03  0.53641891276E+03  0.61148508140E+03  0.12500000000E+03 0.  0.
</event>
<event>
 5    0  0.6075191E-005  0.3743215E+03  0.7546771E-02  0.1053053E+00
         21   -1    0    0  502  501  0.00000000000E+00  0.00000000000E+00  0.72136999477E+03  0.72136999477E+03  0.00000000000E+00 0.  1.
         21   -1    0    0  501  502 -0.00000000000E+00 -0.00000000000E+00 -0.19423673365E+03  0.19423673365E+03  0.00000000000E+00 0.  1.
         25    1    1    2    0    0 -0.92592343232E+02 -0.12212847059E+03 -0.36095510998E+01  0.19780478814E+03  0.12500000000E+03 0.  0.
         25    1    1    2    0    0 -0.82198612920E+02  0.19881183659E+03  0.21886063155E+03  0.33137250094E+03  0.12500000000E+03 0.  0.
         25    1    1    2    0    0  0.17479095615E+03 -0.76683366004E+02  0.31188218066E+03  0.38642943934E+03  0.12500000000E+03 0.  0.
</event>
<event>
 5    0  0.6616333E-005  0.2899190E+03  0.7546771E-02  0.1090391E+00
         21   -1    0    0  502  501  0.00000000000E+00  0.00000000000E+00  0.46844565428E+03  0.46844565428E+03  0.00000000000E+00 0. -1.
         21   -1    0    0  501  502 -0.00000000000E+00 -0.00000000000E+00 -0.17942959217E+03  0.17942959217E+03  0.00000000000E+00 0. -1.
         25    1    1    2    0    0  0.52867412401E+02 -0.93612762956E+02  0.29297702269E+03  0.33618276058E+03  0.12500000000E+03 0.  0.
         25    1    1    2    0    0  0.15820712173E+02 -0.17872939712E+02 -0.24182663478E+02  0.12953585651E+03  0.12500000000E+03 0.  0.
         25    1    1    2    0    0 -0.68688124574E+02  0.11148570267E+03  0.20221702892E+02  0.18215662937E+03  0.12500000000E+03 0.  0.
</event>
<event>
 5    0  0.5728184E-005  0.3561198E+03  0.7546771E-02  0.1060131E+00
         21   -1    0    0  502  501  0.00000000000E+00  0.00000000000E+00  0.69966121088E+03  0.69966121088E+03  0.00000000000E+00 0. -1.
         21   -1    0    0  501  502 -0.00000000000E+00 -0.00000000000E+00 -0.18126099665E+03  0.18126099665E+03  0.00000000000E+00 0. -1.
         25    1    1    2    0    0  0.90983982493E+02  0.21603111114E+03  0.43830637870E+03  0.51252805549E+03  0.12500000000E+03 0.  0.
         25    1    1    2    0    0 -0.24074142367E+02 -0.41546828850E+02  0.42195111989E+02  0.14039633469E+03  0.12500000000E+03 0.  0.
         25    1    1    2    0    0 -0.66909840125E+02 -0.17448428229E+03  0.37898723532E+02  0.22799781735E+03  0.12500000000E+03 0.  0.
</event>
<event>
 5    0  0.5728184E-005  0.4817541E+03  0.7546771E-02  0.1018654E+00
         21   -1    0    0  502  501  0.00000000000E+00  0.00000000000E+00  0.54521873020E+03  0.54521873020E+03  0.00000000000E+00 0. -1.
         21   -1    0    0  501  502 -0.00000000000E+00 -0.00000000000E+00 -0.42567695671E+03  0.42567695671E+03  0.00000000000E+00 0. -1.
         25    1    1    2    0    0  0.13377225386E+02 -0.26632543524E+02  0.19736561208E+02  0.13001067026E+03  0.12500000000E+03 0.  0.
         25    1    1    2    0    0 -0.23267281329E+03  0.29060013577E+03 -0.12488124692E+03  0.41207451120E+03  0.12500000000E+03 0.  0.
         25    1    1    2    0    0  0.21929558790E+03 -0.26396759225E+03  0.22468645920E+03  0.42881050544E+03  0.12500000000E+03 0.  0.
</event>
<event>
 5    0  0.5728184E-005  0.2428573E+03  0.7546771E-02  0.1117904E+00
         21   -1    0    0  502  501  0.00000000000E+00  0.00000000000E+00  0.94186528690E+03  0.94186528690E+03  0.00000000000E+00 0.  1.
         21   -1    0    0  501  502 -0.00000000000E+00 -0.00000000000E+00 -0.62620088401E+02  0.62620088401E+02  0.00000000000E+00 0.  1.
         25    1    1    2    0    0  0.35539021815E+02 -0.81347773000E+02  0.37800338061E+03  0.40791180174E+03  0.12500000000E+03 0.  0.
         25    1    1    2    0    0 -0.35281230217E+02  0.11389702788E+03  0.38829387076E+03  0.42498756245E+03  0.12500000000E+03 0.  0.
         25    1    1    2    0    0 -0.25779159762E+00 -0.32549254879E+02  0.11294794712E+03  0.17158601111E+03  0.12500000000E+03 0.  0.
</event>
<event>
 5    0  0.5728184E-005  0.2835824E+03  0.7546771E-02  0.1093748E+00
         21   -1    0    0  502  501  0.00000000000E+00  0.00000000000E+00  0.48745546405E+02  0.48745546405E+02  0.00000000000E+00 0.  1.
         21   -1    0    0  501  502 -0.00000000000E+00 -0.00000000000E+00 -0.16497707366E+04  0.16497707366E+04  0.00000000000E+00 0.  1.
         25    1    1    2    0    0 -0.11071821070E+03 -0.10401897766E+02 -0.28627652713E+03  0.33158101822E+03  0.12500000000E+03 0.  0.
         25    1    1    2    0    0  0.15707798203E+03  0.46465778012E+02 -0.10306375097E+04  0.10510334140E+04  0.12500000000E+03 0.  0.
         25    1    1    2    0    0 -0.46359771339E+02 -0.36063880246E+02 -0.28411115337E+03  0.31590185078E+03  0.12500000000E+03 0.  0.
</event>
<event>
 5    0  0.5728184E-005  0.3198105E+03  0.7546771E-02  0.1075737E+00
         21   -1    0    0  502  501  0.00000000000E+00  0.00000000000E+00  0.19617302191E+03  0.19617302191E+03  0.00000000000E+00 0.  1.
         21   -1    0    0  501  502 -0.00000000000E+00 -0.00000000000E+00 -0.52137017660E+03  0.52137017660E+03  0.00000000000E+00 0.  1.
         25    1    1    2    0    0  0.11574980877E+03 -0.10459880474E+03 -0.48719512930E+02  0.20576082991E+03  0.12500000000E+03 0.  0.
         25    1    1    2    0    0 -0.19823649569E+02  0.94550178073E+02 -0.31221002044E+03  0.34990400129E+03  0.12500000000E+03 0.  0.
         25    1    1    2    0    0 -0.95926159201E+02  0.10048626666E+02  0.35732378677E+02  0.16187836731E+03  0.12500000000E+03 0.  0.
</event>
<event>
 5    0  0.5728184E-005  0.3386491E+03  0.7546771E-02  0.1067373E+00
         21   -1    0    0  502  501  0.00000000000E+00  0.00000000000E+00  0.74298021366E+02  0.74298021366E+02  0.00000000000E+00 0.  1.
         21   -1    0    0  501  502 -0.00000000000E+00 -0.00000000000E+00 -0.15435566174E+04  0.15435566174E+04  0.00000000000E+00 0.  1.
         25    1    1    2    0    0 -0.16573912414E+03 -0.11230883500E+03 -0.47376996723E+03  0.52930682363E+03  0.12500000000E+03 0.  0.
         25    1    1    2    0    0  0.16259092645E+03 -0.65925114147E+02 -0.59348494506E+03  0.63137256042E+03  0.12500000000E+03 0.  0.
         25    1    1    2    0    0  0.31481976926E+01  0.17823394915E+03 -0.40200368372E+03  0.45717525470E+03  0.12500000000E+03 0.  0.
</event>
<event>
 5    0  0.6036320E-005  0.2841617E+03  0.7546771E-02  0.1093437E+00
         21   -1    0    0  502  501  0.00000000000E+00  0.00000000000E+00  0.32420253904E+03  0.32420253904E+03  0.00000000000E+00 0.  1.
         21   -1    0    0  501  502 -0.00000000000E+00 -0.00000000000E+00 -0.24906613117E+03  0.24906613117E+03  0.00000000000E+00 0.  1.
         25    1    1    2    0    0  0.24776829741E+02 -0.44475386548E+02 -0.16292230965E+03  0.21156708223E+03  0.12500000000E+03 0.  0.
         25    1    1    2    0    0 -0.34577412896E+02 -0.19500717900E+02  0.12465026809E+03  0.18093801374E+03  0.12500000000E+03 0.  0.
         25    1    1    2    0    0  0.98005831550E+01  0.63976104449E+02  0.11340844943E+03  0.18076357424E+03  0.12500000000E+03 0.  0.
</event>
<event>
 5    0  0.5728184E-005  0.3810486E+03  0.7546771E-02  0.1050547E+00
         21   -1    0    0  502  501  0.00000000000E+00  0.00000000000E+00  0.36804896299E+03  0.36804896299E+03  0.00000000000E+00 0. -1.
         21   -1    0    0  501  502 -0.00000000000E+00 -0.00000000000E+00 -0.39450747143E+03  0.39450747143E+03  0.00000000000E+00 0. -1.
         25    1    1    2    0    0  0.65170812690E+02  0.89139208317E+02 -0.16548224071E+03  0.23495192120E+03  0.12500000000E+03 0.  0.
         25    1    1    2    0    0 -0.95201922029E+02 -0.13612975612E+03  0.26824031948E+03  0.33937086713E+03  0.12500000000E+03 0.  0.
         25    1    1    2    0    0  0.30031109340E+02  0.46990547804E+02 -0.12921658721E+03  0.18823364609E+03  0.12500000000E+03 0.  0.
</event>
<event>
 5    0  0.5728184E-005  0.3087481E+03  0.7546771E-02  0.1080948E+00
         21   -1    0    0  502  501  0.00000000000E+00  0.00000000000E+00  0.13628769711E+03  0.13628769711E+03  0.00000000000E+00 0.  1.
         21   -1    0    0  501  502 -0.00000000000E+00 -0.00000000000E+00 -0.69944218467E+03  0.69944218467E+03  0.00000000000E+00 0.  1.
         25    1    1    2    0    0 -0.16055493108E+02  0.31618807400E+02  0.21457078665E+02  0.13169257407E+03  0.12500000000E+03 0.  0.
         25    1    1    2    0    0  0.76060832268E+02  0.79260052015E+01 -0.52995318257E+03  0.54983947428E+03  0.12500000000E+03 0.  0.
         25    1    1    2    0    0 -0.60005339160E+02 -0.39544812602E+02 -0.54658383656E+02  0.15419783343E+03  0.12500000000E+03 0.  0.
</event>
<event>
 5    0  0.5740201E-005  0.3055905E+03  0.7546771E-02  0.1082479E+00
         21   -1    0    0  502  501  0.00000000000E+00  0.00000000000E+00  0.94568946020E+03  0.94568946020E+03  0.00000000000E+00 0.  1.
         21   -1    0    0  501  502 -0.00000000000E+00 -0.00000000000E+00 -0.98748636571E+02  0.98748636571E+02  0.00000000000E+00 0.  1.
         25    1    1    2    0    0  0.97516063774E+02 -0.46783559334E+02  0.50227248173E+03  0.52877285295E+03  0.12500000000E+03 0.  0.
         25    1    1    2    0    0  0.51652642924E+02  0.11451918691E+03  0.16891852281E+03  0.24482873001E+03  0.12500000000E+03 0.  0.
         25    1    1    2    0    0 -0.14916870670E+03 -0.67735627573E+02  0.17574981909E+03  0.27083651381E+03  0.12500000000E+03 0.  0.
</event>
<event>
 5    0  0.5857726E-005  0.2647550E+03  0.7546771E-02  0.1104320E+00
         21   -1    0    0  502  501  0.00000000000E+00  0.00000000000E+00  0.37470981754E+03  0.37470981754E+03  0.00000000000E+00 0.  1.
         21   -1    0    0  501  502 -0.00000000000E+00 -0.00000000000E+00 -0.18706535126E+03  0.18706535126E+03  0.00000000000E+00 0.  1.
         25    1    1    2    0    0  0.16920102325E+01 -0.54016776177E+02  0.22678486089E+03  0.26453175260E+03  0.12500000000E+03 0.  0.
         25    1    1    2    0    0  0.41617486770E+02 -0.14636166890E+02 -0.62204157139E+02  0.14642605558E+03  0.12500000000E+03 0.  0.
         25    1    1    2    0    0 -0.43309497002E+02  0.68652943066E+02  0.23063762530E+02  0.15081736062E+03  0.12500000000E+03 0.  0.
</event>
<event>
 5    0  0.5728184E-005  0.2645161E+03  0.7546771E-02  0.1104460E+00
         21   -1    0    0  502  501  0.00000000000E+00  0.00000000000E+00  0.16094020690E+03  0.16094020690E+03  0.00000000000E+00 0. -1.
         21   -1    0    0  501  502 -0.00000000000E+00 -0.00000000000E+00 -0.43475002338E+03  0.43475002338E+03  0.00000000000E+00 0. -1.
         25    1    1    2    0    0  0.16136818156E+02 -0.14829896515E+03 -0.77404468560E+02  0.20945030847E+03  0.12500000000E+03 0.  0.
         25    1    1    2    0    0  0.42942938921E+02  0.33012679659E+01 -0.79826388907E+02  0.15444172603E+03  0.12500000000E+03 0.  0.
         25    1    1    2    0    0 -0.59079757077E+02  0.14499769718E+03 -0.11657895901E+03  0.23179819578E+03  0.12500000000E+03 0.  0.
</event>
<event>
 5    0  0.5728184E-005  0.2881073E+03  0.7546771E-02  0.1091341E+00
         21   -1    0    0  502  501  0.00000000000E+00  0.00000000000E+00  0.26169709222E+03  0.26169709222E+03  0.00000000000E+00 0.  1.
         21   -1    0    0  501  502 -0.00000000000E+00 -0.00000000000E+00 -0.31718279696E+03  0.31718279696E+03  0.00000000000E+00 0.  1.
         25    1    1    2    0    0  0.56443838759E+02 -0.10951019313E+03  0.61957529135E+01  0.17561826980E+03  0.12500000000E+03 0.  0.
         25    1    1    2    0    0 -0.61087110086E+02 -0.87941201856E+02 -0.19412999265E+02  0.16573217715E+03  0.12500000000E+03 0.  0.
         25    1    1    2    0    0  0.46432713267E+01  0.19745139499E+03 -0.42268458392E+02  0.23752944223E+03  0.12500000000E+03 0.  0.
</event>
<event>
 5    0  0.5728184E-005  0.7691885E+03  0.7546771E-02  0.9605718E-01
         21   -1    0    0  502  501  0.00000000000E+00  0.00000000000E+00  0.76476411863E+03  0.76476411863E+03  0.00000000000E+00 0. -1.
         21   -1    0    0  501  502 -0.00000000000E+00 -0.00000000000E+00 -0.77363854650E+03  0.77363854650E+03  0.00000000000E+00 0. -1.
         25    1    1    2    0    0  0.15637011803E+03 -0.26578105721E+02  0.14559171261E+03  0.24895773999E+03  0.12500000000E+03 0.  0.
         25    1    1    2    0    0 -0.36273445176E+03  0.37631289080E+03 -0.50588819053E+03  0.73806201338E+03  0.12500000000E+03 0.  0.
         25    1    1    2    0    0  0.20636433373E+03 -0.34973478508E+03  0.35142205004E+03  0.55138291177E+03  0.12500000000E+03 0.  0.
</event>
<event>
 5    0  0.5728184E-005  0.2495416E+03  0.7546771E-02  0.1113595E+00
         21   -1    0    0  502  501  0.00000000000E+00  0.00000000000E+00  0.65865018998E+03  0.65865018998E+03  0.00000000000E+00 0.  1.
         21   -1    0    0  501  502 -0.00000000000E+00 -0.00000000000E+00 -0.94543386745E+02  0.94543386745E+02  0.00000000000E+00 0.  1.
         25    1    1    2    0    0  0.28750444540E+02  0.94585322729E+01  0.71280128409E+02  0.14704390025E+03  0.12500000000E+03 0.  0.
         25    1    1    2    0    0 -0.84896707780E+02 -0.27101886181E+02  0.42571904930E+03  0.45255239715E+03  0.12500000000E+03 0.  0.
         25    1    1    2    0    0  0.56146263240E+02  0.17643353908E+02  0.67107625521E+02  0.15359727932E+03  0.12500000000E+03 0.  0.
</event>
<event>
 5    0  0.5728184E-005  0.3280027E+03  0.7546771E-02  0.1072024E+00
         21   -1    0    0  502  501  0.00000000000E+00  0.00000000000E+00  0.40610333308E+03  0.40610333308E+03  0.00000000000E+00 0.  1.
         21   -1    0    0  501  502 -0.00000000000E+00 -0.00000000000E+00 -0.26492211807E+03  0.26492211807E+03  0.00000000000E+00 0.  1.
         25    1    1    2    0    0 -0.18154537881E+02  0.76744542602E+02 -0.17359088102E+03  0.22798707428E+03  0.12500000000E+03 0.  0.
         25    1    1    2    0    0 -0.23891954621E+02 -0.10227873096E+03  0.23707198601E+03  0.28785394014E+03  0.12500000000E+03 0.  0.
         25    1    1    2    0    0  0.42046492502E+02  0.25534188354E+02  0.77700110024E+02  0.15518443673E+03  0.12500000000E+03 0.  0.
</event>
<event>
 5    0  0.5728184E-005  0.3692627E+03  0.7546771E-02  0.1054975E+00
         21   -1    0    0  502  501  0.00000000000E+00  0.00000000000E+00  0.18669146960E+04  0.18669146960E+04  0.00000000000E+00 0. -1.
         21   -1    0    0  501  502 -0.00000000000E+00 -0.00000000000E+00 -0.73037597838E+02  0.73037597838E+02  0.00000000000E+00 0. -1.
         25    1    1    2    0    0  0.22094975995E+02 -0.14591700572E+03  0.27969691567E+03  0.34005194479E+03  0.12500000000E+03 0.  0.
         25    1    1    2    0    0  0.37985440546E+02 -0.11386895607E+03  0.26617576875E+03  0.31762174472E+03  0.12500000000E+03 0.  0.
         25    1    1    2    0    0 -0.60080416541E+02  0.25978596179E+03  0.12480044138E+04  0.12822786043E+04  0.12500000000E+03 0.  0.
</event>
<event>
 5    0  0.5728184E-005  0.3847466E+03  0.7546771E-02  0.1049193E+00
         21   -1    0    0  502  501  0.00000000000E+00  0.00000000000E+00  0.12244734717E+04  0.12244734717E+04  0.00000000000E+00 0. -1.
         21   -1    0    0  501  502 -0.00000000000E+00 -0.00000000000E+00 -0.12089271050E+03  0.12089271050E+03  0.00000000000E+00 0. -1.
         25    1    1    2    0    0 -0.39477854417E+02  0.21195854536E+03  0.44783479942E+03  0.51250944724E+03  0.12500000000E+03 0.  0.
         25    1    1    2    0    0  0.15064301518E+03 -0.20329964583E+03  0.19615982875E+03  0.34369716675E+03  0.12500000000E+03 0.  0.
         25    1    1    2    0    0 -0.11116516076E+03 -0.86588995232E+01  0.45958613301E+03  0.48915956820E+03  0.12500000000E+03 0.  0.
</event>
<event>
 5    0  0.5728184E-005  0.2658150E+03  0.7546771E-02  0.1103699E+00
         21   -1    0    0  502  501  0.00000000000E+00  0.00000000000E+00  0.32045971785E+02  0.32045971785E+02  0.00000000000E+00 0.  1.
         21   -1    0    0  501  502 -0.00000000000E+00 -0.00000000000E+00 -0.22048836461E+04  0.22048836461E+04  0.00000000000E+00 0.  1.
         25    1    1    2    0    0 -0.22030922823E+02 -0.98867407575E+02 -0.86814159908E+03  0.88292409747E+03  0.12500000000E+03 0.  0.
         25    1    1    2    0    0 -0.18144112800E+02 -0.66335363838E+02 -0.38981541705E+03  0.41510317837E+03  0.12500000000E+03 0.  0.
         25    1    1    2    0    0  0.40175035623E+02  0.16520277141E+03 -0.91488065817E+03  0.93890234202E+03  0.12500000000E+03 0.  0.
</event>
<event>
 5    0  0.5728184E-005  0.3071484E+03  0.7546771E-02  0.1081721E+00
         21   -1    0    0  502  501  0.00000000000E+00  0.00000000000E+00  0.17011894396E+04  0.17011894396E+04  0.00000000000E+00 0.  1.
         21   -1    0    0  501  502 -0.00000000000E+00 -0.00000000000E+00 -0.55455400905E+02  0.55455400905E+02  0.00000000000E+00 0.  1.
         25    1    1    2    0    0  0.11946180034E+02  0.20942778514E+03  0.64482130925E+03  0.68950868687E+03  0.12500000000E+03 0.  0.
         25    1    1    2    0    0  0.50102790433E+02 -0.18385146176E+03  0.59585292227E+03  0.63794776791E+03  0.12500000000E+03 0.  0.
         25    1    1    2    0    0 -0.62048970467E+02 -0.25576323384E+02  0.40505980718E+03  0.42918838573E+03  0.12500000000E+03 0.  0.
</event>
<event>
 5    0  0.5728184E-005  0.2773061E+03  0.7546771E-02  0.1097169E+00
         21   -1    0    0  502  501  0.00000000000E+00  0.00000000000E+00  0.16456660045E+03  0.16456660045E+03  0.00000000000E+00 0.  1.
         21   -1    0    0  501  502 -0.00000000000E+00 -0.00000000000E+00 -0.46727978639E+03  0.46727978639E+03  0.00000000000E+00 0.  1.
         25    1    1    2    0    0 -0.52705043123E+02 -0.13492336562E+03 -0.74937882635E+02  0.20548192722E+03  0.12500000000E+03 0.  0.
         25    1    1    2    0    0  0.12798748483E+03  0.32283407233E+02 -0.10734424580E+03  0.21111798067E+03  0.12500000000E+03 0.  0.
         25    1    1    2    0    0 -0.75282441704E+02  0.10263995839E+03 -0.12043105751E+03  0.21524647895E+03  0.12500000000E+03 0.  0.
</event>
<event>
 5    0  0.5728184E-005  0.3717057E+03  0.7546771E-02  0.1054043E+00
         21   -1    0    0  502  501  0.00000000000E+00  0.00000000000E+00  0.14741959173E+03  0.14741959173E+03  0.00000000000E+00 0. -1.
         21   -1    0    0  501  502 -0.00000000000E+00 -0.00000000000E+00 -0.93722348546E+03  0.93722348546E+03  0.00000000000E+00 0. -1.
         25    1    1    2    0    0  0.13473598496E+03  0.22856563530E+03 -0.18155108520E+03  0.34493743175E+03  0.12500000000E+03 0.  0.
         25    1    1    2    0    0 -0.12564275912E+03 -0.98096327725E+02 -0.16605844155E+03  0.26193395817E+03  0.12500000000E+03 0.  0.
         25    1    1    2    0    0 -0.90932258434E+01 -0.13046930758E+03 -0.44219436698E+03  0.47777168728E+03  0.12500000000E+03 0.  0.
</event>
<event>
 5    0  0.5728184E-005  0.3012631E+03  0.7546771E-02  0.1084611E+00
         21   -1    0    0  502  501  0.00000000000E+00  0.00000000000E+00  0.18582751835E+03  0.18582751835E+03  0.00000000000E+00 0. -1.
         21   -1    0    0  501  502 -0.00000000000E+00 -0.00000000000E+00 -0.48840686456E+03  0.48840686456E+03  0.00000000000E+00 0. -1.
         25    1    1    2    0    0  0.73429870743E+02  0.10382043153E+03 -0.20564373066E+03  0.27218554679E+03  0.12500000000E+03 0.  0.
         25    1    1    2    0    0  0.39428889681E+02 -0.13357842441E+03  0.29382900174E+02  0.18943650026E+03  0.12500000000E+03 0.  0.
         25    1    1    2    0    0 -0.11285876042E+03  0.29757992875E+02 -0.12631851572E+03  0.21261233586E+03  0.12500000000E+03 0.  0.
</event>
<event>
 5    0  0.5728184E-005  0.3486060E+03  0.7546771E-02  0.1063189E+00
         21   -1    0    0  502  501  0.00000000000E+00  0.00000000000E+00  0.12344074713E+03  0.12344074713E+03  0.00000000000E+00 0. -1.
         21   -1    0    0  501  502 -0.00000000000E+00 -0.00000000000E+00 -0.98448971818E+03  0.98448971818E+03  0.00000000000E+00 0. -1.
         25    1    1    2    0    0  0.11209764168E+03 -0.32715283697E+02 -0.42477549760E+03  0.45792509695E+03  0.12500000000E+03 0.  0.
         25    1    1    2    0    0 -0.24631820990E+03 -0.22790733817E+00 -0.34660207332E+03  0.44320504250E+03  0.12500000000E+03 0.  0.
         25    1    1    2    0    0  0.13422056822E+03  0.32943191035E+02 -0.89671400132E+02  0.20680032585E+03  0.12500000000E+03 0.  0.
</event>
<event>
 5    0  0.5728184E-005  0.3240430E+03  0.7546771E-02  0.1073804E+00
         21   -1    0    0  502  501  0.00000000000E+00  0.00000000000E+00  0.82520938031E+03  0.82520938031E+03  0.00000000000E+00 0. -1.
         21   -1    0    0  501  502 -0.00000000000E+00 -0.00000000000E+00 -0.12724509891E+03  0.12724509891E+03  0.00000000000E+00 0. -1.
         25    1    1    2    0    0  0.13861281214E+03 -0.97067011984E+01  0.72306644073E+02  0.20040205217E+03  0.12500000000E+03 0.  0.
         25    1    1    2    0    0 -0.15631831130E+01  0.13719409873E+03  0.21734252702E+03  0.28581014384E+03  0.12500000000E+03 0.  0.
         25    1    1    2    0    0 -0.13704962903E+03 -0.12748739753E+03  0.40831511031E+03  0.46624228321E+03  0.12500000000E+03 0.  0.
</event>
<event>
 5    0  0.5728184E-005  0.2319206E+03  0.7546771E-02  0.1125295E+00
         21   -1    0    0  502  501  0.00000000000E+00  0.00000000000E+00  0.37814046415E+03  0.37814046415E+03  0.00000000000E+00 0.  1.
         21   -1    0    0  501  502 -0.00000000000E+00 -0.00000000000E+00 -0.14224124267E+03  0.14224124267E+03  0.00000000000E+00 0.  1.
         25    1    1    2    0    0 -0.52328239955E+02  0.88741076486E+02  0.89970377375E+02  0.18529137097E+03  0.12500000000E+03 0.  0.
         25    1    1    2    0    0 -0.17621789989E+02 -0.91797127429E+02  0.96618938792E+02  0.18356867767E+03  0.12500000000E+03 0.  0.
         25    1    1    2    0    0  0.69950029944E+02  0.30560509436E+01  0.49309905310E+02  0.15152165818E+03  0.12500000000E+03 0.  0.
</event>
<event>
 5    0  0.5728184E-005  0.2598095E+03  0.7546771E-02  0.1107258E+00
         21   -1    0    0  502  501  0.00000000000E+00  0.00000000000E+00  0.18253924365E+04  0.18253924365E+04  0.00000000000E+00 0. -1.
         21   -1    0    0  501  502 -0.00000000000E+00 -0.00000000000E+00 -0.36978881941E+02  0.36978881941E+02  0.00000000000E+00 0. -1.
         25    1    1    2    0    0  0.14671960815E+03  0.60332693744E+01  0.67999786281E+03  0.70681336800E+03  0.12500000000E+03 0.  0.
         25    1    1    2    0    0 -0.79341785611E+02 -0.45990768665E+02  0.34808703988E+03  0.38105099013E+03  0.12500000000E+03 0.  0.
         25    1    1    2    0    0 -0.67377822535E+02  0.39957499291E+02  0.76032865183E+03  0.77450696027E+03  0.12500000000E+03 0.  0.
</event>
<event>
 5    0  0.5728184E-005  0.2335792E+03  0.7546771E-02  0.1124146E+00
         21   -1    0    0  502  501  0.00000000000E+00  0.00000000000E+00  0.23809715481E+03  0.23809715481E+03  0.00000000000E+00 0. -1.
         21   -1    0    0  501  502 -0.00000000000E+00 -0.00000000000E+00 -0.22914703600E+03  0.22914703600E+03  0.00000000000E+00 0. -1.
         25    1    1    2    0    0  0.24986212953E+02 -0.65389846728E+01 -0.61512689799E+02  0.14168937915E+03  0.12500000000E+03 0.  0.
         25    1    1    2    0    0  0.61753570036E+02 -0.46976846873E+02 -0.56086637464E+01  0.14723037955E+03  0.12500000000E+03 0.  0.
         25    1    1    2    0    0 -0.86739782989E+02  0.53515831546E+02  0.76071472361E+02  0.17832443211E+03  0.12500000000E+03 0.  0.
</event>
<event>
 5    0  0.5728184E-005  0.3039120E+03  0.7546771E-02  0.1083301E+00
         21   -1    0    0  502  501  0.00000000000E+00  0.00000000000E+00  0.35224245310E+02  0.35224245310E+02  0.00000000000E+00 0. -1.
         21   -1    0    0  501  502 -0.00000000000E+00 -0.00000000000E+00 -0.26221290202E+04  0.26221290202E+04  0.00000000000E+00 0. -1.
         25    1    1    2    0    0  0.11895323457E+03  0.12604045225E+03 -0.47916480400E+03  0.52465224388E+03  0.12500000000E+03 0.  0.
         25    1    1    2    0    0 -0.32151374899E+02 -0.68184437712E+01 -0.71197627052E+03  0.72361274993E+03  0.12500000000E+03 0.  0.
         25    1    1    2    0    0 -0.86801859674E+02 -0.11922200848E+03 -0.13957637004E+04  0.14090882717E+04  0.12500000000E+03 0.  0.
</event>
<event>
 5    0  0.5728184E-005  0.2743198E+03  0.7546771E-02  0.1098832E+00
         21   -1    0    0  502  501  0.00000000000E+00  0.00000000000E+00  0.65151366314E+03  0.65151366314E+03  0.00000000000E+00 0.  1.
         21   -1    0    0  501  502 -0.00000000000E+00 -0.00000000000E+00 -0.11550233524E+03  0.11550233524E+03  0.00000000000E+00 0.  1.
         25    1    1    2    0    0  0.14269789548E+03  0.50675468689E+02  0.10615728427E+03  0.22321528063E+03  0.12500000000E+03 0.  0.
         25    1    1    2    0    0 -0.14002803588E+03  0.18470691316E+02  0.21794929970E+03  0.28822892726E+03  0.12500000000E+03 0.  0.
         25    1    1    2    0    0 -0.26698595996E+01 -0.69146160004E+02  0.21190474392E+03  0.25557179048E+03  0.12500000000E+03 0.  0.
</event>
<event>
 5    0  0.5728184E-005  0.2567157E+03  0.7546771E-02  0.1109133E+00
         21   -1    0    0  502  501  0.00000000000E+00  0.00000000000E+00  0.10466672849E+03  0.10466672849E+03  0.00000000000E+00 0. -1.
         21   -1    0    0  501  502 -0.00000000000E+00 -0.00000000000E+00 -0.62964543750E+03  0.62964543750E+03  0.00000000000E+00 0. -1.
         25    1    1    2    0    0 -0.71277622813E+02  0.11699140430E+03 -0.10356042872E+03  0.21240821686E+03  0.12500000000E+03 0.  0.
         25    1    1    2    0    0  0.61929199507E+02 -0.75087315465E+01 -0.22019054481E+03  0.26076902198E+03  0.12500000000E+03 0.  0.
         25    1    1    2    0    0  0.93484233061E+01 -0.10948267275E+03 -0.20122773548E+03  0.26113492715E+03  0.12500000000E+03 0.  0.
</event>
<event>
 5    0  0.5728184E-005  0.5504215E+03  0.7546771E-02  0.1001396E+00
         21   -1    0    0  502  501  0.00000000000E+00  0.00000000000E+00  0.18480799845E+04  0.18480799845E+04  0.00000000000E+00 0.  1.
         21   -1    0    0  501  502 -0.00000000000E+00 -0.00000000000E+00 -0.16393436099E+03  0.16393436099E+03  0.00000000000E+00 0.  1.
         25    1    1    2    0    0 -0.36754223820E+02  0.45165757593E+03  0.97121599941E+03  0.10789953459E+04  0.12500000000E+03 0.  0.
         25    1    1    2    0    0  0.13285763951E+01 -0.34484433014E+03  0.25926645648E+03  0.44918089074E+03  0.12500000000E+03 0.  0.
         25    1    1    2    0    0  0.35425647425E+02 -0.10681324579E+03  0.45366316760E+03  0.48383810888E+03  0.12500000000E+03 0.  0.
</event>
<event>
 5    0  0.5728184E-005  0.3217736E+03  0.7546771E-02  0.1074836E+00
         21   -1    0    0  502  501  0.00000000000E+00  0.00000000000E+00  0.10198049642E+04  0.10198049642E+04  0.00000000000E+00 0. -1.
         21   -1    0    0  501  502 -0.00000000000E+00 -0.00000000000E+00 -0.10152750806E+03  0.10152750806E+03  0.00000000000E+00 0. -1.
         25    1    1    2    0    0  0.14114515175E+02  0.23259541405E+03  0.40804044544E+03  0.48623230178E+03  0.12500000000E+03 0.  0.
         25    1    1    2    0    0 -0.49325857170E+02 -0.51212458111E+02  0.12796814404E+03  0.19250091413E+03  0.12500000000E+03 0.  0.
         25    1    1    2    0    0  0.35211341995E+02 -0.18138295594E+03  0.38226886671E+03  0.44259925640E+03  0.12500000000E+03 0.  0.
</event>
<event>
 5    0  0.5728184E-005  0.3185457E+03  0.7546771E-02  0.1076321E+00
         21   -1    0    0  502  501  0.00000000000E+00  0.00000000000E+00  0.35778360031E+02  0.35778360031E+02  0.00000000000E+00 0. -1.
         21   -1    0    0  501  502 -0.00000000000E+00 -0.00000000000E+00 -0.28361095606E+04  0.28361095606E+04  0.00000000000E+00 0. -1.
         25    1    1    2    0    0 -0.90645317122E+02 -0.46429892001E+02 -0.25095872339E+03  0.29829111491E+03  0.12500000000E+03 0.  0.
         25    1    1    2    0    0  0.63774553599E+02 -0.75584233709E+02 -0.15995687615E+04  0.16074904021E+04  0.12500000000E+03 0.  0.
         25    1    1    2    0    0  0.26870763524E+02  0.12201412571E+03 -0.94980371566E+03  0.96610640360E+03  0.12500000000E+03 0.  0.
</event>
<event>
 5    0  0.5728184E-005  0.6288009E+03  0.7546771E-02  0.9847392E-01
         21   -1    0    0  502  501  0.00000000000E+00  0.00000000000E+00  0.93559589825E+03  0.93559589825E+03  0.00000000000E+00 0. -1.
         21   -1    0    0  501  502 -0.00000000000E+00 -0.00000000000E+00 -0.42260829542E+03  0.42260829542E+03  0.00000000000E+00 0. -1.
         25    1    1    2    0    0  0.68286418028E+02 -0.15291095749E+03 -0.18521535539E+03  0.27923918722E+03  0.12500000000E+03 0.  0.
         25    1    1    2    0    0  0.82330934040E+02 -0.28335130807E+03  0.15718524796E+03  0.35692933287E+03  0.12500000000E+03 0.  0.
         25    1    1    2    0    0 -0.15061735207E+03  0.43626226557E+03  0.54101771026E+03  0.72203567358E+03  0.12500000000E+03 0.  0.
</event>
<event>
 5    0  0.5728184E-005  0.3105074E+03  0.7546771E-02  0.1080103E+00
         21   -1    0    0  502  501  0.00000000000E+00  0.00000000000E+00  0.13114585074E+03  0.13114585074E+03  0.00000000000E+00 0. -1.
         21   -1    0    0  501  502 -0.00000000000E+00 -0.00000000000E+00 -0.73517251208E+03  0.73517251208E+03  0.00000000000E+00 0. -1.
         25    1    1    2    0    0 -0.53940757323E+02  0.58476288222E+02 -0.14777146119E+03  0.20926176509E+03  0.12500000000E+03 0.  0.
         25    1    1    2    0    0 -0.10013038240E+03  0.63268343963E+02 -0.34938078916E+02  0.17571182711E+03  0.12500000000E+03 0.  0.
         25    1    1    2    0    0  0.15407113973E+03 -0.12174463219E+03 -0.42131712123E+03  0.48134477062E+03  0.12500000000E+03 0.  0.
</event>
<event>
 5    0  0.5728184E-005  0.2371252E+03  0.7546771E-02  0.1121723E+00
         21   -1    0    0  502  501  0.00000000000E+00  0.00000000000E+00  0.27316656932E+02  0.27316656932E+02  0.00000000000E+00 0.  1.
         21   -1    0    0  501  502 -0.00000000000E+00 -0.00000000000E+00 -0.20583917810E+04  0.20583917810E+04  0.00000000000E+00 0.  1.
         25    1    1    2    0    0 -0.47407327027E+02  0.97294562102E+01 -0.91194662799E+03  0.92174495891E+03  0.12500000000E+03 0.  0.
         25    1    1    2    0    0  0.34922571564E+02 -0.64156050536E+01 -0.21555790669E+03  0.25169616034E+03  0.12500000000E+03 0.  0.
         25    1    1    2    0    0  0.12484755464E+02 -0.33138511565E+01 -0.90357058935E+03  0.91226731864E+03  0.12500000000E+03 0.  0.
</event>
<event>
 5    0  0.5728184E-005  0.3056219E+03  0.7546771E-02  0.1082464E+00
         21   -1    0    0  502  501  0.00000000000E+00  0.00000000000E+00  0.29668604109E+03  0.29668604109E+03  0.00000000000E+00 0.  1.
         21   -1    0    0  501  502 -0.00000000000E+00 -0.00000000000E+00 -0.31482698384E+03  0.31482698384E+03  0.00000000000E+00 0.  1.
         25    1    1    2    0    0  0.17301485244E+03 -0.11325482218E+03  0.22679420911E+02  0.24269353112E+03  0.12500000000E+03 0.  0.
         25    1    1    2    0    0 -0.95499929581E+02 -0.26019740141E+02 -0.46800414011E+02  0.16617022049E+03  0.12500000000E+03 0.  0.
         25    1    1    2    0    0 -0.77514922863E+02  0.13927456232E+03  0.59800503525E+01  0.20264927332E+03  0.12500000000E+03 0.  0.
</event>
<event>
 5    0  0.5728184E-005  0.4373753E+03  0.7546771E-02  0.1031555E+00
         21   -1    0    0  502  501  0.00000000000E+00  0.00000000000E+00  0.41788120081E+04  0.41788120081E+04  0.00000000000E+00 0. -1.
         21   -1    0    0  501  502 -0.00000000000E+00 -0.00000000000E+00 -0.45777872723E+02  0.45777872723E+02  0.00000000000E+00 0. -1.
         25    1    1    2    0    0 -0.33763255813E+03 -0.46863519114E+02  0.12803644818E+04  0.13308456485E+04  0.12500000000E+03 0.  0.
         25    1    1    2    0    0  0.17649527390E+03 -0.95389281326E+02  0.13071941685E+04  0.13283942528E+04  0.12500000000E+03 0.  0.
         25    1    1    2    0    0  0.16113728424E+03  0.14225280044E+03  0.15454754850E+04  0.15653499795E+04  0.12500000000E+03 0.  0.
</event>
<event>
 5    0  0.6816985E-005  0.2963860E+03  0.7546771E-02  0.1087061E+00
         21   -1    0    0  502  501  0.00000000000E+00  0.00000000000E+00  0.96378014903E+03  0.96378014903E+03  0.00000000000E+00 0. -1.
         21   -1    0    0  501  502 -0.00000000000E+00 -0.00000000000E+00 -0.91145948120E+02  0.91145948120E+02  0.00000000000E+00 0. -1.
         25    1    1    2    0    0 -0.10868845744E+03  0.15106643849E+03  0.18034307155E+03  0.28772012977E+03  0.12500000000E+03 0.  0.
         25    1    1    2    0    0  0.31449729547E+02 -0.11632814136E+03  0.29655340242E+03  0.34364260860E+03  0.12500000000E+03 0.  0.
         25    1    1    2    0    0  0.77238727890E+02 -0.34738297131E+02  0.39573772694E+03  0.42356335878E+03  0.12500000000E+03 0.  0.
</event>
<event>
 5    0  0.5728184E-005  0.3469131E+03  0.7546771E-02  0.1063889E+00
         21   -1    0    0  502  501  0.00000000000E+00  0.00000000000E+00  0.57958616818E+03  0.57958616818E+03  0.00000000000E+00 0. -1.
         21   -1    0    0  501  502 -0.00000000000E+00 -0.00000000000E+00 -0.20764594439E+03  0.20764594439E+03  0.00000000000E+00 0. -1.
         25    1    1    2    0    0 -0.19724731843E+03  0.23638962116E+02  0.33214184709E+02  0.23705165518E+03  0.12500000000E+03 0.  0.
         25    1    1    2    0    0  0.62539967776E+01 -0.54006118332E+02 -0.50537556226E+01  0.13640496230E+03  0.12500000000E+03 0.  0.
         25    1    1    2    0    0  0.19099332165E+03  0.30367156216E+02  0.34377979471E+03  0.41377549510E+03  0.12500000000E+03 0.  0.
</event>
<event>
 5    0  0.5728184E-005  0.5813830E+03  0.7546771E-02  0.9944801E-01
         21   -1    0    0  502  501  0.00000000000E+00  0.00000000000E+00  0.16878266374E+03  0.16878266374E+03  0.00000000000E+00 0. -1.
         21   -1    0    0  501  502 -0.00000000000E+00 -0.00000000000E+00 -0.20026121184E+04  0.20026121184E+04  0.00000000000E+00 0. -1.
         25    1    1    2    0    0 -0.10829467183E+03 -0.26236784931E+03 -0.15921906496E+04  0.16221161145E+04  0.12500000000E+03 0.  0.
         25    1    1    2    0    0  0.31422148435E+02  0.92463771192E+02 -0.27972160165E+03  0.32156814958E+03  0.12500000000E+03 0.  0.
         25    1    1    2    0    0  0.76872523390E+02  0.16990407812E+03  0.38082796616E+02  0.22771051801E+03  0.12500000000E+03 0.  0.
</event>
<event>
 5    0  0.5728184E-005  0.2404505E+03  0.7546771E-02  0.1119493E+00
         21   -1    0    0  502  501  0.00000000000E+00  0.00000000000E+00  0.79655209162E+03  0.79655209162E+03  0.00000000000E+00 0. -1.
         21   -1    0    0  501  502 -0.00000000000E+00 -0.00000000000E+00 -0.72583401041E+02  0.72583401041E+02  0.00000000000E+00 0. -1.
         25    1    1    2    0    0  0.35822630545E+01  0.10756329076E+02  0.21205663634E+03  0.24641742681E+03  0.12500000000E+03 0.  0.
         25    1    1    2    0    0  0.44496700710E+01  0.76102870439E+02  0.41985029354E+03  0.44464673106E+03  0.12500000000E+03 0.  0.
         25    1    1    2    0    0 -0.80319331255E+01 -0.86859199516E+02  0.92061760700E+02  0.17807133479E+03  0.12500000000E+03 0.  0.
</event>
<event>
 5    0  0.5728184E-005  0.3085282E+03  0.7546771E-02  0.1081053E+00
         21   -1    0    0  502  501  0.00000000000E+00  0.00000000000E+00  0.30267636602E+03  0.30267636602E+03  0.00000000000E+00 0.  1.
         21   -1    0    0  501  502 -0.00000000000E+00 -0.00000000000E+00 -0.31449315142E+03  0.31449315142E+03  0.00000000000E+00 0.  1.
         25    1    1    2    0    0 -0.21041498204E+03  0.26781205801E+02  0.13825623072E+02  0.24659246847E+03  0.12500000000E+03 0.  0.
         25    1    1    2    0    0  0.17541117890E+03  0.20263693040E+02 -0.66938627689E+02  0.22646297449E+03  0.12500000000E+03 0.  0.
         25    1    1    2    0    0  0.35003803143E+02 -0.47044898841E+02  0.41296219213E+02  0.14411407448E+03  0.12500000000E+03 0.  0.
</event>
<event>
 5    0  0.5728184E-005  0.2963539E+03  0.7546771E-02  0.1087078E+00
         21   -1    0    0  502  501  0.00000000000E+00  0.00000000000E+00  0.13886411831E+03  0.13886411831E+03  0.00000000000E+00 0.  1.
         21   -1    0    0  501  502 -0.00000000000E+00 -0.00000000000E+00 -0.63245747800E+03  0.63245747800E+03  0.00000000000E+00 0.  1.
         25    1    1    2    0    0  0.11950617202E+02  0.92041121427E+02 -0.40628843578E+03  0.43509732053E+03  0.12500000000E+03 0.  0.
         25    1    1    2    0    0  0.23145018446E+02 -0.34820637915E+02  0.47895371484E+02  0.14023956401E+03  0.12500000000E+03 0.  0.
         25    1    1    2    0    0 -0.35095635648E+02 -0.57220483512E+02 -0.13520029539E+03  0.19598471177E+03  0.12500000000E+03 0.  0.
</event>
<event>
 5    0  0.5728184E-005  0.2149163E+03  0.7546771E-02  0.1137731E+00
         21   -1    0    0  502  501  0.00000000000E+00  0.00000000000E+00  0.39567488736E+03  0.39567488736E+03  0.00000000000E+00 0. -1.
         21   -1    0    0  501  502 -0.00000000000E+00 -0.00000000000E+00 -0.11673471676E+03  0.11673471676E+03  0.00000000000E+00 0. -1.
         25    1    1    2    0    0 -0.71504962006E+02  0.11358727608E+02  0.73002244439E+02  0.16185273546E+03  0.12500000000E+03 0.  0.
         25    1    1    2    0    0  0.83318104578E+02  0.11527752795E+02  0.77250899553E+02  0.16931478706E+03  0.12500000000E+03 0.  0.
         25    1    1    2    0    0 -0.11813142572E+02 -0.22886480403E+02  0.12868702661E+03  0.18124208159E+03  0.12500000000E+03 0.  0.
</event>
<event>
 5    0  0.5728184E-005  0.2676827E+03  0.7546771E-02  0.1102613E+00
         21   -1    0    0  502  501  0.00000000000E+00  0.00000000000E+00  0.59377527638E+02  0.59377527638E+02  0.00000000000E+00 0.  1.
         21   -1    0    0  501  502 -0.00000000000E+00 -0.00000000000E+00 -0.12067532944E+04  0.12067532944E+04  0.00000000000E+00 0.  1.
         25    1    1    2    0    0 -0.91299427113E+02  0.10842929533E+03 -0.50478239347E+03  0.53900163472E+03  0.12500000000E+03 0.  0.
         25    1    1    2    0    0 -0.25107755979E+02  0.16621614962E+02 -0.23974394840E+03  0.27204565479E+03  0.12500000000E+03 0.  0.
         25    1    1    2    0    0  0.11640718309E+03 -0.12505091029E+03 -0.40284942487E+03  0.45508353250E+03  0.12500000000E+03 0.  0.
</event>
<event>
 5    0  0.7368735E-005  0.3627121E+03  0.7546771E-02  0.1057515E+00
         21   -1    0    0  502  501  0.00000000000E+00  0.00000000000E+00  0.19410637149E+03  0.19410637149E+03  0.00000000000E+00 0.  1.
         21   -1    0    0  501  502 -0.00000000000E+00 -0.00000000000E+00 -0.67777307716E+03  0.67777307716E+03  0.00000000000E+00 0.  1.
         25    1    1    2    0    0  0.13943018399E+03 -0.11498758105E+03 -0.26685555213E+03  0.34568743932E+03  0.12500000000E+03 0.  0.
         25    1    1    2    0    0 -0.43216535019E+02  0.13131711870E+03 -0.29533903098E+03  0.34923057968E+03  0.12500000000E+03 0.  0.
         25    1    1    2    0    0 -0.96213648970E+02 -0.16329537645E+02  0.78527877448E+02  0.17696142965E+03  0.12500000000E+03 0.  0.
</event>
<event>
 5    0  0.5728184E-005  0.3427858E+03  0.7546771E-02  0.1065616E+00
         21   -1    0    0  502  501  0.00000000000E+00  0.00000000000E+00  0.15267067989E+03  0.15267067989E+03  0.00000000000E+00 0.  1.
         21   -1    0    0  501  502 -0.00000000000E+00 -0.00000000000E+00 -0.76964421658E+03  0.76964421658E+03  0.00000000000E+00 0.  1.
         25    1    1    2    0    0 -0.55635026421E+02  0.98921054942E+02 -0.23553591769E+03  0.28979786024E+03  0.12500000000E+03 0.  0.
         25    1    1    2    0    0  0.57769522328E+01 -0.26338052387E+03 -0.20719811532E+03  0.35771319870E+03  0.12500000000E+03 0.  0.
         25    1    1    2    0    0  0.49858074188E+02  0.16445946893E+03 -0.17423950367E+03  0.27480383753E+03  0.12500000000E+03 0.  0.
</event>
<event>
 5    0  0.5728184E-005  0.2357446E+03  0.7546771E-02  0.1122661E+00
         21   -1    0    0  502  501  0.00000000000E+00  0.00000000000E+00  0.36147651188E+03  0.36147651188E+03  0.00000000000E+00 0.  1.
         21   -1    0    0  501  502 -0.00000000000E+00 -0.00000000000E+00 -0.15374581655E+03  0.15374581655E+03  0.00000000000E+00 0.  1.
         25    1    1    2    0    0 -0.81719194958E+02 -0.10872040586E+03  0.77427851572E+02  0.20029534611E+03  0.12500000000E+03 0.  0.
         25    1    1    2    0    0  0.24942427033E+02  0.59080732365E+02  0.70156411757E+02  0.15703368974E+03  0.12500000000E+03 0.  0.
         25    1    1    2    0    0  0.56776767924E+02  0.49639673494E+02  0.60146431996E+02  0.15789329258E+03  0.12500000000E+03 0.  0.
</event>
<event>
 5    0  0.5728184E-005  0.2768278E+03  0.7546771E-02  0.1097434E+00
         21   -1    0    0  502  501  0.00000000000E+00  0.00000000000E+00  0.10407413217E+04  0.10407413217E+04  0.00000000000E+00 0.  1.
         21   -1    0    0  501  502 -0.00000000000E+00 -0.00000000000E+00 -0.73633705506E+02  0.73633705506E+02  0.00000000000E+00 0.  1.
         25    1    1    2    0    0 -0.88769027549E+02  0.14644767815E+02  0.14411014387E+03  0.21091975499E+03  0.12500000000E+03 0.  0.
         25    1    1    2    0    0  0.13735743498E+02  0.80182942183E+02  0.16302910375E+03  0.22095579544E+03  0.12500000000E+03 0.  0.
         25    1    1    2    0    0  0.75033284052E+02 -0.94827709998E+02  0.65996836862E+03  0.68249947683E+03  0.12500000000E+03 0.  0.
</event>
<event>
 5    0  0.5728184E-005  0.4653756E+03  0.7546771E-02  0.1023234E+00
         21   -1    0    0  502  501  0.00000000000E+00  0.00000000000E+00  0.36939587520E+03  0.36939587520E+03  0.00000000000E+00 0.  1.
         21   -1    0    0  501  502 -0.00000000000E+00 -0.00000000000E+00 -0.58629368437E+03  0.58629368437E+03  0.00000000000E+00 0.  1.
         25    1    1    2    0    0 -0.18491580086E+02  0.44918067483E+02 -0.40977109677E+02  0.14022729705E+03  0.12500000000E+03 0.  0.
         25    1    1    2    0    0 -0.34329303945E+02  0.25630055867E+02  0.29343574402E+03  0.32181506606E+03  0.12500000000E+03 0.  0.
         25    1    1    2    0    0  0.52820884032E+02 -0.70548123351E+02 -0.46935644352E+03  0.49364719646E+03  0.12500000000E+03 0.  0.
</event>
<event>
 5    0  0.5728184E-005  0.3082008E+03  0.7546771E-02  0.1081212E+00
         21   -1    0    0  502  501  0.00000000000E+00  0.00000000000E+00  0.13031874259E+04  0.13031874259E+04  0.00000000000E+00 0.  1.
         21   -1    0    0  501  502 -0.00000000000E+00 -0.00000000000E+00 -0.72888751238E+02  0.72888751238E+02  0.00000000000E+00 0.  1.
         25    1    1    2    0    0  0.90235605240E+02 -0.81649054195E+02  0.71266457852E+03  0.73370623139E+03  0.12500000000E+03 0.  0.
         25    1    1    2    0    0  0.55244172873E+02 -0.47404553911E+02  0.15239042894E+03  0.21011176359E+03  0.12500000000E+03 0.  0.
         25    1    1    2    0    0 -0.14547977811E+03  0.12905360811E+03  0.36524366719E+03  0.43225818214E+03  0.12500000000E+03 0.  0.
</event>
<event>
 5    0  0.5728184E-005  0.3817585E+03  0.7546771E-02  0.1050286E+00
         21   -1    0    0  502  501  0.00000000000E+00  0.00000000000E+00  0.33157342384E+03  0.33157342384E+03  0.00000000000E+00 0. -1.
         21   -1    0    0  501  502 -0.00000000000E+00 -0.00000000000E+00 -0.43953932261E+03  0.43953932261E+03  0.00000000000E+00 0. -1.
         25    1    1    2    0    0  0.29470277675E+03  0.54764117671E+02  0.64231894106E+02  0.33105825987E+03  0.12500000000E+03 0.  0.
         25    1    1    2    0    0 -0.87865886094E+02 -0.24906689464E+01 -0.99405164946E+02  0.18229921610E+03  0.12500000000E+03 0.  0.
         25    1    1    2    0    0 -0.20683689066E+03 -0.52273448725E+02 -0.72792627927E+02  0.25775527048E+03  0.12500000000E+03 0.  0.
</event>
<event>
 5    0  0.5728184E-005  0.3163339E+03  0.7546771E-02  0.1077349E+00
         21   -1    0    0  502  501  0.00000000000E+00  0.00000000000E+00  0.95382979722E+02  0.95382979722E+02  0.00000000000E+00 0.  1.
         21   -1    0    0  501  502 -0.00000000000E+00 -0.00000000000E+00 -0.10491089919E+04  0.10491089919E+04  0.00000000000E+00 0.  1.
         25    1    1    2    0    0 -0.12716925423E+03 -0.54379816985E+02 -0.64903362582E+03  0.67527685519E+03  0.12500000000E+03 0.  0.
         25    1    1    2    0    0  0.42057668546E+02  0.11837510814E+03 -0.22579428065E+03  0.28703583554E+03  0.12500000000E+03 0.  0.
         25    1    1    2    0    0  0.85111585681E+02 -0.63995291157E+02 -0.78898105744E+02  0.18217928092E+03  0.12500000000E+03 0.  0.
</event>
<event>
 5    0  0.5728184E-005  0.2698253E+03  0.7546771E-02  0.1101380E+00
         21   -1    0    0  502  501  0.00000000000E+00  0.00000000000E+00  0.21870965991E+03  0.21870965991E+03  0.00000000000E+00 0. -1.
         21   -1    0    0  501  502 -0.00000000000E+00 -0.00000000000E+00 -0.33288731691E+03  0.33288731691E+03  0.00000000000E+00 0. -1.
         25    1    1    2    0    0 -0.91717346551E+02  0.88383706618E+02 -0.85183044302E+01  0.17866536532E+03  0.12500000000E+03 0.  0.
         25    1    1    2    0    0  0.40486027079E+02 -0.79076507054E+02  0.54909485501E+02  0.16288727376E+03  0.12500000000E+03 0.  0.
         25    1    1    2    0    0  0.51231319471E+02 -0.93071995641E+01 -0.16056883806E+03  0.21004433774E+03  0.12500000000E+03 0.  0.
</event>
<event>
 5    0  0.5728184E-005  0.2644373E+03  0.7546771E-02  0.1104506E+00
         21   -1    0    0  502  501  0.00000000000E+00  0.00000000000E+00  0.12657911103E+03  0.12657911103E+03  0.00000000000E+00 0. -1.
         21   -1    0    0  501  502 -0.00000000000E+00 -0.00000000000E+00 -0.55243788676E+03  0.55243788676E+03  0.00000000000E+00 0. -1.
         25    1    1    2    0    0 -0.11784158515E+01 -0.50722465603E+02 -0.31199952109E+02  0.13846513710E+03  0.12500000000E+03 0.  0.
         25    1    1    2    0    0  0.30512727419E+02  0.61955136655E+02 -0.19825598843E+02  0.14417877743E+03  0.12500000000E+03 0.  0.
         25    1    1    2    0    0 -0.29334311568E+02 -0.11232671051E+02 -0.37483322478E+03  0.39637308326E+03  0.12500000000E+03 0.  0.
</event>
<event>
 5    0  0.5728184E-005  0.3187554E+03  0.7546771E-02  0.1076224E+00
         21   -1    0    0  502  501  0.00000000000E+00  0.00000000000E+00  0.11277558577E+03  0.11277558577E+03  0.00000000000E+00 0.  1.
         21   -1    0    0  501  502 -0.00000000000E+00 -0.00000000000E+00 -0.90094867437E+03  0.90094867437E+03  0.00000000000E+00 0.  1.
         25    1    1    2    0    0 -0.50894644342E+02 -0.15290826492E+03 -0.24332079666E+03  0.31749206666E+03  0.12500000000E+03 0.  0.
         25    1    1    2    0    0  0.14254064697E+03  0.51941555482E+02 -0.11373373864E+03  0.22710377480E+03  0.12500000000E+03 0.  0.
         25    1    1    2    0    0 -0.91646002629E+02  0.10096670944E+03 -0.43111855330E+03  0.46912841868E+03  0.12500000000E+03 0.  0.
</event>
<event>
 5    0  0.5728184E-005  0.3085533E+03  0.7546771E-02  0.1081041E+00
         21   -1    0    0  502  501  0.00000000000E+00  0.00000000000E+00  0.66182889939E+02  0.66182889939E+02  0.00000000000E+00 0. -1.
         21   -1    0    0  501  502 -0.00000000000E+00 -0.00000000000E+00 -0.14385163556E+04  0.14385163556E+04  0.00000000000E+00 0. -1.
         25    1    1    2    0    0  0.45855030855E+01  0.10446858518E+03 -0.52078210496E+03  0.54568646032E+03  0.12500000000E+03 0.  0.
         25    1    1    2    0    0 -0.74393802147E+02  0.74821879061E+02 -0.15387778597E+03  0.22457988422E+03  0.12500000000E+03 0.  0.
         25    1    1    2    0    0  0.69808299062E+02 -0.17929046424E+03 -0.69767357472E+03  0.73443290098E+03  0.12500000000E+03 0.  0.
</event>
<event>
 5    0  0.5728184E-005  0.2830686E+03  0.7546771E-02  0.1094025E+00
         21   -1    0    0  502  501  0.00000000000E+00  0.00000000000E+00  0.92918231098E+02  0.92918231098E+02  0.00000000000E+00 0. -1.
         21   -1    0    0  501  502 -0.00000000000E+00 -0.00000000000E+00 -0.86234803415E+03  0.86234803415E+03  0.00000000000E+00 0. -1.
         25    1    1    2    0    0 -0.97231292781E+02  0.51790938013E+02 -0.56013115400E+02  0.17578024534E+03  0.12500000000E+03 0.  0.
         25    1    1    2    0    0  0.27070932141E+02  0.50601167140E+02 -0.29437595507E+03  0.32492386247E+03  0.12500000000E+03 0.  0.
         25    1    1    2    0    0  0.70160360640E+02 -0.10239210515E+03 -0.41904073258E+03  0.45456215743E+03  0.12500000000E+03 0.  0.
</event>
<event>
 5    0  0.5728184E-005  0.2833020E+03  0.7546771E-02  0.1093899E+00
         21   -1    0    0  502  501  0.00000000000E+00  0.00000000000E+00  0.13105903992E+04  0.13105903992E+04  0.00000000000E+00 0.  1.
         21   -1    0    0  501  502 -0.00000000000E+00 -0.00000000000E+00 -0.61239608944E+02  0.61239608944E+02  0.00000000000E+00 0.  1.
         25    1    1    2    0    0  0.76726647794E+02  0.39505427110E+02  0.26036603234E+03  0.30143511416E+03  0.12500000000E+03 0.  0.
         25    1    1    2    0    0 -0.10271525658E+03 -0.13861513390E+03  0.76547019347E+03  0.79456541353E+03  0.12500000000E+03 0.  0.
         25    1    1    2    0    0  0.25988608783E+02  0.99109706787E+02  0.22351456440E+03  0.27582948042E+03  0.12500000000E+03 0.  0.
</event>
<event>
 5    0  0.5728184E-005  0.5238827E+03  0.7546771E-02  0.1007727E+00
         21   -1    0    0  502  501  0.00000000000E+00  0.00000000000E+00  0.50335740591E+03  0.50335740591E+03  0.00000000000E+00 0.  1.
         21   -1    0    0  501  502 -0.00000000000E+00 -0.00000000000E+00 -0.54524495782E+03  0.54524495782E+03  0.00000000000E+00 0. -1.
         25    1    1    2    0    0 -0.75455838811E+02 -0.14699714199E+03  0.26218552073E+02  0.20884002451E+03  0.12500000000E+03 0.  0.
         25    1    1    2    0    0  0.35036544605E+03  0.11049987324E+03  0.19795335389E+03  0.43563367419E+03  0.12500000000E+03 0.  0.
         25    1    1    2    0    0 -0.27490960723E+03  0.36497268749E+02 -0.26605945788E+03  0.40412866504E+03  0.12500000000E+03 0.  0.
</event>
<event>
 5    0  0.5728184E-005  0.3634888E+03  0.7546771E-02  0.1057211E+00
         21   -1    0    0  502  501  0.00000000000E+00  0.00000000000E+00  0.15113564475E+03  0.15113564475E+03  0.00000000000E+00 0. -1.
         21   -1    0    0  501  502 -0.00000000000E+00 -0.00000000000E+00 -0.87420880176E+03  0.87420880176E+03  0.00000000000E+00 0. -1.
         25    1    1    2    0    0  0.73780128106E+01 -0.21614517824E+03 -0.14829666838E+03  0.29049969880E+03  0.12500000000E+03 0.  0.
         25    1    1    2    0    0  0.15440286693E+03  0.11114290092E+03 -0.30103521576E+03  0.37741249432E+03  0.12500000000E+03 0.  0.
         25    1    1    2    0    0 -0.16178087974E+03  0.10500227733E+03 -0.27374127287E+03  0.35743225339E+03  0.12500000000E+03 0.  0.
</event>
<event>
 5    0  0.5728184E-005  0.4535173E+03  0.7546771E-02  0.1026678E+00
         21   -1    0    0  502  501  0.00000000000E+00  0.00000000000E+00  0.20844052947E+03  0.20844052947E+03  0.00000000000E+00 0. -1.
         21   -1    0    0  501  502 -0.00000000000E+00 -0.00000000000E+00 -0.98674631827E+03  0.98674631827E+03  0.00000000000E+00 0. -1.
         25    1    1    2    0    0 -0.39849162431E+02  0.17163994501E+03 -0.25453141511E+03  0.33385545936E+03  0.12500000000E+03 0.  0.
         25    1    1    2    0    0 -0.17412711362E+03 -0.27914178161E+03 -0.11289164343E+03  0.36960777737E+03  0.12500000000E+03 0.  0.
         25    1    1    2    0    0  0.21397627605E+03  0.10750183661E+03 -0.41088273026E+03  0.49172361100E+03  0.12500000000E+03 0.  0.
</event>
<event>
 5    0  0.5728184E-005  0.5805389E+03  0.7546771E-02  0.9946625E-01
         21   -1    0    0  502  501  0.00000000000E+00  0.00000000000E+00  0.49206947869E+03  0.49206947869E+03  0.00000000000E+00 0. -1.
         21   -1    0    0  501  502 -0.00000000000E+00 -0.00000000000E+00 -0.68491423833E+03  0.68491423833E+03  0.00000000000E+00 0. -1.
         25    1    1    2    0    0 -0.27573003523E+02  0.29398354648E+03 -0.21175606565E+03  0.38425541956E+03  0.12500000000E+03 0.  0.
         25    1    1    2    0    0 -0.90927525761E+02  0.10851887688E+03  0.23745604967E+03  0.30340490620E+03  0.12500000000E+03 0.  0.
         25    1    1    2    0    0  0.11850052928E+03 -0.40250242336E+03 -0.21854474367E+03  0.48932339126E+03  0.12500000000E+03 0.  0.
</event>
<event>
 5    0  0.5728184E-005  0.2738696E+03  0.7546771E-02  0.1099085E+00
         21   -1    0    0  502  501  0.00000000000E+00  0.00000000000E+00  0.73262753709E+02  0.73262753709E+02  0.00000000000E+00 0. -1.
         21   -1    0    0  501  502 -0.00000000000E+00 -0.00000000000E+00 -0.10237743840E+04  0.10237743840E+04  0.00000000000E+00 0. -1.
         25    1    1    2    0    0 -0.11699594321E+03 -0.17832918770E+02 -0.55988057880E+03  0.58574510347E+03  0.12500000000E+03 0.  0.
         25    1    1    2    0    0 -0.14282921115E+02 -0.14004176100E+01 -0.25409198792E+03  0.28353783051E+03  0.12500000000E+03 0.  0.
         25    1    1    2    0    0  0.13127886432E+03  0.19233336380E+02 -0.13653906362E+03  0.22775420378E+03  0.12500000000E+03 0.  0.
</event>
<event>
 5    0  0.5728184E-005  0.3133616E+03  0.7546771E-02  0.1078746E+00
         21   -1    0    0  502  501  0.00000000000E+00  0.00000000000E+00  0.62382362622E+03  0.62382362622E+03  0.00000000000E+00 0. -1.
         21   -1    0    0  501  502 -0.00000000000E+00 -0.00000000000E+00 -0.15740901874E+03  0.15740901874E+03  0.00000000000E+00 0. -1.
         25    1    1    2    0    0 -0.12227468162E+03  0.16632041614E+03  0.21198408756E+03  0.32120994998E+03  0.12500000000E+03 0.  0.
         25    1    1    2    0    0  0.79181292152E+02 -0.20791816988E+02  0.21118390555E+03  0.25869986209E+03  0.12500000000E+03 0.  0.
         25    1    1    2    0    0  0.43093389465E+02 -0.14552859916E+03  0.43246614374E+02  0.20132283289E+03  0.12500000000E+03 0.  0.
</event>
<event>
 5    0  0.5728184E-005  0.6590062E+03  0.7546771E-02  0.9790025E-01
         21   -1    0    0  502  501  0.00000000000E+00  0.00000000000E+00  0.54373993378E+03  0.54373993378E+03  0.00000000000E+00 0.  1.
         21   -1    0    0  501  502 -0.00000000000E+00 -0.00000000000E+00 -0.79870752727E+03  0.79870752727E+03  0.00000000000E+00 0.  1.
         25    1    1    2    0    0  0.97610609537E+02 -0.22016931447E+03  0.38291735914E+03  0.46931126351E+03  0.12500000000E+03 0.  0.
         25    1    1    2    0    0 -0.25868975305E+03  0.25956907355E+03 -0.38673589737E+03  0.54725327463E+03  0.12500000000E+03 0.  0.
         25    1    1    2    0    0  0.16107914351E+03 -0.39399759077E+02 -0.25114905525E+03  0.32588292291E+03  0.12500000000E+03 0.  0.
</event>
<event>
 5    0  0.5728184E-005  0.4456673E+03  0.7546771E-02  0.1029022E+00
         21   -1    0    0  502  501  0.00000000000E+00  0.00000000000E+00  0.37391284451E+03  0.37391284451E+03  0.00000000000E+00 0. -1.
         21   -1    0    0  501  502 -0.00000000000E+00 -0.00000000000E+00 -0.53119159544E+03  0.53119159544E+03  0.00000000000E+00 0. -1.
         25    1    1    2    0    0  0.21785204644E+03 -0.60770791386E+02 -0.18351215621E+03  0.31694528661E+03  0.12500000000E+03 0.  0.
         25    1    1    2    0    0 -0.44867450624E+01  0.76441829551E+02 -0.20314068911E+03  0.25050872991E+03  0.12500000000E+03 0.  0.
         25    1    1    2    0    0 -0.21336530138E+03 -0.15671038166E+02  0.22937409439E+03  0.33765042344E+03  0.12500000000E+03 0.  0.
</event>
<event>
 5    0  0.5728184E-005  0.3564769E+03  0.7546771E-02  0.1059988E+00
         21   -1    0    0  502  501  0.00000000000E+00  0.00000000000E+00  0.44190880593E+03  0.44190880593E+03  0.00000000000E+00 0.  1.
         21   -1    0    0  501  502 -0.00000000000E+00 -0.00000000000E+00 -0.28756115827E+03  0.28756115827E+03  0.00000000000E+00 0.  1.
         25    1    1    2    0    0  0.16994080873E+00 -0.57045271549E+02  0.14597213436E+03  0.20046709429E+03  0.12500000000E+03 0.  0.
         25    1    1    2    0    0 -0.17755395010E+02 -0.16432494902E+03 -0.12435594856E+03  0.24167611563E+03  0.12500000000E+03 0.  0.
         25    1    1    2    0    0  0.17585454201E+02  0.22137022057E+03  0.13273146187E+03  0.28732675428E+03  0.12500000000E+03 0.  0.
</event>
<event>
 5    0  0.5728184E-005  0.2484301E+03  0.7546771E-02  0.1114301E+00
         21   -1    0    0  502  501  0.00000000000E+00  0.00000000000E+00  0.34539489154E+02  0.34539489154E+02  0.00000000000E+00 0.  1.
         21   -1    0    0  501  502 -0.00000000000E+00 -0.00000000000E+00 -0.17868677082E+04  0.17868677082E+04  0.00000000000E+00 0.  1.
         25    1    1    2    0    0 -0.15510261170E+02 -0.16019244399E+02 -0.58578954075E+03  0.59939266799E+03  0.12500000000E+03 0.  0.
         25    1    1    2    0    0  0.10587361584E+03 -0.15248218865E+02 -0.87862240871E+03  0.89389264892E+03  0.12500000000E+03 0.  0.
         25    1    1    2    0    0 -0.90363354670E+02  0.31267463264E+02 -0.28791626954E+03  0.32812188040E+03  0.12500000000E+03 0.  0.
</event>
<event>
 5    0  0.5728184E-005  0.3326600E+03  0.7546771E-02  0.1069966E+00
         21   -1    0    0  502  501  0.00000000000E+00  0.00000000000E+00  0.10238941887E+04  0.10238941887E+04  0.00000000000E+00 0.  1.
         21   -1    0    0  501  502 -0.00000000000E+00 -0.00000000000E+00 -0.10808019797E+03  0.10808019797E+03  0.00000000000E+00 0.  1.
         25    1    1    2    0    0 -0.19836702604E+01 -0.88647880030E+02  0.40598681975E+03  0.43395008860E+03  0.12500000000E+03 0.  0.
         25    1    1    2    0    0 -0.12191518182E+03 -0.78886354084E+02  0.87174884425E+02  0.21050137504E+03  0.12500000000E+03 0.  0.
         25    1    1    2    0    0  0.12389885208E+03  0.16753423411E+03  0.42265228654E+03  0.48752292302E+03  0.12500000000E+03 0.  0.
</event>
<event>
 5    0  0.5728184E-005  0.4507537E+03  0.7546771E-02  0.1027498E+00
         21   -1    0    0  502  501  0.00000000000E+00  0.00000000000E+00  0.49133123568E+03  0.49133123568E+03  0.00000000000E+00 0. -1.
         21   -1    0    0  501  502 -0.00000000000E+00 -0.00000000000E+00 -0.41352731787E+03  0.41352731787E+03  0.00000000000E+00 0. -1.
         25    1    1    2    0    0 -0.11633237383E+03  0.31933632356E+02 -0.24838492061E+03  0.30310566946E+03  0.12500000000E+03 0.  0.
         25    1    1    2    0    0  0.25918368826E+03 -0.86664687173E+02  0.24669473943E+03  0.38880618144E+03  0.12500000000E+03 0.  0.
         25    1    1    2    0    0 -0.14285131443E+03  0.54731054817E+02  0.79494098987E+02  0.21294670265E+03  0.12500000000E+03 0.  0.
</event>
<event>
 5    0  0.6302211E-005  0.2964520E+03  0.7546771E-02  0.1087028E+00
         21   -1    0    0  502  501  0.00000000000E+00  0.00000000000E+00  0.12182457631E+03  0.12182457631E+03  0.00000000000E+00 0. -1.
         21   -1    0    0  501  502 -0.00000000000E+00 -0.00000000000E+00 -0.72139608927E+03  0.72139608927E+03  0.00000000000E+00 0. -1.
         25    1    1    2    0    0  0.77128461361E+02  0.36188323612E+02 -0.25763574218E+03  0.29876340132E+03  0.12500000000E+03 0.  0.
         25    1    1    2    0    0 -0.19972929639E+02 -0.13437458880E+03 -0.26310228471E+02  0.18647433109E+03  0.12500000000E+03 0.  0.
         25    1    1    2    0    0 -0.57155531722E+02  0.98186265193E+02 -0.31562554231E+03  0.35798293317E+03  0.12500000000E+03 0.  0.
</event>
<event>
 5    0  0.5728184E-005  0.2460651E+03  0.7546771E-02  0.1115817E+00
         21   -1    0    0  502  501  0.00000000000E+00  0.00000000000E+00  0.62028931074E+03  0.62028931074E+03  0.00000000000E+00 0.  1.
         21   -1    0    0  501  502 -0.00000000000E+00 -0.00000000000E+00 -0.97612541091E+02  0.97612541091E+02  0.00000000000E+00 0.  1.
         25    1    1    2    0    0 -0.44928143733E+00  0.33852938934E+02  0.14660564557E+01  0.12951205600E+03  0.12500000000E+03 0.  0.
         25    1    1    2    0    0  0.25390210680E+02 -0.58446424321E+02  0.31327064700E+03  0.34325521931E+03  0.12500000000E+03 0.  0.
         25    1    1    2    0    0 -0.24940929242E+02  0.24593485388E+02  0.20794006620E+03  0.24513457652E+03  0.12500000000E+03 0.  0.
</event>
<event>
 5    0  0.5728184E-005  0.4370998E+03  0.7546771E-02  0.1031640E+00
         21   -1    0    0  502  501  0.00000000000E+00  0.00000000000E+00  0.10016198789E+04  0.10016198789E+04  0.00000000000E+00 0. -1.
         21   -1    0    0  501  502 -0.00000000000E+00 -0.00000000000E+00 -0.19074721483E+03  0.19074721483E+03  0.00000000000E+00 0. -1.
         25    1    1    2    0    0 -0.21695822847E+03  0.10380959069E+03  0.64209579664E+01  0.27113379118E+03  0.12500000000E+03 0.  0.
         25    1    1    2    0    0  0.16319299771E+03 -0.31098684532E+02  0.17078948410E+03  0.26905971561E+03  0.12500000000E+03 0.  0.
         25    1    1    2    0    0  0.53765230754E+02 -0.72710906157E+02  0.63366222196E+03  0.65217358690E+03  0.12500000000E+03 0.  0.
</event>
<event>
 5    0  0.5728184E-005  0.3489468E+03  0.7546771E-02  0.1063048E+00
         21   -1    0    0  502  501  0.00000000000E+00  0.00000000000E+00  0.15758813483E+03  0.15758813483E+03  0.00000000000E+00 0.  1.
         21   -1    0    0  501  502 -0.00000000000E+00 -0.00000000000E+00 -0.77267154060E+03  0.77267154060E+03  0.00000000000E+00 0.  1.
         25    1    1    2    0    0  0.65889837356E+02 -0.12073737184E+03 -0.59263612567E+02  0.19507987954E+03  0.12500000000E+03 0.  0.
         25    1    1    2    0    0 -0.10580812281E+03  0.17465334355E+03 -0.54214335926E+03  0.59265805593E+03  0.12500000000E+03 0.  0.
         25    1    1    2    0    0  0.39918285454E+02 -0.53915971709E+02 -0.13676433942E+02  0.14252173997E+03  0.12500000000E+03 0.  0.
</event>
<event>
 5    0  0.5728184E-005  0.4778365E+03  0.7546771E-02  0.1019731E+00
         21   -1    0    0  502  501  0.00000000000E+00  0.00000000000E+00  0.29154654847E+03  0.29154654847E+03  0.00000000000E+00 0. -1.
         21   -1    0    0  501  502 -0.00000000000E+00 -0.00000000000E+00 -0.78316030303E+03  0.78316030303E+03  0.00000000000E+00 0. -1.
         25    1    1    2    0    0 -0.67813832646E+02 -0.75743581119E+02 -0.33573555060E+03  0.37239651706E+03  0.12500000000E+03 0.  0.
         25    1    1    2    0    0  0.78500589612E+02  0.35148688156E+03 -0.71885653801E+02  0.38794061105E+03  0.12500000000E+03 0.  0.
         25    1    1    2    0    0 -0.10686756966E+02 -0.27574330044E+03 -0.83992550160E+02  0.31436972341E+03  0.12500000000E+03 0.  0.
</event>
<event>
 5    0  0.5728184E-005  0.4250097E+03  0.7546771E-02  0.1035448E+00
         21   -1    0    0  502  501  0.00000000000E+00  0.00000000000E+00  0.18011413240E+03  0.18011413240E+03  0.00000000000E+00 0. -1.
         21   -1    0    0  501  502 -0.00000000000E+00 -0.00000000000E+00 -0.10028821333E+04  0.10028821333E+04  0.00000000000E+00 0. -1.
         25    1    1    2    0    0  0.29592592084E+03  0.11033576833E+02 -0.93468656913E+02  0.33474659112E+03  0.12500000000E+03 0.  0.
         25    1    1    2    0    0 -0.14910703865E+03 -0.94159411636E+02 -0.44597014524E+03  0.49559386015E+03  0.12500000000E+03 0.  0.
         25    1    1    2    0    0 -0.14681888219E+03  0.83125834802E+02 -0.28332919871E+03  0.35265581439E+03  0.12500000000E+03 0.  0.
</event>
<event>
 5    0  0.5728184E-005  0.2704312E+03  0.7546771E-02  0.1101033E+00
         21   -1    0    0  502  501  0.00000000000E+00  0.00000000000E+00  0.70086006590E+02  0.70086006590E+02  0.00000000000E+00 0.  1.
         21   -1    0    0  501  502 -0.00000000000E+00 -0.00000000000E+00 -0.10434753251E+04  0.10434753251E+04  0.00000000000E+00 0.  1.
         25    1    1    2    0    0  0.47461978550E+02 -0.52816159464E+02 -0.35049590366E+03  0.37883316195E+03  0.12500000000E+03 0.  0.
         25    1    1    2    0    0 -0.14844551505E+03 -0.25218443441E+02 -0.22265402396E+03  0.29643187280E+03  0.12500000000E+03 0.  0.
         25    1    1    2    0    0  0.10098353650E+03  0.78034602905E+02 -0.40023939092E+03  0.43829629697E+03  0.12500000000E+03 0.  0.
</event>
<event>
 5    0  0.5728184E-005  0.3736765E+03  0.7546771E-02  0.1053296E+00
         21   -1    0    0  502  501  0.00000000000E+00  0.00000000000E+00  0.55890549728E+03  0.55890549728E+03  0.00000000000E+00 0. -1.
         21   -1    0    0  501  502 -0.00000000000E+00 -0.00000000000E+00 -0.24983490173E+03  0.24983490173E+03  0.00000000000E+00 0. -1.
         25    1    1    2    0    0  0.20460908914E+03  0.14928104153E+03  0.56736702992E+02  0.28808637973E+03  0.12500000000E+03 0.  0.
         25    1    1    2    0    0 -0.22552069994E+03 -0.12287458470E+03  0.64982355710E+02  0.29292568378E+03  0.12500000000E+03 0.  0.
         25    1    1    2    0    0  0.20911610793E+02 -0.26406456827E+02  0.18735153685E+03  0.22772833549E+03  0.12500000000E+03 0.  0.
</event>
<event>
 5    0  0.5728184E-005  0.3412516E+03  0.7546771E-02  0.1066264E+00
         21   -1    0    0  502  501  0.00000000000E+00  0.00000000000E+00  0.19059903065E+04  0.19059903065E+04  0.00000000000E+00 0. -1.
         21   -1    0    0  501  502 -0.00000000000E+00 -0.00000000000E+00 -0.61098241923E+02  0.61098241923E+02  0.00000000000E+00 0. -1.
         25    1    1    2    0    0  0.11663120724E+03  0.10555927228E+02  0.11808742971E+04  0.11932323209E+04  0.12500000000E+03 0.  0.
         25    1    1    2    0    0 -0.16411001209E+03 -0.48516164932E+02  0.56432275297E+03  0.60280269064E+03  0.12500000000E+03 0.  0.
         25    1    1    2    0    0  0.47478804846E+02  0.37960237704E+02  0.99695014486E+02  0.17105353685E+03  0.12500000000E+03 0.  0.
</event>
<event>
 5    0  0.5728184E-005  0.3142050E+03  0.7546771E-02  0.1078348E+00
         21   -1    0    0  502  501  0.00000000000E+00  0.00000000000E+00  0.28942997476E+03  0.28942997476E+03  0.00000000000E+00 0. -1.
         21   -1    0    0  501  502 -0.00000000000E+00 -0.00000000000E+00 -0.34110069705E+03  0.34110069705E+03  0.00000000000E+00 0. -1.
         25    1    1    2    0    0  0.10253452762E+03 -0.44433654173E+02 -0.92891789968E+02  0.19168089007E+03  0.12500000000E+03 0.  0.
         25    1    1    2    0    0 -0.18202732286E+03 -0.44405462076E+02  0.11276595036E+03  0.25188678189E+03  0.12500000000E+03 0.  0.
         25    1    1    2    0    0  0.79492795249E+02  0.88839116248E+02 -0.71544882680E+02  0.18696299984E+03  0.12500000000E+03 0.  0.
</event>
<event>
 5    0  0.5728184E-005  0.2694362E+03  0.7546771E-02  0.1101603E+00
         21   -1    0    0  502  501  0.00000000000E+00  0.00000000000E+00  0.64451489555E+03  0.64451489555E+03  0.00000000000E+00 0. -1.
         21   -1    0    0  501  502 -0.00000000000E+00 -0.00000000000E+00 -0.11263644376E+03  0.11263644376E+03  0.00000000000E+00 0. -1.
         25    1    1    2    0    0  0.74228503840E+02  0.46775291611E+02  0.29666143401E+03  0.33366271160E+03  0.12500000000E+03 0.  0.
         25    1    1    2    0    0  0.34680127179E+01 -0.35411999412E+02 -0.17177004936E+02  0.13109571432E+03  0.12500000000E+03 0.  0.
         25    1    1    2    0    0 -0.77696516558E+02 -0.11363292199E+02  0.25239402273E+03  0.29239291339E+03  0.12500000000E+03 0.  0.
</event>
<event>
 5    0  0.5728184E-005  0.4829788E+03  0.7546771E-02  0.1018320E+00
         21   -1    0    0  502  501  0.00000000000E+00  0.00000000000E+00  0.15547734858E+04  0.15547734858E+04  0.00000000000E+00 0. -1.
         21   -1    0    0  501  502 -0.00000000000E+00 -0.00000000000E+00 -0.15003373872E+03  0.15003373872E+03  0.00000000000E+00 0. -1.
         25    1    1    2    0    0  0.34072089022E+03  0.12091854634E+03  0.44804238182E+03  0.58913410679E+03  0.12500000000E+03 0.  0.
         25    1    1    2    0    0  0.39880559188E+02  0.47227589320E+02  0.24023044963E+03  0.27777072042E+03  0.12500000000E+03 0.  0.
         25    1    1    2    0    0 -0.38060144941E+03 -0.16814613566E+03  0.71646691568E+03  0.83790239735E+03  0.12500000000E+03 0.  0.
</event>
<event>
 5    0  0.5728184E-005  0.2984688E+03  0.7546771E-02  0.1086009E+00
         21   -1    0    0  502  501  0.00000000000E+00  0.00000000000E+00  0.94896408084E+03  0.94896408084E+03  0.00000000000E+00 0. -1.
         21   -1    0    0  501  502 -0.00000000000E+00 -0.00000000000E+00 -0.93874594644E+02  0.93874594644E+02  0.00000000000E+00 0. -1.
         25    1    1    2    0    0  0.80157324928E+02 -0.37926985388E+02  0.35991166516E+02  0.15742940331E+03  0.12500000000E+03 0.  0.
         25    1    1    2    0    0  0.36223810473E+02 -0.41428005993E+02  0.46104337861E+03  0.48084762772E+03  0.12500000000E+03 0.  0.
         25    1    1    2    0    0 -0.11638113540E+03  0.79354991381E+02  0.35805494107E+03  0.40456164445E+03  0.12500000000E+03 0.  0.
</event>
<event>
 5    0  0.5728184E-005  0.2566324E+03  0.7546771E-02  0.1109184E+00
         21   -1    0    0  502  501  0.00000000000E+00  0.00000000000E+00  0.91752596674E+02  0.91752596674E+02  0.00000000000E+00 0. -1.
         21   -1    0    0  501  502 -0.00000000000E+00 -0.00000000000E+00 -0.71780203375E+03  0.71780203375E+03  0.00000000000E+00 0. -1.
         25    1    1    2    0    0  0.65291450190E+02  0.56329316360E+02 -0.13892294789E+03  0.20581678940E+03  0.12500000000E+03 0.  0.
         25    1    1    2    0    0  0.69694087218E+02 -0.80579539678E+02 -0.28807606417E+03  0.33160691603E+03  0.12500000000E+03 0.  0.
         25    1    1    2    0    0 -0.13498553741E+03  0.24250223318E+02 -0.19905042501E+03  0.27213092499E+03  0.12500000000E+03 0.  0.
</event>
<event>
 5    0  0.5728184E-005  0.3043863E+03  0.7546771E-02  0.1083068E+00
         21   -1    0    0  502  501  0.00000000000E+00  0.00000000000E+00  0.24217841777E+03  0.24217841777E+03  0.00000000000E+00 0. -1.
         21   -1    0    0  501  502 -0.00000000000E+00 -0.00000000000E+00 -0.38257331609E+03  0.38257331609E+03  0.00000000000E+00 0. -1.
         25    1    1    2    0    0  0.86831941045E+02  0.99764258398E+02 -0.56507395540E+02  0.19055387425E+03  0.12500000000E+03 0.  0.
         25    1    1    2    0    0 -0.11076235879E+03 -0.20191845860E+03 -0.38870511556E+02  0.26490617342E+03  0.12500000000E+03 0.  0.
         25    1    1    2    0    0  0.23930417745E+02  0.10215420020E+03 -0.45016991223E+02  0.16929168618E+03  0.12500000000E+03 0.  0.
</event>
<event>
 5    0  0.5728184E-005  0.2525100E+03  0.7546771E-02  0.1111729E+00
         21   -1    0    0  502  501  0.00000000000E+00  0.00000000000E+00  0.26458148739E+03  0.26458148739E+03  0.00000000000E+00 0. -1.
         21   -1    0    0  501  502 -0.00000000000E+00 -0.00000000000E+00 -0.24098918846E+03  0.24098918846E+03  0.00000000000E+00 0. -1.
         25    1    1    2    0    0 -0.17689122113E+01 -0.75067312693E+00  0.11849101955E+02  0.12557505237E+03  0.12500000000E+03 0.  0.
         25    1    1    2    0    0 -0.13546706946E+02 -0.10906402485E+03 -0.85030003477E+02  0.18690526016E+03  0.12500000000E+03 0.  0.
         25    1    1    2    0    0  0.15315619157E+02  0.10981469798E+03  0.96773200442E+02  0.19309036332E+03  0.12500000000E+03 0.  0.
</event>
<event>
 5    0  0.6820313E-005  0.3252223E+03  0.7546771E-02  0.1073271E+00
         21   -1    0    0  502  501  0.00000000000E+00  0.00000000000E+00  0.15412097163E+03  0.15412097163E+03  0.00000000000E+00 0. -1.
         21   -1    0    0  501  502 -0.00000000000E+00 -0.00000000000E+00 -0.68627632575E+03  0.68627632575E+03  0.00000000000E+00 0. -1.
         25    1    1    2    0    0 -0.69656516387E+02  0.10915103226E+03 -0.40803026748E+02  0.18454231252E+03  0.12500000000E+03 0.  0.
         25    1    1    2    0    0 -0.68065106447E+02  0.84815367870E+02 -0.18872846927E+03  0.25113729404E+03  0.12500000000E+03 0.  0.
         25    1    1    2    0    0  0.13772162283E+03 -0.19396640013E+03 -0.30262385810E+03  0.40471769082E+03  0.12500000000E+03 0.  0.
</event>
<event>
 5    0  0.5728184E-005  0.3793280E+03  0.7546771E-02  0.1051182E+00
         21   -1    0    0  502  501  0.00000000000E+00  0.00000000000E+00  0.16544339638E+04  0.16544339638E+04  0.00000000000E+00 0.  1.
         21   -1    0    0  501  502 -0.00000000000E+00 -0.00000000000E+00 -0.86972186286E+02  0.86972186286E+02  0.00000000000E+00 0.  1.
         25    1    1    2    0    0  0.31755466346E+02 -0.10471299788E+03  0.68171110542E+02  0.17957038141E+03  0.12500000000E+03 0.  0.
         25    1    1    2    0    0  0.34653680316E+02 -0.85796310508E+02  0.28600402258E+03  0.32555365977E+03  0.12500000000E+03 0.  0.
         25    1    1    2    0    0 -0.66409146663E+02  0.19050930839E+03  0.12132866444E+04  0.12362821090E+04  0.12500000000E+03 0.  0.
</event>
<event>
 5    0  0.5728184E-005  0.2913298E+03  0.7546771E-02  0.1089657E+00
         21   -1    0    0  502  501  0.00000000000E+00  0.00000000000E+00  0.12014925165E+03  0.12014925165E+03  0.00000000000E+00 0. -1.
         21   -1    0    0  501  502 -0.00000000000E+00 -0.00000000000E+00 -0.70639702189E+03  0.70639702189E+03  0.00000000000E+00 0. -1.
         25    1    1    2    0    0 -0.10257998723E+03 -0.34980563528E+02 -0.26311641397E+03  0.31080788424E+03  0.12500000000E+03 0.  0.
         25    1    1    2    0    0  0.19922721738E+02 -0.12779921926E+03 -0.16144279836E+03  0.24169884656E+03  0.12500000000E+03 0.  0.
         25    1    1    2    0    0  0.82657265493E+02  0.16277978279E+03 -0.16168855792E+03  0.27403954274E+03  0.12500000000E+03 0.  0.
</event>
<event>
 5    0  0.5728184E-005  0.3157467E+03  0.7546771E-02  0.1077624E+00
         21   -1    0    0  502  501  0.00000000000E+00  0.00000000000E+00  0.10562637854E+04  0.10562637854E+04  0.00000000000E+00 0. -1.
         21   -1    0    0  501  502 -0.00000000000E+00 -0.00000000000E+00 -0.94385472102E+02  0.94385472102E+02  0.00000000000E+00 0. -1.
         25    1    1    2    0    0 -0.71897608189E+02 -0.86858170183E+02  0.13062849168E+03  0.21307841427E+03  0.12500000000E+03 0.  0.
         25    1    1    2    0    0 -0.23022486664E+02  0.10713979602E+03  0.11040480013E+03  0.19955748715E+03  0.12500000000E+03 0.  0.
         25    1    1    2    0    0  0.94920094853E+02 -0.20281625840E+02  0.72084502152E+03  0.73801335611E+03  0.12500000000E+03 0.  0.
</event>
<event>
 5    0  0.5728184E-005  0.3327349E+03  0.7546771E-02  0.1069933E+00
         21   -1    0    0  502  501  0.00000000000E+00  0.00000000000E+00  0.61204177583E+03  0.61204177583E+03  0.00000000000E+00 0.  1.
         21   -1    0    0  501  502 -0.00000000000E+00 -0.00000000000E+00 -0.18089049810E+03  0.18089049810E+03  0.00000000000E+00 0.  1.
         25    1    1    2    0    0 -0.61506054526E+02  0.81907901717E+02  0.61155945461E+02  0.17279163398E+03  0.12500000000E+03 0.  0.
         25    1    1    2    0    0  0.13631402360E+03 -0.18605552507E+03  0.35363568854E+03  0.44031962441E+03  0.12500000000E+03 0.  0.
         25    1    1    2    0    0 -0.74807969070E+02  0.10414762335E+03  0.16359643734E+02  0.17982101554E+03  0.12500000000E+03 0.  0.
</event>
<event>
 5    0  0.5728184E-005  0.5370979E+03  0.7546771E-02  0.1004525E+00
         21   -1    0    0  502  501  0.00000000000E+00  0.00000000000E+00  0.73270436485E+03  0.73270436485E+03  0.00000000000E+00 0.  1.
         21   -1    0    0  501  502 -0.00000000000E+00 -0.00000000000E+00 -0.39371146103E+03  0.39371146103E+03  0.00000000000E+00 0.  1.
         25    1    1    2    0    0  0.11225228406E+03 -0.37265992302E+03  0.64488410260E+02  0.41383541241E+03  0.12500000000E+03 0.  0.
         25    1    1    2    0    0 -0.25520053969E+03  0.31140513244E+03  0.70876508830E+02  0.42749146363E+03  0.12500000000E+03 0.  0.
         25    1    1    2    0    0  0.14294825563E+03  0.61254790581E+02  0.20362798473E+03  0.28508894985E+03  0.12500000000E+03 0.  0.
</event>
<event>
 5    0  0.5728184E-005  0.2319148E+03  0.7546771E-02  0.1125299E+00
         21   -1    0    0  502  501  0.00000000000E+00  0.00000000000E+00  0.17052296259E+04  0.17052296259E+04  0.00000000000E+00 0. -1.
         21   -1    0    0  501  502 -0.00000000000E+00 -0.00000000000E+00 -0.31540898684E+02  0.31540898684E+02  0.00000000000E+00 0. -1.
         25    1    1    2    0    0  0.12778228425E+01 -0.38952291425E+02  0.56255386847E+03  0.57759048535E+03  0.12500000000E+03 0.  0.
         25    1    1    2    0    0  0.79955028773E+02  0.72522683809E+02  0.41896847152E+03  0.45034645155E+03  0.12500000000E+03 0.  0.
         25    1    1    2    0    0 -0.81232851616E+02 -0.33570392383E+02  0.69216638725E+03  0.70883358771E+03  0.12500000000E+03 0.  0.
</event>
<event>
 5    0  0.5728184E-005  0.2336582E+03  0.7546771E-02  0.1124091E+00
         21   -1    0    0  502  501  0.00000000000E+00  0.00000000000E+00  0.14316620299E+04  0.14316620299E+04  0.00000000000E+00 0.  1.
         21   -1    0    0  501  502 -0.00000000000E+00 -0.00000000000E+00 -0.38134810766E+02  0.38134810766E+02  0.00000000000E+00 0.  1.
         25    1    1    2    0    0 -0.84801706908E+02 -0.23140978762E+02  0.64794466342E+03  0.66572075320E+03  0.12500000000E+03 0.  0.
         25    1    1    2    0    0  0.22974763084E+02 -0.56390036254E+01  0.17726456419E+03  0.21819111764E+03  0.12500000000E+03 0.  0.
         25    1    1    2    0    0  0.61826943825E+02  0.28779982387E+02  0.56831799152E+03  0.58588496981E+03  0.12500000000E+03 0.  0.
</event>
<event>
 5    0  0.5728184E-005  0.2820064E+03  0.7546771E-02  0.1094598E+00
         21   -1    0    0  502  501  0.00000000000E+00  0.00000000000E+00  0.40048924558E+03  0.40048924558E+03  0.00000000000E+00 0. -1.
         21   -1    0    0  501  502 -0.00000000000E+00 -0.00000000000E+00 -0.19857609369E+03  0.19857609369E+03  0.00000000000E+00 0. -1.
         25    1    1    2    0    0 -0.16920352029E+03 -0.60905487783E+02  0.10749545109E+03  0.24396635367E+03  0.12500000000E+03 0.  0.
         25    1    1    2    0    0  0.13762241923E+03  0.93634924315E+02  0.43445019547E+02  0.21264970974E+03  0.12500000000E+03 0.  0.
         25    1    1    2    0    0  0.31581101053E+02 -0.32729436532E+02  0.50972681253E+02  0.14244927586E+03  0.12500000000E+03 0.  0.
</event>
<event>
 5    0  0.5728184E-005  0.6477424E+03  0.7546771E-02  0.9811025E-01
         21   -1    0    0  502  501  0.00000000000E+00  0.00000000000E+00  0.11532777703E+04  0.11532777703E+04  0.00000000000E+00 0. -1.
         21   -1    0    0  501  502 -0.00000000000E+00 -0.00000000000E+00 -0.36380669575E+03  0.36380669575E+03  0.00000000000E+00 0. -1.
         25    1    1    2    0    0  0.17959632419E+03  0.24341468687E+03 -0.14914744232E+03  0.35968807180E+03  0.12500000000E+03 0.  0.
         25    1    1    2    0    0 -0.19994562551E+03 -0.24491145632E+03  0.17316942423E+03  0.38153967564E+03  0.12500000000E+03 0.  0.
         25    1    1    2    0    0  0.20349301325E+02  0.14967694510E+01  0.76544909262E+03  0.77585671859E+03  0.12500000000E+03 0.  0.
</event>
<event>
 5    0  0.5728184E-005  0.2739746E+03  0.7546771E-02  0.1099026E+00
         21   -1    0    0  502  501  0.00000000000E+00  0.00000000000E+00  0.76136208606E+03  0.76136208606E+03  0.00000000000E+00 0. -1.
         21   -1    0    0  501  502 -0.00000000000E+00 -0.00000000000E+00 -0.98589236185E+02  0.98589236185E+02  0.00000000000E+00 0. -1.
         25    1    1    2    0    0  0.36820116645E+01 -0.63838808334E+02  0.85042555551E+02  0.16415293757E+03  0.12500000000E+03 0.  0.
         25    1    1    2    0    0 -0.12185290559E+03  0.50247661618E+02  0.15351863910E+03  0.23783593221E+03  0.12500000000E+03 0.  0.
         25    1    1    2    0    0  0.11817089392E+03  0.13591146716E+02  0.42421165522E+03  0.45796245246E+03  0.12500000000E+03 0.  0.
</event>
<event>
 5    0  0.5728184E-005  0.2339985E+03  0.7546771E-02  0.1123857E+00
         21   -1    0    0  502  501  0.00000000000E+00  0.00000000000E+00  0.67752086018E+03  0.67752086018E+03  0.00000000000E+00 0.  1.
         21   -1    0    0  501  502 -0.00000000000E+00 -0.00000000000E+00 -0.80817127425E+02  0.80817127425E+02  0.00000000000E+00 0.  1.
         25    1    1    2    0    0 -0.13976673384E+02 -0.30326262492E+02  0.13795037974E+03  0.18913047577E+03  0.12500000000E+03 0.  0.
         25    1    1    2    0    0 -0.56526181661E+02  0.76539865365E+02  0.34898363184E+03  0.38271155652E+03  0.12500000000E+03 0.  0.
         25    1    1    2    0    0  0.70502855045E+02 -0.46213602873E+02  0.10976972118E+03  0.18649595531E+03  0.12500000000E+03 0.  0.
</event>
<event>
 5    0  0.5728184E-005  0.2486908E+03  0.7546771E-02  0.1114135E+00
         21   -1    0    0  502  501  0.00000000000E+00  0.00000000000E+00  0.44625343842E+03  0.44625343842E+03  0.00000000000E+00 0.  1.
         21   -1    0    0  501  502 -0.00000000000E+00 -0.00000000000E+00 -0.13859189406E+03  0.13859189406E+03  0.00000000000E+00 0.  1.
         25    1    1    2    0    0  0.27148389352E+02 -0.52439963685E+02  0.24798584580E+01  0.13826834249E+03  0.12500000000E+03 0.  0.
         25    1    1    2    0    0  0.69000336610E+01  0.11547097112E+03  0.10548343429E+03  0.20033200080E+03  0.12500000000E+03 0.  0.
         25    1    1    2    0    0 -0.34048423013E+02 -0.63031007432E+02  0.19969825161E+03  0.24624498919E+03  0.12500000000E+03 0.  0.
</event>
<event>
 5    0  0.5728184E-005  0.2723727E+03  0.7546771E-02  0.1099929E+00
         21   -1    0    0  502  501  0.00000000000E+00  0.00000000000E+00  0.79161061462E+02  0.79161061462E+02  0.00000000000E+00 0.  1.
         21   -1    0    0  501  502 -0.00000000000E+00 -0.00000000000E+00 -0.93716403931E+03  0.93716403931E+03  0.00000000000E+00 0.  1.
         25    1    1    2    0    0 -0.86731049929E+02  0.34858154301E+02 -0.57233493129E+03  0.59323657972E+03  0.12500000000E+03 0.  0.
         25    1    1    2    0    0  0.33666035326E+01 -0.87641970028E+02 -0.13362098170E+03  0.20290888517E+03  0.12500000000E+03 0.  0.
         25    1    1    2    0    0  0.83364446397E+02  0.52783815727E+02 -0.15204706486E+03  0.22017963588E+03  0.12500000000E+03 0.  0.
</event>
<event>
 5    0  0.5728184E-005  0.3152343E+03  0.7546771E-02  0.1077864E+00
         21   -1    0    0  502  501  0.00000000000E+00  0.00000000000E+00  0.18752437469E+04  0.18752437469E+04  0.00000000000E+00 0. -1.
         21   -1    0    0  501  502 -0.00000000000E+00 -0.00000000000E+00 -0.52991880655E+02  0.52991880655E+02  0.00000000000E+00 0. -1.
         25    1    1    2    0    0  0.83424975302E+02 -0.77367262429E+02  0.78844868041E+03  0.80636328130E+03  0.12500000000E+03 0.  0.
         25    1    1    2    0    0 -0.14808025728E+03  0.77904159425E+02  0.91243583818E+03  0.93603471060E+03  0.12500000000E+03 0.  0.
         25    1    1    2    0    0  0.64655281978E+02 -0.53689699633E+00  0.12136734765E+03  0.18583763565E+03  0.12500000000E+03 0.  0.
</event>
<event>
 5    0  0.5728184E-005  0.2472985E+03  0.7546771E-02  0.1115024E+00
         21   -1    0    0  502  501  0.00000000000E+00  0.00000000000E+00  0.10683776023E+04  0.10683776023E+04  0.00000000000E+00 0.  1.
         21   -1    0    0  501  502 -0.00000000000E+00 -0.00000000000E+00 -0.57242448447E+02  0.57242448447E+02  0.00000000000E+00 0.  1.
         25    1    1    2    0    0  0.78786937261E+02  0.16622687866E+02  0.11593526671E+03  0.18854623120E+03  0.12500000000E+03 0.  0.
         25    1    1    2    0    0 -0.74984201641E+02 -0.19335469656E+01  0.38813345506E+03  0.41460698021E+03  0.12500000000E+03 0.  0.
         25    1    1    2    0    0 -0.38027356199E+01 -0.14689140900E+02  0.50706643211E+03  0.52246683937E+03  0.12500000000E+03 0.  0.
</event>
<event>
 5    0  0.5728184E-005  0.2534016E+03  0.7546771E-02  0.1111174E+00
         21   -1    0    0  502  501  0.00000000000E+00  0.00000000000E+00  0.12823703182E+04  0.12823703182E+04  0.00000000000E+00 0. -1.
         21   -1    0    0  501  502 -0.00000000000E+00 -0.00000000000E+00 -0.50073195514E+02  0.50073195514E+02  0.00000000000E+00 0. -1.
         25    1    1    2    0    0  0.11829992699E+01  0.31696076603E+02  0.87980299965E+02  0.15611397741E+03  0.12500000000E+03 0.  0.
         25    1    1    2    0    0  0.47762957438E+02 -0.26386380332E+02  0.64436850031E+03  0.65864505264E+03  0.12500000000E+03 0.  0.
         25    1    1    2    0    0 -0.48945956708E+02 -0.53096962712E+01  0.49994832236E+03  0.51768448362E+03  0.12500000000E+03 0.  0.
</event>
<event>
 5    0  0.5728184E-005  0.3491273E+03  0.7546771E-02  0.1062974E+00
         21   -1    0    0  502  501  0.00000000000E+00  0.00000000000E+00  0.23504653420E+03  0.23504653420E+03  0.00000000000E+00 0. -1.
         21   -1    0    0  501  502 -0.00000000000E+00 -0.00000000000E+00 -0.51857765501E+03  0.51857765501E+03  0.00000000000E+00 0. -1.
         25    1    1    2    0    0  0.14446845723E+03 -0.84714260353E+02 -0.22152563828E+02  0.21015084375E+03  0.12500000000E+03 0.  0.
         25    1    1    2    0    0 -0.28838192024E+02  0.12532378074E+02 -0.32361147111E+03  0.34833616817E+03  0.12500000000E+03 0.  0.
         25    1    1    2    0    0 -0.11563026521E+03  0.72181882279E+02  0.62232914134E+02  0.19513717730E+03  0.12500000000E+03 0.  0.
</event>
<event>
 5    0  0.5728184E-005  0.4049022E+03  0.7546771E-02  0.1042095E+00
         21   -1    0    0  502  501  0.00000000000E+00  0.00000000000E+00  0.24612007173E+03  0.24612007173E+03  0.00000000000E+00 0.  1.
         21   -1    0    0  501  502 -0.00000000000E+00 -0.00000000000E+00 -0.66612134015E+03  0.66612134015E+03  0.00000000000E+00 0.  1.
         25    1    1    2    0    0 -0.20854366001E+03 -0.17673929340E+03 -0.42310120672E+03  0.51900565227E+03  0.12500000000E+03 0.  0.
         25    1    1    2    0    0  0.16301821043E+03  0.14769056775E+03  0.28880909458E+02  0.25464985307E+03  0.12500000000E+03 0.  0.
         25    1    1    2    0    0  0.45525449575E+02  0.29048725644E+02 -0.25780971165E+02  0.13858590655E+03  0.12500000000E+03 0.  0.
</event>
<event>
 5    0  0.9186821E-005  0.3340251E+03  0.7546771E-02  0.1069370E+00
         21   -1    0    0  502  501  0.00000000000E+00  0.00000000000E+00  0.69134311212E+03  0.69134311212E+03  0.00000000000E+00 0.  1.
         21   -1    0    0  501  502 -0.00000000000E+00 -0.00000000000E+00 -0.16138555173E+03  0.16138555173E+03  0.00000000000E+00 0.  1.
         25    1    1    2    0    0 -0.81409697729E+02 -0.57530270291E+02  0.39418195516E+03  0.42537240703E+03  0.12500000000E+03 0.  0.
         25    1    1    2    0    0  0.17796602650E+03  0.10006024125E+03  0.10258745929E+03  0.26044797038E+03  0.12500000000E+03 0.  0.
         25    1    1    2    0    0 -0.96556328776E+02 -0.42529970959E+02  0.33188145935E+02  0.16690828645E+03  0.12500000000E+03 0.  0.
</event>
<event>
 5    0  0.5728184E-005  0.3212533E+03  0.7546771E-02  0.1075074E+00
         21   -1    0    0  502  501  0.00000000000E+00  0.00000000000E+00  0.19985400733E+03  0.19985400733E+03  0.00000000000E+00 0.  1.
         21   -1    0    0  501  502 -0.00000000000E+00 -0.00000000000E+00 -0.51639523395E+03  0.51639523395E+03  0.00000000000E+00 0. -1.
         25    1    1    2    0    0  0.93041375332E+02 -0.16684544054E+03 -0.13548843328E+03  0.26547356574E+03  0.12500000000E+03 0.  0.
         25    1    1    2    0    0  0.73850985062E+02 -0.62765156167E+00 -0.70232703155E+02  0.16128234415E+03  0.12500000000E+03 0.  0.
         25    1    1    2    0    0 -0.16689236039E+03  0.16747309210E+03 -0.11082009019E+03  0.28949333140E+03  0.12500000000E+03 0.  0.
</event>
<event>
 5    0  0.5728184E-005  0.2664467E+03  0.7546771E-02  0.1103331E+00
         21   -1    0    0  502  501  0.00000000000E+00  0.00000000000E+00  0.76263719704E+03  0.76263719704E+03  0.00000000000E+00 0. -1.
         21   -1    0    0  501  502 -0.00000000000E+00 -0.00000000000E+00 -0.93089922848E+02  0.93089922848E+02  0.00000000000E+00 0. -1.
         25    1    1    2    0    0 -0.14323088012E+03  0.49407016818E+01  0.14363054162E+03  0.23831539614E+03  0.12500000000E+03 0.  0.
         25    1    1    2    0    0  0.13470796583E+03 -0.99909339828E+01  0.39693015067E+03  0.43752097016E+03  0.12500000000E+03 0.  0.
         25    1    1    2    0    0  0.85229142929E+01  0.50502323009E+01  0.12898658190E+03  0.17989075358E+03  0.12500000000E+03 0.  0.
</event>
<event>
 5    0  0.5728184E-005  0.2142608E+03  0.7546771E-02  0.1138236E+00
         21   -1    0    0  502  501  0.00000000000E+00  0.00000000000E+00  0.12813351156E+03  0.12813351156E+03  0.00000000000E+00 0.  1.
         21   -1    0    0  501  502 -0.00000000000E+00 -0.00000000000E+00 -0.35828015963E+03  0.35828015963E+03  0.00000000000E+00 0.  1.
         25    1    1    2    0    0  0.34585863739E+02 -0.10224621453E+02 -0.32844451466E+02  0.13418078419E+03  0.12500000000E+03 0.  0.
         25    1    1    2    0    0 -0.62209380754E+02  0.35091220728E+02 -0.43098257849E+02  0.15027927554E+03  0.12500000000E+03 0.  0.
         25    1    1    2    0    0  0.27623517015E+02 -0.24866599275E+02 -0.15420393876E+03  0.20195361146E+03  0.12500000000E+03 0.  0.
</event>
<event>
 5    0  0.5728184E-005  0.3757185E+03  0.7546771E-02  0.1052528E+00
         21   -1    0    0  502  501  0.00000000000E+00  0.00000000000E+00  0.10970414418E+03  0.10970414418E+03  0.00000000000E+00 0.  1.
         21   -1    0    0  501  502 -0.00000000000E+00 -0.00000000000E+00 -0.12867735510E+04  0.12867735510E+04  0.00000000000E+00 0.  1.
         25    1    1    2    0    0 -0.99658235535E+01 -0.18934744964E+02 -0.74837081116E+02  0.14725294875E+03  0.12500000000E+03 0.  0.
         25    1    1    2    0    0  0.26958269644E+03  0.11516620495E+02 -0.61487815778E+03  0.68301362482E+03  0.12500000000E+03 0.  0.
         25    1    1    2    0    0 -0.25961687289E+03  0.74181244683E+01 -0.48735416795E+03  0.56621112164E+03  0.12500000000E+03 0.  0.
</event>
<event>
 5    0  0.5728184E-005  0.3186227E+03  0.7546771E-02  0.1076285E+00
         21   -1    0    0  502  501  0.00000000000E+00  0.00000000000E+00  0.13703927671E+03  0.13703927671E+03  0.00000000000E+00 0.  1.
         21   -1    0    0  501  502 -0.00000000000E+00 -0.00000000000E+00 -0.74081267593E+03  0.74081267593E+03  0.00000000000E+00 0.  1.
         25    1    1    2    0    0  0.30568004405E+02  0.69621342185E+02 -0.18365829389E+03  0.23481248496E+03  0.12500000000E+03 0.  0.
         25    1    1    2    0    0 -0.21138651097E+03 -0.62986223413E+02 -0.14947111498E+03  0.29430959137E+03  0.12500000000E+03 0.  0.
         25    1    1    2    0    0  0.18081850657E+03 -0.66351187717E+01 -0.27064399035E+03  0.34872987631E+03  0.12500000000E+03 0.  0.
</event>
