<event>
 6    0  0.8777103E+002  0.8282282E+02  0.7546771E-02  0.1321226E+00
         21   -1    0    0  503  501  0.00000000000E+00  0.00000000000E+00  0.12664904041E+03  0.12664904041E+03  0.00000000000E+00 0. -1.
         21   -1    0    0  506  502 -0.00000000000E+00 -0.00000000000E+00 -0.23820130758E+04  0.23820130758E+04  0.00000000000E+00 0. -1.
         21    1    1    2  503  505  0.11717916517E+02  0.30631361858E+02  0.24226793812E+02  0.40774102506E+02  0.00000000000E+00 0. -1.
         21    1    1    2  504  502 -0.41206716168E+02 -0.10389945894E+03 -0.14102189607E+04  0.14146415123E+04  0.00000000000E+00 0. -1.
         21    1    1    2  505  504 -0.31833944030E+02  0.35303853738E+02  0.84338481712E+02  0.96812920516E+02  0.00000000000E+00 0. -1.
         21    1    1    2  506  501  0.61322743681E+02  0.37964243345E+02 -0.95371035014E+03  0.95643358088E+03  0.00000000000E+00 0. -1.
<scales pt_clust_3="32.79619" pt_clust_4="14000.00000" pt_clust_5="67.95774" pt_clust_6="82.82282"></scales>
<clustering>
<clus scale="   32.796">  1  3  2 -1</clus>
<clus scale="   67.958">  1  5  2 -1</clus>
<clus scale="   82.823">  2  6  1 -1</clus>
<clus scale="   32.796">  1  3  2 -1</clus>
</clustering>
</event>
<event>
 6    0  0.8777103E+002  0.1741659E+03  0.7546771E-02  0.1173572E+00
         21   -1    0    0  505  501  0.00000000000E+00  0.00000000000E+00  0.15859359179E+04  0.15859359179E+04  0.00000000000E+00 0. -1.
         21   -1    0    0  503  502 -0.00000000000E+00 -0.00000000000E+00 -0.55766515033E+03  0.55766515033E+03  0.00000000000E+00 0. -1.
         21    1    1    2  503  504 -0.40868372672E+01  0.37149321371E+02 -0.46633471116E+03  0.46782992332E+03  0.00000000000E+00 0. -1.
         21    1    1    2  504  506 -0.22866731189E+02  0.16343282283E+03  0.82261489053E+03  0.83900442972E+03  0.00000000000E+00 0. -1.
         21    1    1    2  505  502  0.63022511609E+02 -0.19840521607E+03  0.50480725955E+02  0.21420730713E+03  0.00000000000E+00 0. -1.
         21    1    1    2  506  501 -0.36068943153E+02 -0.21769281293E+01  0.62150986225E+03  0.62255940805E+03  0.00000000000E+00 0. -1.
<scales pt_clust_3="37.37484" pt_clust_4="14000.00000" pt_clust_5="174.16588" pt_clust_6="36.13458"></scales>
<clustering>
<clus scale="   36.135">  1  6  2 -1</clus>
<clus scale="   37.375">  2  3  1 -1</clus>
<clus scale="  174.166">  2  5  1 -1</clus>
<clus scale="   36.135">  1  3  2 -1</clus>
</clustering>
</event>
<event>
 6    0  0.8777103E+002  0.1509010E+03  0.7546771E-02  0.1199370E+00
         21   -1    0    0  502  501  0.00000000000E+00  0.00000000000E+00  0.14305965480E+04  0.14305965480E+04  0.00000000000E+00 0.  1.
         21   -1    0    0  506  502 -0.00000000000E+00 -0.00000000000E+00 -0.19867216263E+03  0.19867216263E+03  0.00000000000E+00 0.  1.
         21    1    1    2  503  505 -0.86668406094E+02 -0.17669133068E+03  0.18514340482E+03  0.27020236731E+03  0.00000000000E+00 0.  1.
         21    1    1    2  504  501 -0.34635322498E+02 -0.36996027897E+02  0.99164249824E+03  0.99293663240E+03  0.00000000000E+00 0.  1.
         21    1    1    2  505  504 -0.30763369503E+01  0.13563808451E+03  0.14128972052E+03  0.19588246206E+03  0.00000000000E+00 0.  1.
         21    1    1    2  506  503  0.12438006554E+03  0.78049274070E+02 -0.86151238232E+02  0.17024724884E+03  0.00000000000E+00 0.  1.
<scales pt_clust_3="150.90097" pt_clust_4="50.67851" pt_clust_5="122.51071" pt_clust_6="14000.00000"></scales>
<clustering>
<clus scale="   50.679">  1  4  2 -1</clus>
<clus scale="  122.511">  1  5  2 -1</clus>
<clus scale="  150.901">  1  3  2 -1</clus>
<clus scale="   50.679">  1  3  2 -1</clus>
</clustering>
</event>
<event>
 6    0  0.8777103E+002  0.6213209E+02  0.7546771E-02  0.1389096E+00
         21   -1    0    0  506  501  0.00000000000E+00  0.00000000000E+00  0.48703955762E+03  0.48703955762E+03  0.00000000000E+00 0.  1.
         21   -1    0    0  504  502 -0.00000000000E+00 -0.00000000000E+00 -0.15649856890E+03  0.15649856890E+03  0.00000000000E+00 0.  1.
         21    1    1    2  503  501 -0.53040709761E+02  0.61422587385E+02  0.13132364283E+03  0.15437600299E+03  0.00000000000E+00 0.  1.
         21    1    1    2  504  503 -0.33758061365E+02 -0.14235630694E+02 -0.16126353034E+02  0.40028978885E+02  0.00000000000E+00 0. -1.
         21    1    1    2  505  502  0.89301537114E+02  0.14302803408E+02 -0.95926398687E+02  0.13183781203E+03  0.00000000000E+00 0.  1.
         21    1    1    2  506  505 -0.25027659883E+01 -0.61489760098E+02  0.31127009761E+03  0.31729533262E+03  0.00000000000E+00 0.  1.
<scales pt_clust_3="14000.00000" pt_clust_4="36.63687" pt_clust_5="59.38903" pt_clust_6="62.13209"></scales>
<clustering>
<clus scale="   36.637">  2  4  1 -1</clus>
<clus scale="   59.389">  2  5  1 -1</clus>
<clus scale="   62.132">  1  6  2 -1</clus>
<clus scale="   62.132">  1  3  2 -1</clus>
</clustering>
</event>
<event>
 6    0  0.8777103E+002  0.2318281E+03  0.7546771E-02  0.1125360E+00
         21   -1    0    0  503  501  0.00000000000E+00  0.00000000000E+00  0.63235486363E+03  0.63235486363E+03  0.00000000000E+00 0. -1.
         21   -1    0    0  501  502 -0.00000000000E+00 -0.00000000000E+00 -0.26090465634E+03  0.26090465634E+03  0.00000000000E+00 0.  1.
         21    1    1    2  503  506 -0.12296793484E+02  0.27856504315E+02  0.31213822023E+03  0.31361993637E+03  0.00000000000E+00 0. -1.
         21    1    1    2  504  505 -0.73260078807E+01  0.12384955499E+03  0.15675153772E+03  0.19990854719E+03  0.00000000000E+00 0. -1.
         21    1    1    2  505  502 -0.40220765888E+01 -0.23080806938E+03 -0.15591124954E+03  0.27856212902E+03  0.00000000000E+00 0.  1.
         21    1    1    2  506  504  0.23644877953E+02  0.79102010077E+02  0.58471698879E+02  0.10116890738E+03  0.00000000000E+00 0. -1.
<scales pt_clust_3="30.44989" pt_clust_4="42.57969" pt_clust_5="225.55116" pt_clust_6="42.57969"></scales>
<clustering>
<clus scale="   30.450">  1  3  2 -1</clus>
<clus scale="   42.580">  4  6 -1 -1</clus>
<clus scale="  225.551">  2  5  1 -1</clus>
<clus scale="   30.450">  1  3  2 -1</clus>
</clustering>
</event>
<event>
 6    0  0.8777103E+002  0.1385248E+03  0.7546771E-02  0.1215328E+00
         21   -1    0    0  505  501  0.00000000000E+00  0.00000000000E+00  0.14019632245E+03  0.14019632245E+03  0.00000000000E+00 0.  1.
         21   -1    0    0  504  502 -0.00000000000E+00 -0.00000000000E+00 -0.37040259936E+03  0.37040259936E+03  0.00000000000E+00 0.  1.
         21    1    1    2  503  506 -0.10651523387E+03 -0.10018167199E+03 -0.43635437512E+02  0.15259722755E+03  0.00000000000E+00 0.  1.
         21    1    1    2  504  503  0.53513050937E+02  0.14686353972E+03 -0.13969466808E+03  0.20963574650E+03  0.00000000000E+00 0.  1.
         21    1    1    2  505  502  0.21847442786E+02 -0.55993276410E+02 -0.81239681604E+02  0.10105663574E+03  0.00000000000E+00 0.  1.
         21    1    1    2  506  501  0.31154740144E+02  0.93114086851E+01  0.34363510292E+02  0.47309312030E+02  0.00000000000E+00 0.  1.
<scales pt_clust_3="138.52477" pt_clust_4="14000.00000" pt_clust_5="60.45527" pt_clust_6="32.51646"></scales>
<clustering>
<clus scale="   32.516">  1  6  2 -1</clus>
<clus scale="   60.455">  2  5  1 -1</clus>
<clus scale="  138.525">  1  3  2 -1</clus>
<clus scale="   32.516">  1  3  2 -1</clus>
</clustering>
</event>
<event>
 6    0  0.8777103E+002  0.9816686E+02  0.7546771E-02  0.1284199E+00
         21   -1    0    0  506  501  0.00000000000E+00  0.00000000000E+00  0.51466531364E+03  0.51466531364E+03  0.00000000000E+00 0. -1.
         21   -1    0    0  503  502 -0.00000000000E+00 -0.00000000000E+00 -0.31277624596E+03  0.31277624596E+03  0.00000000000E+00 0.  1.
         21    1    1    2  503  504  0.63465473236E+02 -0.15211706383E+02 -0.53620923585E+02  0.84465766736E+02  0.00000000000E+00 0.  1.
         21    1    1    2  504  501  0.49163000036E+02  0.41372855628E+02  0.34255886092E+03  0.34853305001E+03  0.00000000000E+00 0. -1.
         21    1    1    2  505  502  0.38496836553E+02 -0.36009697407E+01 -0.20045932270E+03  0.20415414144E+03  0.00000000000E+00 0.  1.
         21    1    1    2  506  505 -0.15112530983E+03 -0.22560179504E+02  0.11341045305E+03  0.19028860142E+03  0.00000000000E+00 0.  1.
<scales pt_clust_3="14000.00000" pt_clust_4="64.99310" pt_clust_5="38.66489" pt_clust_6="98.16686"></scales>
<clustering>
<clus scale="   38.665">  2  5  1 -1</clus>
<clus scale="   64.993">  1  4  2 -1</clus>
<clus scale="   98.167">  1  6  2 -1</clus>
<clus scale="   64.993">  1  3  2 -1</clus>
</clustering>
</event>
<event>
 6    0  0.8777103E+002  0.8588386E+02  0.7546771E-02  0.1313137E+00
         21   -1    0    0  504  501  0.00000000000E+00  0.00000000000E+00  0.39877811897E+03  0.39877811897E+03  0.00000000000E+00 0.  1.
         21   -1    0    0  506  502 -0.00000000000E+00 -0.00000000000E+00 -0.53092726195E+02  0.53092726195E+02  0.00000000000E+00 0.  1.
         21    1    1    2  503  502 -0.31941217993E+02  0.48741014624E+01 -0.40539476080E+01  0.32564286622E+02  0.00000000000E+00 0.  1.
         21    1    1    2  504  505  0.54585384194E+02 -0.58944357307E+02  0.11627533110E+03  0.14132923989E+03  0.00000000000E+00 0.  1.
         21    1    1    2  505  503 -0.78137450336E+01 -0.43158620579E+02  0.33693652426E+02  0.55308076766E+02  0.00000000000E+00 0.  1.
         21    1    1    2  506  501 -0.14830421167E+02  0.97228876424E+02  0.19977035686E+03  0.22266924188E+03  0.00000000000E+00 0.  1.
<scales pt_clust_3="32.31096" pt_clust_4="85.88386" pt_clust_5="45.26449" pt_clust_6="14000.00000"></scales>
<clustering>
<clus scale="   32.311">  2  3  1 -1</clus>
<clus scale="   45.264">  2  5  1 -1</clus>
<clus scale="   85.884">  2  4  1 -1</clus>
<clus scale="   85.884">  1  3  2 -1</clus>
</clustering>
</event>
<event>
 6    0  0.8777103E+002  0.2207623E+03  0.7546771E-02  0.1133316E+00
         21   -1    0    0  504  501  0.00000000000E+00  0.00000000000E+00  0.14347825683E+03  0.14347825683E+03  0.00000000000E+00 0. -1.
         21   -1    0    0  501  502 -0.00000000000E+00 -0.00000000000E+00 -0.13761518308E+04  0.13761518308E+04  0.00000000000E+00 0.  1.
         21    1    1    2  503  502 -0.19655301905E+03 -0.37872066975E+02 -0.10794027893E+04  0.10978058864E+04  0.00000000000E+00 0.  1.
         21    1    1    2  504  506  0.90679062063E+01 -0.77543841618E+02  0.62915430236E+02  0.10026776978E+03  0.00000000000E+00 0. -1.
         21    1    1    2  505  503  0.16705837290E+03  0.59415850637E+02 -0.14775527536E+03  0.23080373623E+03  0.00000000000E+00 0.  1.
         21    1    1    2  506  505  0.20426739942E+02  0.56000057956E+02 -0.68430939578E+02  0.90752695207E+02  0.00000000000E+00 0. -1.
<scales pt_clust_3="201.35893" pt_clust_4="78.07224" pt_clust_5="52.47436" pt_clust_6="52.47436"></scales>
<clustering>
<clus scale="   52.474">  5  6 -1 -1</clus>
<clus scale="   78.072">  1  4  2 -1</clus>
<clus scale="  201.359">  2  3  1 -1</clus>
<clus scale="   78.072">  1  3  2 -1</clus>
</clustering>
</event>
<event>
 6    0  0.8777103E+002  0.1399923E+03  0.7546771E-02  0.1213339E+00
         21   -1    0    0  505  501  0.00000000000E+00  0.00000000000E+00  0.55575706137E+03  0.55575706137E+03  0.00000000000E+00 0.  1.
         21   -1    0    0  504  502 -0.00000000000E+00 -0.00000000000E+00 -0.12649718834E+04  0.12649718834E+04  0.00000000000E+00 0.  1.
         21    1    1    2  503  501 -0.63986967730E+02 -0.33105194916E+01  0.14209135467E+03  0.15586931915E+03  0.00000000000E+00 0.  1.
         21    1    1    2  504  503  0.25093969334E+02  0.19462992059E+02 -0.60812815721E+02  0.68605494771E+02  0.00000000000E+00 0. -1.
         21    1    1    2  505  506  0.50444479846E+02 -0.13657136970E+03  0.38652521926E+03  0.41303526447E+03  0.00000000000E+00 0.  1.
         21    1    1    2  506  502 -0.11551481450E+02  0.12041889713E+03 -0.11770185802E+04  0.11832188663E+04  0.00000000000E+00 0.  1.
<scales pt_clust_3="63.92303" pt_clust_4="31.75713" pt_clust_5="139.99227" pt_clust_6="14000.00000"></scales>
<clustering>
<clus scale="   31.757">  2  4  1 -1</clus>
<clus scale="   63.923">  1  3  2 -1</clus>
<clus scale="  139.992">  1  5  2 -1</clus>
<clus scale="   63.923">  1  3  2 -1</clus>
</clustering>
</event>
<event>
 6    0  0.8777103E+002  0.2317750E+03  0.7546771E-02  0.1125397E+00
         21   -1    0    0  504  501  0.00000000000E+00  0.00000000000E+00  0.29479818756E+03  0.29479818756E+03  0.00000000000E+00 0. -1.
         21   -1    0    0  503  502 -0.00000000000E+00 -0.00000000000E+00 -0.11209405219E+04  0.11209405219E+04  0.00000000000E+00 0. -1.
         21    1    1    2  503  505 -0.23999137813E+03 -0.18880033802E+02 -0.78227049607E+03  0.81847385192E+03  0.00000000000E+00 0. -1.
         21    1    1    2  504  506 -0.46442364196E+02 -0.94463162024E+02 -0.25557619789E+02  0.10832070024E+03  0.00000000000E+00 0. -1.
         21    1    1    2  505  501  0.14532367172E+03 -0.13045957597E+03  0.44577402336E+02  0.20031429136E+03  0.00000000000E+00 0. -1.
         21    1    1    2  506  502  0.14111007060E+03  0.24380277179E+03 -0.62891620850E+02  0.28862986598E+03  0.00000000000E+00 0.  1.
<scales pt_clust_3="231.77495" pt_clust_4="105.26244" pt_clust_5="214.73799" pt_clust_6="14000.00000"></scales>
<clustering>
<clus scale="  105.262">  1  4  2 -1</clus>
<clus scale="  214.738">  1  5  2 -1</clus>
<clus scale="  231.775">  2  3  1 -1</clus>
<clus scale="  105.262">  1  3  2 -1</clus>
</clustering>
</event>
<event>
 6    0  0.8777103E+002  0.1801397E+03  0.7546771E-02  0.1167668E+00
         21   -1    0    0  506  501  0.00000000000E+00  0.00000000000E+00  0.11096462179E+04  0.11096462179E+04  0.00000000000E+00 0. -1.
         21   -1    0    0  504  502 -0.00000000000E+00 -0.00000000000E+00 -0.82094399799E+02  0.82094399799E+02  0.00000000000E+00 0. -1.
         21    1    1    2  503  505  0.73126597058E+02  0.14298463712E+03  0.16462210188E+03  0.22998378655E+03  0.00000000000E+00 0.  1.
         21    1    1    2  504  503 -0.10709102168E+03  0.65367858320E+02  0.90437295297E+02  0.15466204514E+03  0.00000000000E+00 0. -1.
         21    1    1    2  505  501  0.61993567577E+00 -0.19101782592E+03  0.57032100214E+03  0.60146008980E+03  0.00000000000E+00 0. -1.
         21    1    1    2  506  502  0.33344488945E+02 -0.17334669522E+02  0.20217141882E+03  0.20563469625E+03  0.00000000000E+00 0. -1.
<scales pt_clust_3="14000.00000" pt_clust_4="120.39254" pt_clust_5="180.13973" pt_clust_6="37.58119"></scales>
<clustering>
<clus scale="   37.581">  1  6  2 -1</clus>
<clus scale="  120.393">  2  4  1 -1</clus>
<clus scale="  180.140">  1  5  2 -1</clus>
<clus scale="   37.581">  1  3  2 -1</clus>
</clustering>
</event>
<event>
 6    0  0.8777103E+002  0.1198480E+03  0.7546771E-02  0.1243348E+00
         21   -1    0    0  503  501  0.00000000000E+00  0.00000000000E+00  0.31709421293E+03  0.31709421293E+03  0.00000000000E+00 0. -1.
         21   -1    0    0  506  502 -0.00000000000E+00 -0.00000000000E+00 -0.56482552201E+03  0.56482552201E+03  0.00000000000E+00 0. -1.
         21    1    1    2  503  504 -0.91327379118E+01  0.40489188550E+02  0.17283519545E+03  0.17774922244E+03  0.00000000000E+00 0. -1.
         21    1    1    2  504  502 -0.55404272835E+02 -0.29688719178E+01 -0.79228347782E+02  0.96724240711E+02  0.00000000000E+00 0. -1.
         21    1    1    2  505  501 -0.10417805443E+03 -0.18158041705E+01  0.93290326104E+02  0.13985510043E+03  0.00000000000E+00 0. -1.
         21    1    1    2  506  505  0.16871506518E+03 -0.35704512461E+02 -0.43462848285E+03  0.46759117136E+03  0.00000000000E+00 0. -1.
<scales pt_clust_3="41.50640" pt_clust_4="55.96967" pt_clust_5="14000.00000" pt_clust_6="119.84801"></scales>
<clustering>
<clus scale="   41.506">  1  3  2 -1</clus>
<clus scale="   55.970">  2  4  1 -1</clus>
<clus scale="  119.848">  2  6  1 -1</clus>
<clus scale="   41.506">  1  3  2 -1</clus>
</clustering>
</event>
<event>
 6    0  0.8777103E+002  0.1436859E+03  0.7546771E-02  0.1208454E+00
         21   -1    0    0  505  501  0.00000000000E+00  0.00000000000E+00  0.24983147939E+03  0.24983147939E+03  0.00000000000E+00 0.  1.
         21   -1    0    0  506  502 -0.00000000000E+00 -0.00000000000E+00 -0.42420816253E+03  0.42420816253E+03  0.00000000000E+00 0.  1.
         21    1    1    2  503  502 -0.11035622453E+02  0.29671362726E+02 -0.20451469778E+03  0.20695032336E+03  0.00000000000E+00 0.  1.
         21    1    1    2  504  503 -0.11078855290E+03  0.66907238996E+02 -0.13274665604E+03  0.18539783379E+03  0.00000000000E+00 0.  1.
         21    1    1    2  505  504  0.13335382374E+03 -0.59644958598E+02  0.18608576055E+03  0.23657699312E+03  0.00000000000E+00 0.  1.
         21    1    1    2  506  501 -0.11529648388E+02 -0.36933643125E+02 -0.23201089880E+02  0.45114491663E+02  0.00000000000E+00 0. -1.
<scales pt_clust_3="31.65714" pt_clust_4="143.68593" pt_clust_5="14000.00000" pt_clust_6="34.90902"></scales>
<clustering>
<clus scale="   31.657">  2  3  1 -1</clus>
<clus scale="   34.909">  2  6  1 -1</clus>
<clus scale="  143.686">  2  4  1 -1</clus>
<clus scale="  143.686">  1  3  2 -1</clus>
</clustering>
</event>
<event>
 6    0  0.8777103E+002  0.9957881E+02  0.7546771E-02  0.1281184E+00
         21   -1    0    0  504  501  0.00000000000E+00  0.00000000000E+00  0.17228917291E+03  0.17228917291E+03  0.00000000000E+00 0. -1.
         21   -1    0    0  505  502 -0.00000000000E+00 -0.00000000000E+00 -0.86080399967E+03  0.86080399967E+03  0.00000000000E+00 0. -1.
         21    1    1    2  503  501  0.48025342107E+02 -0.65480634873E+02  0.59539461773E+02  0.10069307094E+03  0.00000000000E+00 0. -1.
         21    1    1    2  504  502  0.59128352600E+02 -0.39255677792E+02 -0.38795665455E+03  0.39439515227E+03  0.00000000000E+00 0. -1.
         21    1    1    2  505  506  0.43078886233E+02  0.37803275652E+02 -0.36887641616E+03  0.37330240890E+03  0.00000000000E+00 0. -1.
         21    1    1    2  506  503 -0.15023258094E+03  0.66933037013E+02  0.87787821901E+01  0.16470254047E+03  0.00000000000E+00 0. -1.
<scales pt_clust_3="81.02954" pt_clust_4="99.57881" pt_clust_5="57.31386" pt_clust_6="14000.00000"></scales>
<clustering>
<clus scale="   57.314">  2  5  1 -1</clus>
<clus scale="   81.030">  1  3  2 -1</clus>
<clus scale="   99.579">  2  4  1 -1</clus>
<clus scale="   81.030">  1  3  2 -1</clus>
</clustering>
</event>
<event>
 6    0  0.8777103E+002  0.1943083E+03  0.7546771E-02  0.1154632E+00
         21   -1    0    0  503  501  0.00000000000E+00  0.00000000000E+00  0.44740911496E+03  0.44740911496E+03  0.00000000000E+00 0.  1.
         21   -1    0    0  504  502 -0.00000000000E+00 -0.00000000000E+00 -0.24267531196E+03  0.24267531196E+03  0.00000000000E+00 0.  1.
         21    1    1    2  503  506  0.36938652210E+02 -0.37094187233E+00  0.19169797224E+02  0.41618298266E+02  0.00000000000E+00 0.  1.
         21    1    1    2  504  501 -0.19694078414E+03 -0.93564156037E+02 -0.87760456978E+02  0.23503578784E+03  0.00000000000E+00 0.  1.
         21    1    1    2  505  502  0.35491338657E+02 -0.18405716894E+02 -0.40938253798E+02  0.57221902783E+02  0.00000000000E+00 0.  1.
         21    1    1    2  506  505  0.12451079328E+03  0.11234081480E+03  0.31426271655E+03  0.35620843803E+03  0.00000000000E+00 0.  1.
<scales pt_clust_3="36.94051" pt_clust_4="14000.00000" pt_clust_5="40.62492" pt_clust_6="194.30829"></scales>
<clustering>
<clus scale="   36.941">  1  3  2 -1</clus>
<clus scale="   40.625">  2  5  1 -1</clus>
<clus scale="  194.308">  1  6  2 -1</clus>
<clus scale="   36.941">  1  3  2 -1</clus>
</clustering>
</event>
<event>
 6    0  0.8777103E+002  0.8081081E+02  0.7546771E-02  0.1326766E+00
         21   -1    0    0  503  501  0.00000000000E+00  0.00000000000E+00  0.16417348055E+03  0.16417348055E+03  0.00000000000E+00 0.  1.
         21   -1    0    0  504  502 -0.00000000000E+00 -0.00000000000E+00 -0.44272331952E+03  0.44272331952E+03  0.00000000000E+00 0. -1.
         21    1    1    2  503  502 -0.25011091234E+02 -0.36213847757E+02  0.81321311837E+01  0.44756329292E+02  0.00000000000E+00 0.  1.
         21    1    1    2  504  506  0.20595610197E+02 -0.31382594609E+02 -0.25525433550E+02  0.45393767872E+02  0.00000000000E+00 0. -1.
         21    1    1    2  505  501  0.31946040158E+02 -0.45967715191E+02  0.11227665996E+03  0.12545767690E+03  0.00000000000E+00 0.  1.
         21    1    1    2  506  505 -0.27530559120E+02  0.11356415756E+03 -0.37343319657E+03  0.39128902600E+03  0.00000000000E+00 0. -1.
<scales pt_clust_3="44.67353" pt_clust_4="37.53727" pt_clust_5="14000.00000" pt_clust_6="80.81081"></scales>
<clustering>
<clus scale="   37.537">  2  4  1 -1</clus>
<clus scale="   44.674">  1  3  2 -1</clus>
<clus scale="   80.811">  2  6  1 -1</clus>
<clus scale="   44.674">  1  3  2 -1</clus>
</clustering>
</event>
<event>
 6    0  0.8777103E+002  0.4747650E+03  0.7546771E-02  0.1020584E+00
         21   -1    0    0  506  501  0.00000000000E+00  0.00000000000E+00  0.13580284745E+04  0.13580284745E+04  0.00000000000E+00 0.  1.
         21   -1    0    0  505  502 -0.00000000000E+00 -0.00000000000E+00 -0.91223521847E+03  0.91223521847E+03  0.00000000000E+00 0.  1.
         21    1    1    2  503  501  0.20211597782E+03  0.32592578698E+03  0.10614012270E+04  0.11285614967E+04  0.00000000000E+00 0.  1.
         21    1    1    2  504  502  0.31377129026E+02  0.17993661039E+02 -0.12590285481E+03  0.13099551486E+03  0.00000000000E+00 0.  1.
         21    1    1    2  505  503  0.85269331959E+02  0.13512401585E+02  0.17283298517E+03  0.19319597493E+03  0.00000000000E+00 0.  1.
         21    1    1    2  506  504 -0.31876243880E+03 -0.35743184960E+03 -0.66253810134E+03  0.81751070649E+03  0.00000000000E+00 0.  1.
<scales pt_clust_3="76.41593" pt_clust_4="36.17038" pt_clust_5="76.41593" pt_clust_6="446.65608"></scales>
<clustering>
<clus scale="   36.170">  2  4  1 -1</clus>
<clus scale="   76.416">  3  5 -1 -1</clus>
<clus scale="  446.656">  2  6  1 -1</clus>
<clus scale="  474.765">  1  3  2 -1</clus>
</clustering>
</event>
<event>
 6    0  0.8777103E+002  0.1434334E+03  0.7546771E-02  0.1208782E+00
         21   -1    0    0  506  501  0.00000000000E+00  0.00000000000E+00  0.41751695690E+03  0.41751695690E+03  0.00000000000E+00 0. -1.
         21   -1    0    0  504  502 -0.00000000000E+00 -0.00000000000E+00 -0.16615738701E+03  0.16615738701E+03  0.00000000000E+00 0. -1.
         21    1    1    2  503  502  0.32608289207E+02 -0.54879016884E+02 -0.57131971837E+02  0.85668367704E+02  0.00000000000E+00 0. -1.
         21    1    1    2  504  501  0.79270997006E+02  0.12386648988E+03  0.24292320059E+03  0.28396915267E+03  0.00000000000E+00 0. -1.
         21    1    1    2  505  503 -0.60421520201E+02 -0.10656772582E+03 -0.14245268730E+00  0.12250494105E+03  0.00000000000E+00 0. -1.
         21    1    1    2  506  505 -0.51457766012E+02  0.37580252826E+02  0.65710793824E+02  0.91531882481E+02  0.00000000000E+00 0.  1.
<scales pt_clust_3="61.37796" pt_clust_4="14000.00000" pt_clust_5="143.43342" pt_clust_6="63.71952"></scales>
<clustering>
<clus scale="   63.720">  1  6  2 -1</clus>
<clus scale="   61.378">  2  3  1 -1</clus>
<clus scale="  143.433">  2  5  1 -1</clus>
<clus scale="   63.720">  1  3  2 -1</clus>
</clustering>
</event>
<event>
 6    0  0.8777103E+002  0.1807061E+03  0.7546771E-02  0.1167121E+00
         21   -1    0    0  503  501  0.00000000000E+00  0.00000000000E+00  0.59239668565E+03  0.59239668565E+03  0.00000000000E+00 0.  1.
         21   -1    0    0  505  502 -0.00000000000E+00 -0.00000000000E+00 -0.36711837097E+03  0.36711837097E+03  0.00000000000E+00 0.  1.
         21    1    1    2  503  504  0.35815965835E+02  0.15735328361E+02  0.15652597043E+03  0.16134051998E+03  0.00000000000E+00 0.  1.
         21    1    1    2  504  506  0.13749087371E+03 -0.53981603208E+02 -0.30052463698E+01  0.14773890938E+03  0.00000000000E+00 0.  1.
         21    1    1    2  505  501 -0.21225139243E+03  0.41279216652E+02  0.32710775954E+03  0.39211492405E+03  0.00000000000E+00 0.  1.
         21    1    1    2  506  502  0.38944552879E+02 -0.30329418050E+01 -0.25535016893E+03  0.25832070321E+03  0.00000000000E+00 0.  1.
<scales pt_clust_3="39.87381" pt_clust_4="14000.00000" pt_clust_5="180.70613" pt_clust_6="39.06247"></scales>
<clustering>
<clus scale="   39.062">  2  6  1 -1</clus>
<clus scale="   39.874">  1  3  2 -1</clus>
<clus scale="  180.706">  1  5  2 -1</clus>
<clus scale="   39.874">  1  3  2 -1</clus>
</clustering>
</event>
<event>
 6    0  0.8777103E+002  0.1692531E+03  0.7546771E-02  0.1178629E+00
         21   -1    0    0  506  501  0.00000000000E+00  0.00000000000E+00  0.29859852939E+04  0.29859852939E+04  0.00000000000E+00 0.  1.
         21   -1    0    0  505  502 -0.00000000000E+00 -0.00000000000E+00 -0.12899625858E+03  0.12899625858E+03  0.00000000000E+00 0.  1.
         21    1    1    2  503  502 -0.13197043502E+03 -0.16941238382E+02 -0.80934289079E+02  0.15573554644E+03  0.00000000000E+00 0.  1.
         21    1    1    2  504  503  0.74397102901E+02  0.59460056286E+01  0.88941633429E+03  0.89254226769E+03  0.00000000000E+00 0.  1.
         21    1    1    2  505  501 -0.16283528838E+02 -0.32831817593E+02  0.32843677692E+02  0.49211672621E+02  0.00000000000E+00 0.  1.
         21    1    1    2  506  504  0.73856860959E+02  0.43827050347E+02  0.20156633124E+04  0.20174920657E+04  0.00000000000E+00 0.  1.
<scales pt_clust_3="155.85614" pt_clust_4="61.50617" pt_clust_5="36.64808" pt_clust_6="61.50617"></scales>
<clustering>
<clus scale="   36.648">  2  5  1 -1</clus>
<clus scale="   61.506">  4  6 -1 -1</clus>
<clus scale="  155.856">  2  3  1 -1</clus>
<clus scale="  169.253">  1  3  2 -1</clus>
</clustering>
</event>
<event>
 6    0  0.8777103E+002  0.1042931E+03  0.7546771E-02  0.1271519E+00
         21   -1    0    0  504  501  0.00000000000E+00  0.00000000000E+00  0.20617713546E+04  0.20617713546E+04  0.00000000000E+00 0.  1.
         21   -1    0    0  503  502 -0.00000000000E+00 -0.00000000000E+00 -0.12997947155E+03  0.12997947155E+03  0.00000000000E+00 0.  1.
         21    1    1    2  503  501  0.19309531972E+01 -0.59128756691E+02  0.96523011610E+03  0.96704142387E+03  0.00000000000E+00 0.  1.
         21    1    1    2  504  505 -0.95907138994E+02  0.87538723382E+02  0.10701319280E+04  0.10779812386E+04  0.00000000000E+00 0.  1.
         21    1    1    2  505  506  0.40750505395E+02 -0.15925583540E+02 -0.23189019332E+02  0.49517254756E+02  0.00000000000E+00 0. -1.
         21    1    1    2  506  502  0.53225680402E+02 -0.12484383151E+02 -0.80381141710E+02  0.97210908953E+02  0.00000000000E+00 0.  1.
<scales pt_clust_3="59.16028" pt_clust_4="98.55621" pt_clust_5="30.51746" pt_clust_6="30.51746"></scales>
<clustering>
<clus scale="   30.517">  5  6 -1 -1</clus>
<clus scale="   59.160">  1  3  2 -1</clus>
<clus scale="   98.556">  1  4  2 -1</clus>
<clus scale="   59.160">  1  3  2 -1</clus>
</clustering>
</event>
<event>
 6    0  0.8777103E+002  0.1120160E+03  0.7546771E-02  0.1256881E+00
         21   -1    0    0  505  501  0.00000000000E+00  0.00000000000E+00  0.53871150091E+03  0.53871150091E+03  0.00000000000E+00 0.  1.
         21   -1    0    0  503  502 -0.00000000000E+00 -0.00000000000E+00 -0.42681026719E+03  0.42681026719E+03  0.00000000000E+00 0.  1.
         21    1    1    2  503  504 -0.16898087010E+03  0.29900513196E+02 -0.21221376052E+03  0.27291620564E+03  0.00000000000E+00 0.  1.
         21    1    1    2  504  506  0.68909697097E+02 -0.76797843433E+01  0.12824812473E+03  0.14579131297E+03  0.00000000000E+00 0.  1.
         21    1    1    2  505  502  0.64334665900E+02  0.23630690266E+02 -0.16637422768E+03  0.17993816269E+03  0.00000000000E+00 0.  1.
         21    1    1    2  506  501  0.35736507100E+02 -0.45851419119E+02  0.36224109718E+03  0.36687608679E+03  0.00000000000E+00 0.  1.
<scales pt_clust_3="112.01604" pt_clust_4="14000.00000" pt_clust_5="69.26154" pt_clust_6="58.13304"></scales>
<clustering>
<clus scale="   58.133">  1  6  2 -1</clus>
<clus scale="   69.262">  2  5  1 -1</clus>
<clus scale="  112.016">  2  3  1 -1</clus>
<clus scale="   58.133">  1  3  2 -1</clus>
</clustering>
</event>
<event>
 6    0  0.8777103E+002  0.1226277E+03  0.7546771E-02  0.1238824E+00
         21   -1    0    0  504  501  0.00000000000E+00  0.00000000000E+00  0.31264664337E+03  0.31264664337E+03  0.00000000000E+00 0. -1.
         21   -1    0    0  503  502 -0.00000000000E+00 -0.00000000000E+00 -0.39557500156E+03  0.39557500156E+03  0.00000000000E+00 0. -1.
         21    1    1    2  503  501  0.27416614170E+02  0.12730424760E+02  0.14521125670E+03  0.14832411645E+03  0.00000000000E+00 0. -1.
         21    1    1    2  504  506 -0.58026230374E+02  0.14877164038E+02  0.81456856551E+02  0.10111178418E+03  0.00000000000E+00 0. -1.
         21    1    1    2  505  502  0.70479732398E+02 -0.84209869934E+02 -0.35789901831E+03  0.37436666809E+03  0.00000000000E+00 0. -1.
         21    1    1    2  506  505 -0.39870116194E+02  0.56602281136E+02  0.48302546858E+02  0.84419076210E+02  0.00000000000E+00 0. -1.
<scales pt_clust_3="30.22804" pt_clust_4="45.22350" pt_clust_5="110.21049" pt_clust_6="45.22350"></scales>
<clustering>
<clus scale="   30.228">  1  3  2 -1</clus>
<clus scale="   45.224">  4  6 -1 -1</clus>
<clus scale="  110.210">  2  5  1 -1</clus>
<clus scale="   30.228">  1  3  2 -1</clus>
</clustering>
</event>
<event>
 6    0  0.8777103E+002  0.1162706E+03  0.7546771E-02  0.1249379E+00
         21   -1    0    0  505  501  0.00000000000E+00  0.00000000000E+00  0.96374856777E+03  0.96374856777E+03  0.00000000000E+00 0. -1.
         21   -1    0    0  504  502 -0.00000000000E+00 -0.00000000000E+00 -0.41939057988E+03  0.41939057988E+03  0.00000000000E+00 0.  1.
         21    1    1    2  503  501  0.28637447269E+02 -0.77550616833E+02  0.45612604952E+03  0.46355708884E+03  0.00000000000E+00 0. -1.
         21    1    1    2  504  503 -0.27194231127E+02 -0.28157906009E+02 -0.31140116747E+03  0.31385200490E+03  0.00000000000E+00 0.  1.
         21    1    1    2  505  506 -0.55365055964E+02 -0.37634370621E+02  0.44183067546E+03  0.44687356271E+03  0.00000000000E+00 0. -1.
         21    1    1    2  506  502  0.53921839821E+02  0.14334289346E+03 -0.42197569613E+02  0.15885649120E+03  0.00000000000E+00 0.  1.
<scales pt_clust_3="14000.00000" pt_clust_4="39.14580" pt_clust_5="67.85028" pt_clust_6="116.27062"></scales>
<clustering>
<clus scale="   39.146">  2  4  1 -1</clus>
<clus scale="   67.850">  1  5  2 -1</clus>
<clus scale="  116.271">  2  6  1 -1</clus>
<clus scale="   67.850">  1  3  2 -1</clus>
</clustering>
</event>
<event>
 6    0  0.8777103E+002  0.8757148E+02  0.7546771E-02  0.1308842E+00
         21   -1    0    0  506  501  0.00000000000E+00  0.00000000000E+00  0.57052402849E+03  0.57052402849E+03  0.00000000000E+00 0. -1.
         21   -1    0    0  504  502 -0.00000000000E+00 -0.00000000000E+00 -0.65314646352E+03  0.65314646352E+03  0.00000000000E+00 0. -1.
         21    1    1    2  503  501 -0.87695709580E+02  0.51922874067E+01  0.54630078507E+03  0.55331911687E+03  0.00000000000E+00 0. -1.
         21    1    1    2  504  505  0.18252456654E+02  0.68654024479E+02 -0.20297907523E+03  0.21505123164E+03  0.00000000000E+00 0. -1.
         21    1    1    2  505  503  0.53396051502E+02 -0.35802769458E+02 -0.40293697176E+03  0.40803330726E+03  0.00000000000E+00 0. -1.
         21    1    1    2  506  502  0.16047201424E+02 -0.38043542428E+02 -0.23007173103E+02  0.47266836241E+02  0.00000000000E+00 0.  1.
<scales pt_clust_3="87.57148" pt_clust_4="60.60501" pt_clust_5="14000.00000" pt_clust_6="41.28951"></scales>
<clustering>
<clus scale="   41.290">  2  6  1 -1</clus>
<clus scale="   60.605">  2  4  1 -1</clus>
<clus scale="   87.571">  1  3  2 -1</clus>
<clus scale="   87.571">  1  3  2 -1</clus>
</clustering>
</event>
<event>
 6    0  0.8777103E+002  0.1313513E+03  0.7546771E-02  0.1225464E+00
         21   -1    0    0  505  501  0.00000000000E+00  0.00000000000E+00  0.42038862522E+03  0.42038862522E+03  0.00000000000E+00 0. -1.
         21   -1    0    0  506  502 -0.00000000000E+00 -0.00000000000E+00 -0.23030095500E+03  0.23030095500E+03  0.00000000000E+00 0. -1.
         21    1    1    2  503  501  0.77853455146E+02 -0.12096308622E+03  0.15585441265E+03  0.21209390997E+03  0.00000000000E+00 0. -1.
         21    1    1    2  504  502  0.10028145301E+03  0.11035601076E+03  0.75564754369E+02  0.16716713502E+03  0.00000000000E+00 0. -1.
         21    1    1    2  505  504 -0.46232337919E+02  0.31152089579E+02  0.75622362539E+02  0.93950111605E+02  0.00000000000E+00 0. -1.
         21    1    1    2  506  503 -0.13190257024E+03 -0.20545014122E+02 -0.11695385933E+03  0.17747842363E+03  0.00000000000E+00 0. -1.
<scales pt_clust_3="116.40226" pt_clust_4="131.35127" pt_clust_5="55.74838" pt_clust_6="14000.00000"></scales>
<clustering>
<clus scale="   55.748">  1  5  2 -1</clus>
<clus scale="  116.402">  1  3  2 -1</clus>
<clus scale="  131.351">  1  4  2 -1</clus>
<clus scale="   55.748">  1  3  2 -1</clus>
</clustering>
</event>
<event>
 6    0  0.8777103E+002  0.1060799E+03  0.7546771E-02  0.1268006E+00
         21   -1    0    0  505  501  0.00000000000E+00  0.00000000000E+00  0.51604606976E+03  0.51604606976E+03  0.00000000000E+00 0. -1.
         21   -1    0    0  501  502 -0.00000000000E+00 -0.00000000000E+00 -0.29745171877E+03  0.29745171877E+03  0.00000000000E+00 0. -1.
         21    1    1    2  503  502 -0.47138843659E+02  0.90611992273E+02 -0.17620175608E+03  0.20366556550E+03  0.00000000000E+00 0. -1.
         21    1    1    2  504  503  0.13046998636E+02 -0.12471995814E+03 -0.42269002157E+02  0.13233276493E+03  0.00000000000E+00 0. -1.
         21    1    1    2  505  506  0.46125977951E+02 -0.65796695510E+02  0.27710744327E+03  0.28852269599E+03  0.00000000000E+00 0. -1.
         21    1    1    2  506  504 -0.12034132928E+02  0.99904661376E+02  0.15995766595E+03  0.18897676211E+03  0.00000000000E+00 0. -1.
<scales pt_clust_3="106.07989" pt_clust_4="14000.00000" pt_clust_5="80.35428" pt_clust_6="55.44328"></scales>
<clustering>
<clus scale="   80.354">  1  5  2 -1</clus>
<clus scale="   55.443">  1  6  2 -1</clus>
<clus scale="  106.080">  2  3  1 -1</clus>
<clus scale="   80.354">  1  3  2 -1</clus>
</clustering>
</event>
<event>
 6    0  0.8777103E+002  0.8644560E+02  0.7546771E-02  0.1311695E+00
         21   -1    0    0  506  501  0.00000000000E+00  0.00000000000E+00  0.12808228457E+04  0.12808228457E+04  0.00000000000E+00 0.  1.
         21   -1    0    0  503  502 -0.00000000000E+00 -0.00000000000E+00 -0.24970225892E+03  0.24970225892E+03  0.00000000000E+00 0.  1.
         21    1    1    2  503  504  0.22967300195E+02  0.11200256900E+03  0.47247648715E+02  0.12371100457E+03  0.00000000000E+00 0. -1.
         21    1    1    2  504  501  0.90224126776E+02 -0.53406650375E+02  0.12397927923E+03  0.16236848535E+03  0.00000000000E+00 0. -1.
         21    1    1    2  505  502 -0.40809531146E+02 -0.33016377453E+02 -0.18726173427E+03  0.19447996333E+03  0.00000000000E+00 0.  1.
         21    1    1    2  506  505 -0.72381895826E+02 -0.25579541176E+02  0.10471553931E+04  0.10499656513E+04  0.00000000000E+00 0.  1.
<scales pt_clust_3="86.44560" pt_clust_4="14000.00000" pt_clust_5="52.49285" pt_clust_6="77.95169"></scales>
<clustering>
<clus scale="   52.493">  2  5  1 -1</clus>
<clus scale="   77.952">  1  6  2 -1</clus>
<clus scale="   86.446">  2  3  1 -1</clus>
<clus scale="   77.952">  1  3  2 -1</clus>
</clustering>
</event>
<event>
 6    0  0.8777103E+002  0.6596469E+02  0.7546771E-02  0.1374379E+00
         21   -1    0    0  505  501  0.00000000000E+00  0.00000000000E+00  0.49468348578E+03  0.49468348578E+03  0.00000000000E+00 0. -1.
         21   -1    0    0  503  502 -0.00000000000E+00 -0.00000000000E+00 -0.15712214980E+03  0.15712214980E+03  0.00000000000E+00 0.  1.
         21    1    1    2  503  501  0.37313883983E+02 -0.69030593174E+02 -0.87101439798E+02  0.11723570082E+03  0.00000000000E+00 0.  1.
         21    1    1    2  504  502 -0.58932894935E+01  0.29582639219E+02 -0.39133320839E+02  0.49409312929E+02  0.00000000000E+00 0.  1.
         21    1    1    2  505  506  0.52126250857E+02  0.11247151112E+02  0.14933497351E+03  0.15857042205E+03  0.00000000000E+00 0. -1.
         21    1    1    2  506  504 -0.83546845346E+02  0.28200802843E+02  0.31446112311E+03  0.32659019978E+03  0.00000000000E+00 0. -1.
<scales pt_clust_3="52.98614" pt_clust_4="30.16394" pt_clust_5="14000.00000" pt_clust_6="65.96469"></scales>
<clustering>
<clus scale="   30.164">  2  4  1 -1</clus>
<clus scale="   52.986">  2  3  1 -1</clus>
<clus scale="   65.965">  2  6  1 -1</clus>
<clus scale="   65.965">  1  3  2 -1</clus>
</clustering>
</event>
<event>
 6    0  0.8777103E+002  0.1436202E+03  0.7546771E-02  0.1208539E+00
         21   -1    0    0  506  501  0.00000000000E+00  0.00000000000E+00  0.22581761518E+02  0.22581761518E+02  0.00000000000E+00 0. -1.
         21   -1    0    0  504  502 -0.00000000000E+00 -0.00000000000E+00 -0.21227081718E+04  0.21227081718E+04  0.00000000000E+00 0. -1.
         21    1    1    2  503  501 -0.40380240803E+02  0.39511747068E+01 -0.10302679589E+03  0.11072802852E+03  0.00000000000E+00 0.  1.
         21    1    1    2  504  505 -0.30164747025E+02 -0.39133530606E+02 -0.87615463908E+03  0.87754674904E+03  0.00000000000E+00 0. -1.
         21    1    1    2  505  503 -0.27938425680E+02 -0.80165007112E+02 -0.77042458330E+03  0.77508775151E+03  0.00000000000E+00 0. -1.
         21    1    1    2  506  502  0.98483413508E+02  0.11534736301E+03 -0.35052039200E+03  0.38192740423E+03  0.00000000000E+00 0. -1.
<scales pt_clust_3="40.57309" pt_clust_4="37.13647" pt_clust_5="37.13647" pt_clust_6="135.11927"></scales>
<clustering>
<clus scale="   37.136">  4  5 -1 -1</clus>
<clus scale="   40.573">  1  3  2 -1</clus>
<clus scale="  135.119">  1  6  2 -1</clus>
<clus scale="   40.573">  1  3  2 -1</clus>
</clustering>
</event>
<event>
 6    0  0.8777103E+002  0.1002058E+03  0.7546771E-02  0.1279864E+00
         21   -1    0    0  503  501  0.00000000000E+00  0.00000000000E+00  0.47502500308E+02  0.47502500308E+02  0.00000000000E+00 0.  1.
         21   -1    0    0  504  502 -0.00000000000E+00 -0.00000000000E+00 -0.17369269929E+04  0.17369269929E+04  0.00000000000E+00 0.  1.
         21    1    1    2  503  506  0.21847221576E+02  0.30124489752E+02  0.43144150892E+01  0.37461982743E+02  0.00000000000E+00 0.  1.
         21    1    1    2  504  505 -0.61615492732E+02 -0.29539808511E+02 -0.43212316463E+03  0.43749228409E+03  0.00000000000E+00 0.  1.
         21    1    1    2  505  501 -0.21332623745E+02 -0.11927424138E+03 -0.16471356979E+03  0.20447979256E+03  0.00000000000E+00 0.  1.
         21    1    1    2  506  502  0.61100894901E+02  0.11868956014E+03 -0.10969021732E+04  0.11049954338E+04  0.00000000000E+00 0.  1.
<scales pt_clust_3="37.21271" pt_clust_4="65.05438" pt_clust_5="14000.00000" pt_clust_6="100.20578"></scales>
<clustering>
<clus scale="   37.213">  1  3  2 -1</clus>
<clus scale="   65.054">  2  4  1 -1</clus>
<clus scale="  100.206">  2  6  1 -1</clus>
<clus scale="   37.213">  1  3  2 -1</clus>
</clustering>
</event>
<event>
 6    0  0.8777103E+002  0.8353441E+02  0.7546771E-02  0.1319310E+00
         21   -1    0    0  504  501  0.00000000000E+00  0.00000000000E+00  0.62147643589E+03  0.62147643589E+03  0.00000000000E+00 0.  1.
         21   -1    0    0  506  502 -0.00000000000E+00 -0.00000000000E+00 -0.31951386540E+03  0.31951386540E+03  0.00000000000E+00 0.  1.
         21    1    1    2  503  505  0.48257603812E+02  0.11866949519E+03  0.43433357156E+02  0.13526899840E+03  0.00000000000E+00 0.  1.
         21    1    1    2  504  503  0.53454988570E+01 -0.53693695826E+02  0.47312281494E+03  0.47618986271E+03  0.00000000000E+00 0.  1.
         21    1    1    2  505  502 -0.24420630602E+02 -0.42223195458E+02 -0.26362735657E+03  0.26810175040E+03  0.00000000000E+00 0.  1.
         21    1    1    2  506  501 -0.29182472067E+02 -0.22752603908E+02  0.49033754970E+02  0.61429689784E+02  0.00000000000E+00 0.  1.
<scales pt_clust_3="83.53441" pt_clust_4="14000.00000" pt_clust_5="48.91226" pt_clust_6="37.00402"></scales>
<clustering>
<clus scale="   37.004">  1  6  2 -1</clus>
<clus scale="   48.912">  2  5  1 -1</clus>
<clus scale="   83.534">  2  3  1 -1</clus>
<clus scale="   37.004">  1  3  2 -1</clus>
</clustering>
</event>
<event>
 6    0  0.8777103E+002  0.1092028E+03  0.7546771E-02  0.1262053E+00
         21   -1    0    0  506  501  0.00000000000E+00  0.00000000000E+00  0.27700971492E+03  0.27700971492E+03  0.00000000000E+00 0.  1.
         21   -1    0    0  504  502 -0.00000000000E+00 -0.00000000000E+00 -0.11583174712E+04  0.11583174712E+04  0.00000000000E+00 0.  1.
         21    1    1    2  503  502  0.37668978269E+02 -0.14586816484E+02 -0.36362312230E+03  0.36585994890E+03  0.00000000000E+00 0.  1.
         21    1    1    2  504  505  0.61850200168E+02  0.56553693383E+02 -0.65431348762E+03  0.65965893277E+03  0.00000000000E+00 0.  1.
         21    1    1    2  505  501  0.77487809490E+02  0.64800743307E+02  0.17260190694E+03  0.19998728768E+03  0.00000000000E+00 0.  1.
         21    1    1    2  506  503 -0.17700698793E+03 -0.10676762021E+03 -0.35973053250E+02  0.20982101673E+03  0.00000000000E+00 0.  1.
<scales pt_clust_3="40.39464" pt_clust_4="14000.00000" pt_clust_5="101.35133" pt_clust_6="109.20281"></scales>
<clustering>
<clus scale="   40.395">  2  3  1 -1</clus>
<clus scale="  101.351">  1  5  2 -1</clus>
<clus scale="  109.203">  1  6  2 -1</clus>
<clus scale="  101.351">  1  3  2 -1</clus>
</clustering>
</event>
<event>
 6    0  0.8777103E+002  0.1355541E+03  0.7546771E-02  0.1219440E+00
         21   -1    0    0  504  501  0.00000000000E+00  0.00000000000E+00  0.19076475601E+03  0.19076475601E+03  0.00000000000E+00 0. -1.
         21   -1    0    0  505  502 -0.00000000000E+00 -0.00000000000E+00 -0.15395253793E+04  0.15395253793E+04  0.00000000000E+00 0.  1.
         21    1    1    2  503  501  0.49346790494E+02 -0.20827879498E+02  0.36401782025E+02  0.64761068791E+02  0.00000000000E+00 0.  1.
         21    1    1    2  504  502 -0.72547169990E+02  0.32315282687E+02 -0.45189396522E+03  0.45881970878E+03  0.00000000000E+00 0.  1.
         21    1    1    2  505  506 -0.53144514108E+02 -0.30511166839E+02 -0.10577086102E+04  0.10594823145E+04  0.00000000000E+00 0.  1.
         21    1    1    2  506  503  0.76344893605E+02  0.19023763649E+02  0.12444017003E+03  0.14722704330E+03  0.00000000000E+00 0. -1.
<scales pt_clust_3="47.16117" pt_clust_4="122.91354" pt_clust_5="61.28026" pt_clust_6="47.16117"></scales>
<clustering>
<clus scale="   47.161">  3  6 -1 -1</clus>
<clus scale="   61.280">  2  5  1 -1</clus>
<clus scale="  122.914">  2  4  1 -1</clus>
<clus scale="  135.554">  1  3  2 -1</clus>
</clustering>
</event>
<event>
 6    0  0.8777103E+002  0.9170346E+02  0.7546771E-02  0.1298778E+00
         21   -1    0    0  505  501  0.00000000000E+00  0.00000000000E+00  0.48983463593E+03  0.48983463593E+03  0.00000000000E+00 0.  1.
         21   -1    0    0  506  502 -0.00000000000E+00 -0.00000000000E+00 -0.98572058260E+02  0.98572058260E+02  0.00000000000E+00 0.  1.
         21    1    1    2  503  501  0.16733562187E+02 -0.45772305838E+02  0.17230339445E+03  0.17906304986E+03  0.00000000000E+00 0.  1.
         21    1    1    2  504  502 -0.86732690399E+02 -0.45780208626E+02 -0.38907940852E+02  0.10550931213E+03  0.00000000000E+00 0.  1.
         21    1    1    2  505  504  0.50409751091E+02 -0.31989748916E+01  0.15313108532E+03  0.16124672318E+03  0.00000000000E+00 0.  1.
         21    1    1    2  506  503  0.19589377121E+02  0.94751489355E+02  0.10473603875E+03  0.14258760901E+03  0.00000000000E+00 0.  1.
<scales pt_clust_3="48.73516" pt_clust_4="91.70346" pt_clust_5="64.31706" pt_clust_6="14000.00000"></scales>
<clustering>
<clus scale="   48.735">  1  3  2 -1</clus>
<clus scale="   64.317">  1  5  2 -1</clus>
<clus scale="   91.703">  2  4  1 -1</clus>
<clus scale="   48.735">  1  3  2 -1</clus>
</clustering>
</event>
<event>
 6    0  0.8777103E+002  0.1505834E+03  0.7546771E-02  0.1199758E+00
         21   -1    0    0  505  501  0.00000000000E+00  0.00000000000E+00  0.18999632067E+04  0.18999632067E+04  0.00000000000E+00 0.  1.
         21   -1    0    0  506  502 -0.00000000000E+00 -0.00000000000E+00 -0.31573488809E+03  0.31573488809E+03  0.00000000000E+00 0. -1.
         21    1    1    2  503  501  0.12215002449E+03 -0.60681828192E+01  0.10777205188E+04  0.10846377128E+04  0.00000000000E+00 0.  1.
         21    1    1    2  504  502 -0.71381528045E+02  0.89100087438E+02 -0.10812713922E+03  0.15724384364E+03  0.00000000000E+00 0. -1.
         21    1    1    2  505  504  0.18635886912E+02 -0.57709838044E+02  0.78540898969E+03  0.78774678849E+03  0.00000000000E+00 0.  1.
         21    1    1    2  506  503 -0.69404383353E+02 -0.25322066575E+02 -0.17077405061E+03  0.18606974995E+03  0.00000000000E+00 0. -1.
<scales pt_clust_3="14000.00000" pt_clust_4="150.58339" pt_clust_5="60.64422" pt_clust_6="73.89625"></scales>
<clustering>
<clus scale="   60.644">  1  5  2 -1</clus>
<clus scale="   73.896">  2  6  1 -1</clus>
<clus scale="  150.583">  2  4  1 -1</clus>
<clus scale="   60.644">  1  3  2 -1</clus>
</clustering>
</event>
<event>
 6    0  0.8777103E+002  0.1370706E+03  0.7546771E-02  0.1217326E+00
         21   -1    0    0  505  501  0.00000000000E+00  0.00000000000E+00  0.14334828002E+03  0.14334828002E+03  0.00000000000E+00 0.  1.
         21   -1    0    0  503  502 -0.00000000000E+00 -0.00000000000E+00 -0.60465896624E+03  0.60465896624E+03  0.00000000000E+00 0.  1.
         21    1    1    2  503  506  0.21802360497E+02  0.25770348035E+02 -0.24437538655E+03  0.24669573023E+03  0.00000000000E+00 0.  1.
         21    1    1    2  504  501  0.69056247743E+02 -0.15469973881E+03 -0.16550071947E+03  0.23683594044E+03  0.00000000000E+00 0.  1.
         21    1    1    2  505  502 -0.96891446481E+02  0.90350869883E+02  0.60708914732E+02  0.14572852987E+03  0.00000000000E+00 0.  1.
         21    1    1    2  506  504  0.60328382407E+01  0.38578520894E+02 -0.11214349493E+03  0.11874704572E+03  0.00000000000E+00 0. -1.
<scales pt_clust_3="33.75580" pt_clust_4="137.07059" pt_clust_5="14000.00000" pt_clust_6="48.64360"></scales>
<clustering>
<clus scale="   33.756">  2  3  1 -1</clus>
<clus scale="   48.644">  2  6  1 -1</clus>
<clus scale="  137.071">  2  4  1 -1</clus>
<clus scale="  137.071">  1  3  2 -1</clus>
</clustering>
</event>
<event>
 6    0  0.8777103E+002  0.1177861E+03  0.7546771E-02  0.1246795E+00
         21   -1    0    0  505  501  0.00000000000E+00  0.00000000000E+00  0.33356293425E+03  0.33356293425E+03  0.00000000000E+00 0. -1.
         21   -1    0    0  506  502 -0.00000000000E+00 -0.00000000000E+00 -0.11049476916E+03  0.11049476916E+03  0.00000000000E+00 0. -1.
         21    1    1    2  503  504  0.66716363282E+02  0.29282637916E+01 -0.25876596332E+02  0.71618755198E+02  0.00000000000E+00 0. -1.
         21    1    1    2  504  501 -0.99281737054E+02 -0.85173138668E+02  0.22736854782E+03  0.26231237753E+03  0.00000000000E+00 0. -1.
         21    1    1    2  505  502  0.97369242743E+01  0.40363058329E+02  0.41251003108E+02  0.58528876885E+02  0.00000000000E+00 0. -1.
         21    1    1    2  506  503  0.22828449497E+02  0.41881816548E+02 -0.19674789511E+02  0.51597693806E+02  0.00000000000E+00 0.  1.
<scales pt_clust_3="47.65419" pt_clust_4="103.88656" pt_clust_5="41.52089" pt_clust_6="47.65419"></scales>
<clustering>
<clus scale="   41.521">  1  5  2 -1</clus>
<clus scale="   47.654">  3  6 -1 -1</clus>
<clus scale="  103.887">  1  4  2 -1</clus>
<clus scale="   41.521">  1  3  2 -1</clus>
</clustering>
</event>
<event>
 6    0  0.8777103E+002  0.3690660E+03  0.7546771E-02  0.1055051E+00
         21   -1    0    0  504  501  0.00000000000E+00  0.00000000000E+00  0.19287092739E+04  0.19287092739E+04  0.00000000000E+00 0. -1.
         21   -1    0    0  503  502 -0.00000000000E+00 -0.00000000000E+00 -0.10340232883E+04  0.10340232883E+04  0.00000000000E+00 0. -1.
         21    1    1    2  503  501  0.32974169286E+03  0.35150738473E+02  0.71115016737E+03  0.78466535477E+03  0.00000000000E+00 0. -1.
         21    1    1    2  504  506  0.45648317663E+02 -0.11867375281E+02  0.11343559116E+04  0.11353360461E+04  0.00000000000E+00 0. -1.
         21    1    1    2  505  502 -0.84727360559E+02 -0.49721969347E+02 -0.88021290978E+02  0.13190431202E+03  0.00000000000E+00 0. -1.
         21    1    1    2  506  505 -0.29066264997E+03  0.26438606155E+02 -0.86279880234E+03  0.91082684924E+03  0.00000000000E+00 0. -1.
<scales pt_clust_3="369.06597" pt_clust_4="47.16570" pt_clust_5="97.32174" pt_clust_6="14000.00000"></scales>
<clustering>
<clus scale="   47.166">  1  4  2 -1</clus>
<clus scale="   97.322">  2  5  1 -1</clus>
<clus scale="  369.066">  1  3  2 -1</clus>
<clus scale="   47.166">  1  3  2 -1</clus>
</clustering>
</event>
<event>
 6    0  0.8777103E+002  0.7191431E+02  0.7546771E-02  0.1353702E+00
         21   -1    0    0  503  501  0.00000000000E+00  0.00000000000E+00  0.22524372276E+03  0.22524372276E+03  0.00000000000E+00 0.  1.
         21   -1    0    0  506  502 -0.00000000000E+00 -0.00000000000E+00 -0.11615527399E+04  0.11615527399E+04  0.00000000000E+00 0. -1.
         21    1    1    2  503  505 -0.53114690550E+02  0.30226898897E+02  0.57167465953E+02  0.83683659890E+02  0.00000000000E+00 0.  1.
         21    1    1    2  504  501 -0.14096124954E+02 -0.58936702857E+02  0.14244530840E+03  0.15479955286E+03  0.00000000000E+00 0.  1.
         21    1    1    2  505  502  0.57318220216E+02  0.72970739454E+02 -0.10138735788E+04  0.10181108687E+04  0.00000000000E+00 0. -1.
         21    1    1    2  506  504  0.98925952886E+01 -0.44260935494E+02 -0.12204821271E+03  0.13020238123E+03  0.00000000000E+00 0.  1.
<scales pt_clust_3="60.72442" pt_clust_4="14000.00000" pt_clust_5="71.91431" pt_clust_6="45.35299"></scales>
<clustering>
<clus scale="   45.353">  2  6  1 -1</clus>
<clus scale="   60.724">  1  3  2 -1</clus>
<clus scale="   71.914">  2  5  1 -1</clus>
<clus scale="   60.724">  1  3  2 -1</clus>
</clustering>
</event>
<event>
 6    0  0.8777103E+002  0.1204789E+03  0.7546771E-02  0.1242309E+00
         21   -1    0    0  504  501  0.00000000000E+00  0.00000000000E+00  0.29381427632E+03  0.29381427632E+03  0.00000000000E+00 0. -1.
         21   -1    0    0  503  502 -0.00000000000E+00 -0.00000000000E+00 -0.76953493338E+02  0.76953493338E+02  0.00000000000E+00 0. -1.
         21    1    1    2  503  506 -0.28670018942E+02 -0.30486623088E+02  0.98848403107E+01  0.43001328368E+02  0.00000000000E+00 0. -1.
         21    1    1    2  504  505 -0.45924324501E+02 -0.52924878787E+01  0.87950194426E+02  0.99359401711E+02  0.00000000000E+00 0. -1.
         21    1    1    2  505  502  0.10173565476E+03  0.84393123709E+02  0.53964171632E+02  0.14277420845E+03  0.00000000000E+00 0. -1.
         21    1    1    2  506  501 -0.27141311319E+02 -0.48614012743E+02  0.65061576612E+02  0.85632831124E+02  0.00000000000E+00 0. -1.
<scales pt_clust_3="34.22049" pt_clust_4="46.22828" pt_clust_5="113.82969" pt_clust_6="34.22049"></scales>
<clustering>
<clus scale="   34.220">  3  6 -1 -1</clus>
<clus scale="   46.228">  1  4  2 -1</clus>
<clus scale="  113.830">  1  5  2 -1</clus>
<clus scale="   46.228">  1  3  2 -1</clus>
</clustering>
</event>
<event>
 6    0  0.8777103E+002  0.9340379E+02  0.7546771E-02  0.1294812E+00
         21   -1    0    0  504  501  0.00000000000E+00  0.00000000000E+00  0.16613027994E+04  0.16613027994E+04  0.00000000000E+00 0. -1.
         21   -1    0    0  506  502 -0.00000000000E+00 -0.00000000000E+00 -0.23050595172E+03  0.23050595172E+03  0.00000000000E+00 0. -1.
         21    1    1    2  503  502  0.81979548634E+02  0.42984984992E+02 -0.20269212510E+03  0.22282830365E+03  0.00000000000E+00 0. -1.
         21    1    1    2  504  503 -0.26008795873E+02 -0.21711634797E+02  0.42358088274E+02  0.54240761338E+02  0.00000000000E+00 0.  1.
         21    1    1    2  505  501  0.10232895199E+03  0.15145297538E+02  0.83329328225E+03  0.83968940013E+03  0.00000000000E+00 0. -1.
         21    1    1    2  506  505 -0.15829970475E+03 -0.36418647732E+02  0.75783760226E+03  0.77505028599E+03  0.00000000000E+00 0. -1.
<scales pt_clust_3="14000.00000" pt_clust_4="33.87997" pt_clust_5="88.92593" pt_clust_6="93.40379"></scales>
<clustering>
<clus scale="   33.880">  1  4  2 -1</clus>
<clus scale="   88.926">  1  5  2 -1</clus>
<clus scale="   93.404">  1  6  2 -1</clus>
<clus scale="   33.880">  1  3  2 -1</clus>
</clustering>
</event>
<event>
 6    0  0.8777103E+002  0.8982233E+02  0.7546771E-02  0.1303283E+00
         21   -1    0    0  503  501  0.00000000000E+00  0.00000000000E+00  0.60411225049E+03  0.60411225049E+03  0.00000000000E+00 0.  1.
         21   -1    0    0  506  502 -0.00000000000E+00 -0.00000000000E+00 -0.95004962835E+02  0.95004962835E+02  0.00000000000E+00 0.  1.
         21    1    1    2  503  505  0.32054370552E+02 -0.37105197709E+02  0.92508361197E+02  0.10469992961E+03  0.00000000000E+00 0.  1.
         21    1    1    2  504  502 -0.16109749427E+02  0.93638730878E+02  0.83829362964E+01  0.95383486872E+02  0.00000000000E+00 0.  1.
         21    1    1    2  505  504  0.79059081531E+02 -0.58993234261E+02  0.21695275403E+02  0.10100111403E+03  0.00000000000E+00 0.  1.
         21    1    1    2  506  501 -0.95003702656E+02  0.24597010932E+01  0.38652071476E+03  0.39803268281E+03  0.00000000000E+00 0.  1.
<scales pt_clust_3="49.03344" pt_clust_4="89.82233" pt_clust_5="14000.00000" pt_clust_6="74.91069"></scales>
<clustering>
<clus scale="   49.033">  1  3  2 -1</clus>
<clus scale="   74.911">  1  6  2 -1</clus>
<clus scale="   89.822">  2  4  1 -1</clus>
<clus scale="   49.033">  1  3  2 -1</clus>
</clustering>
</event>
<event>
 6    0  0.8777103E+002  0.1473029E+03  0.7546771E-02  0.1203827E+00
         21   -1    0    0  504  501  0.00000000000E+00  0.00000000000E+00  0.18354253000E+04  0.18354253000E+04  0.00000000000E+00 0. -1.
         21   -1    0    0  506  502 -0.00000000000E+00 -0.00000000000E+00 -0.16705160547E+04  0.16705160547E+04  0.00000000000E+00 0.  1.
         21    1    1    2  503  505 -0.10157048433E+03 -0.40943261184E+02 -0.55363857857E+03  0.56436565239E+03  0.00000000000E+00 0.  1.
         21    1    1    2  504  502 -0.74512062153E+02 -0.12584143228E+03  0.17732301027E+04  0.17792507160E+04  0.00000000000E+00 0. -1.
         21    1    1    2  505  501  0.17573096600E+03  0.21968374025E+03 -0.32137245962E+03  0.42710955965E+03  0.00000000000E+00 0.  1.
         21    1    1    2  506  503  0.35158047824E+00 -0.52899046790E+02 -0.73330981910E+03  0.73521542663E+03  0.00000000000E+00 0.  1.
<scales pt_clust_3="124.63618" pt_clust_4="147.30294" pt_clust_5="14000.00000" pt_clust_6="52.90022"></scales>
<clustering>
<clus scale="   52.900">  2  6  1 -1</clus>
<clus scale="  124.636">  2  3  1 -1</clus>
<clus scale="  147.303">  1  4  2 -1</clus>
<clus scale="  147.303">  1  3  2 -1</clus>
</clustering>
</event>
<event>
 6    0  0.8777103E+002  0.8583752E+02  0.7546771E-02  0.1313257E+00
         21   -1    0    0  505  501  0.00000000000E+00  0.00000000000E+00  0.46129049313E+03  0.46129049313E+03  0.00000000000E+00 0. -1.
         21   -1    0    0  506  502 -0.00000000000E+00 -0.00000000000E+00 -0.12773397550E+04  0.12773397550E+04  0.00000000000E+00 0. -1.
         21    1    1    2  503  501 -0.94966624416E+01  0.30555978991E+02  0.10003697276E+03  0.10502975944E+03  0.00000000000E+00 0.  1.
         21    1    1    2  504  502 -0.67647579468E+02 -0.52586148572E+02 -0.12538258074E+04  0.12567500361E+04  0.00000000000E+00 0. -1.
         21    1    1    2  505  504 -0.28474159103E+02 -0.10595779615E+02  0.18956680229E+03  0.19198599119E+03  0.00000000000E+00 0. -1.
         21    1    1    2  506  503  0.10561840101E+03  0.32625949195E+02  0.14817277044E+03  0.18486446141E+03  0.00000000000E+00 0. -1.
<scales pt_clust_3="33.40685" pt_clust_4="14000.00000" pt_clust_5="30.38171" pt_clust_6="85.83752"></scales>
<clustering>
<clus scale="   30.382">  1  5  2 -1</clus>
<clus scale="   33.407">  1  3  2 -1</clus>
<clus scale="   85.838">  1  6  2 -1</clus>
<clus scale="   30.382">  1  3  2 -1</clus>
</clustering>
</event>
<event>
 6    0  0.8777103E+002  0.2036134E+03  0.7546771E-02  0.1146726E+00
         21   -1    0    0  504  501  0.00000000000E+00  0.00000000000E+00  0.28042269644E+03  0.28042269644E+03  0.00000000000E+00 0.  1.
         21   -1    0    0  501  502 -0.00000000000E+00 -0.00000000000E+00 -0.55459588281E+03  0.55459588281E+03  0.00000000000E+00 0.  1.
         21    1    1    2  503  506  0.13554408200E+03  0.89458090791E+02 -0.29803740123E+03  0.33941308269E+03  0.00000000000E+00 0.  1.
         21    1    1    2  504  505 -0.53731930188E+02 -0.14038241229E+02  0.17589931773E+03  0.18445802372E+03  0.00000000000E+00 0.  1.
         21    1    1    2  505  503 -0.90321101823E+02 -0.12126722792E+03  0.95352007511E+00  0.15121028802E+03  0.00000000000E+00 0.  1.
         21    1    1    2  506  502  0.85089500086E+01  0.45847378361E+02 -0.15298862295E+03  0.15993718481E+03  0.00000000000E+00 0. -1.
<scales pt_clust_3="44.40495" pt_clust_4="55.53551" pt_clust_5="185.98671" pt_clust_6="44.40495"></scales>
<clustering>
<clus scale="   44.405">  3  6 -1 -1</clus>
<clus scale="   55.536">  1  4  2 -1</clus>
<clus scale="  185.987">  1  5  2 -1</clus>
<clus scale="   55.536">  1  3  2 -1</clus>
</clustering>
</event>
<event>
 6    0  0.8777103E+002  0.2014440E+03  0.7546771E-02  0.1148526E+00
         21   -1    0    0  504  501  0.00000000000E+00  0.00000000000E+00  0.12049484465E+03  0.12049484465E+03  0.00000000000E+00 0.  1.
         21   -1    0    0  505  502 -0.00000000000E+00 -0.00000000000E+00 -0.61468889297E+03  0.61468889297E+03  0.00000000000E+00 0. -1.
         21    1    1    2  503  502 -0.16983785519E+02 -0.33395396473E+02 -0.24687944931E+02  0.44868653880E+02  0.00000000000E+00 0. -1.
         21    1    1    2  504  503 -0.20291429658E+02 -0.15324995416E+03  0.24871281416E+02  0.15657544893E+03  0.00000000000E+00 0.  1.
         21    1    1    2  505  506 -0.13412540392E+02  0.38414044242E+02 -0.14970568708E+03  0.15513648114E+03  0.00000000000E+00 0. -1.
         21    1    1    2  506  501  0.50687755569E+02  0.14823130639E+03 -0.34467169773E+03  0.37860315368E+03  0.00000000000E+00 0. -1.
<scales pt_clust_3="32.48359" pt_clust_4="32.48359" pt_clust_5="33.19696" pt_clust_6="201.16908"></scales>
<clustering>
<clus scale="   32.484">  3  4 -1 -1</clus>
<clus scale="   33.197">  5  6 -1 -1</clus>
<clus scale="  201.169">  2  5  1 -1</clus>
<clus scale="  201.444">  1  3  2 -1</clus>
</clustering>
</event>
<event>
 6    0  0.8777103E+002  0.1014012E+03  0.7546771E-02  0.1277377E+00
         21   -1    0    0  506  501  0.00000000000E+00  0.00000000000E+00  0.23706472149E+03  0.23706472149E+03  0.00000000000E+00 0.  1.
         21   -1    0    0  505  502 -0.00000000000E+00 -0.00000000000E+00 -0.19398830955E+03  0.19398830955E+03  0.00000000000E+00 0.  1.
         21    1    1    2  503  501 -0.90571187987E+02  0.24801059975E+01  0.24549870503E+02  0.93872185235E+02  0.00000000000E+00 0.  1.
         21    1    1    2  504  502  0.44768444347E+02 -0.60289392856E+02  0.25908615406E+02  0.79437276215E+02  0.00000000000E+00 0.  1.
         21    1    1    2  505  503 -0.62105481234E+02  0.28649468840E+02 -0.94058451505E+02  0.11629649678E+03  0.00000000000E+00 0.  1.
         21    1    1    2  506  504  0.10790822487E+03  0.29159818019E+02  0.86676377542E+02  0.14144707281E+03  0.00000000000E+00 0.  1.
<scales pt_clust_3="101.40116" pt_clust_4="57.85329" pt_clust_5="68.39505" pt_clust_6="14000.00000"></scales>
<clustering>
<clus scale="   68.395">  2  5  1 -1</clus>
<clus scale="   57.853">  2  4  1 -1</clus>
<clus scale="  101.401">  2  3  1 -1</clus>
<clus scale="  101.401">  1  3  2 -1</clus>
</clustering>
</event>
<event>
 6    0  0.8777103E+002  0.1742537E+03  0.7546771E-02  0.1173483E+00
         21   -1    0    0  506  501  0.00000000000E+00  0.00000000000E+00  0.40485584976E+03  0.40485584976E+03  0.00000000000E+00 0.  1.
         21   -1    0    0  504  502 -0.00000000000E+00 -0.00000000000E+00 -0.15090540226E+03  0.15090540226E+03  0.00000000000E+00 0.  1.
         21    1    1    2  503  505 -0.15908199917E+03  0.51666730865E+02  0.94820927429E+02  0.19226945108E+03  0.00000000000E+00 0.  1.
         21    1    1    2  504  501  0.17769363953E+03 -0.37940707992E+02  0.13299684393E+03  0.22517257237E+03  0.00000000000E+00 0.  1.
         21    1    1    2  505  502 -0.22562563813E+01  0.31284153962E+02 -0.43609697466E+02  0.53717731664E+02  0.00000000000E+00 0. -1.
         21    1    1    2  506  503 -0.16355383974E+02 -0.45010176835E+02  0.69742373602E+02  0.84601496910E+02  0.00000000000E+00 0. -1.
<scales pt_clust_3="14000.00000" pt_clust_4="174.25369" pt_clust_5="31.36541" pt_clust_6="45.81842"></scales>
<clustering>
<clus scale="   31.365">  2  5  1 -1</clus>
<clus scale="   45.818">  1  6  2 -1</clus>
<clus scale="  174.254">  1  4  2 -1</clus>
<clus scale="   45.818">  1  3  2 -1</clus>
</clustering>
</event>
<event>
 6    0  0.8777103E+002  0.7209913E+02  0.7546771E-02  0.1353097E+00
         21   -1    0    0  505  501  0.00000000000E+00  0.00000000000E+00  0.20946109834E+03  0.20946109834E+03  0.00000000000E+00 0.  1.
         21   -1    0    0  504  502 -0.00000000000E+00 -0.00000000000E+00 -0.34619263832E+03  0.34619263832E+03  0.00000000000E+00 0.  1.
         21    1    1    2  503  506  0.53499963160E+02  0.73378452647E+02 -0.62623170111E+02  0.11031003946E+03  0.00000000000E+00 0.  1.
         21    1    1    2  504  501 -0.37753938233E+02 -0.74051270342E+02  0.68917722468E+02  0.10797501082E+03  0.00000000000E+00 0.  1.
         21    1    1    2  505  503 -0.19353183375E+02  0.70349288455E+02  0.77278288979E+02  0.10628029940E+03  0.00000000000E+00 0.  1.
         21    1    1    2  506  502  0.36071584473E+01 -0.69676470759E+02 -0.22030438132E+03  0.23108838698E+03  0.00000000000E+00 0.  1.
<scales pt_clust_3="60.76603" pt_clust_4="14000.00000" pt_clust_5="72.09913" pt_clust_6="69.76978"></scales>
<clustering>
<clus scale="   69.770">  2  6  1 -1</clus>
<clus scale="   60.766">  2  3  1 -1</clus>
<clus scale="   72.099">  1  5  2 -1</clus>
<clus scale="   72.099">  1  3  2 -1</clus>
</clustering>
</event>
<event>
 6    0  0.8777103E+002  0.9089402E+02  0.7546771E-02  0.1300701E+00
         21   -1    0    0  503  501  0.00000000000E+00  0.00000000000E+00  0.52841652328E+02  0.52841652328E+02  0.00000000000E+00 0.  1.
         21   -1    0    0  504  502 -0.00000000000E+00 -0.00000000000E+00 -0.65334486745E+03  0.65334486745E+03  0.00000000000E+00 0.  1.
         21    1    1    2  503  506  0.12526236659E+01  0.37879957796E+02  0.47985466852E+01  0.38203223934E+02  0.00000000000E+00 0.  1.
         21    1    1    2  504  501 -0.10592998454E+03  0.13609822889E+02 -0.20420569578E+03  0.23044816140E+03  0.00000000000E+00 0.  1.
         21    1    1    2  505  502  0.78612153030E+02  0.33837581574E+02 -0.19455039286E+03  0.21254342590E+03  0.00000000000E+00 0.  1.
         21    1    1    2  506  505  0.26065207845E+02 -0.85327362259E+02 -0.20654567316E+03  0.22499170854E+03  0.00000000000E+00 0.  1.
<scales pt_clust_3="37.90066" pt_clust_4="14000.00000" pt_clust_5="90.89402" pt_clust_6="78.74908"></scales>
<clustering>
<clus scale="   37.901">  1  3  2 -1</clus>
<clus scale="   78.749">  1  6  2 -1</clus>
<clus scale="   90.894">  2  5  1 -1</clus>
<clus scale="   37.901">  1  3  2 -1</clus>
</clustering>
</event>
<event>
 6    0  0.8777103E+002  0.8984616E+02  0.7546771E-02  0.1303225E+00
         21   -1    0    0  503  501  0.00000000000E+00  0.00000000000E+00  0.21650524571E+04  0.21650524571E+04  0.00000000000E+00 0.  1.
         21   -1    0    0  506  502 -0.00000000000E+00 -0.00000000000E+00 -0.34991511729E+02  0.34991511729E+02  0.00000000000E+00 0.  1.
         21    1    1    2  503  502  0.43001692598E+02  0.34711922072E+02  0.12521129874E+04  0.12533319577E+04  0.00000000000E+00 0.  1.
         21    1    1    2  504  501 -0.73352805767E+01  0.39088236919E+02  0.19535139672E+03  0.19935863364E+03  0.00000000000E+00 0.  1.
         21    1    1    2  505  504 -0.11182782860E+03 -0.10712429771E+03  0.63051519373E+03  0.64925379316E+03  0.00000000000E+00 0.  1.
         21    1    1    2  506  505  0.76161416574E+02  0.33324138718E+02  0.52081367552E+02  0.98099584310E+02  0.00000000000E+00 0.  1.
<scales pt_clust_3="70.86006" pt_clust_4="39.77055" pt_clust_5="14000.00000" pt_clust_6="89.84616"></scales>
<clustering>
<clus scale="   39.771">  1  4  2 -1</clus>
<clus scale="   70.860">  1  3  2 -1</clus>
<clus scale="   89.846">  2  6  1 -1</clus>
<clus scale="   39.771">  1  3  2 -1</clus>
</clustering>
</event>
<event>
 6    0  0.8777103E+002  0.8749942E+02  0.7546771E-02  0.1309023E+00
         21   -1    0    0  503  501  0.00000000000E+00  0.00000000000E+00  0.14926634594E+03  0.14926634594E+03  0.00000000000E+00 0.  1.
         21   -1    0    0  505  502 -0.00000000000E+00 -0.00000000000E+00 -0.10075279706E+04  0.10075279706E+04  0.00000000000E+00 0.  1.
         21    1    1    2  503  504 -0.28348618069E+02 -0.21724299916E+02  0.57255465099E+02  0.67481683715E+02  0.00000000000E+00 0.  1.
         21    1    1    2  504  502 -0.11722432660E+03  0.93586044420E+02 -0.30137255120E+02  0.15299720456E+03  0.00000000000E+00 0.  1.
         21    1    1    2  505  506  0.69087823218E+02 -0.50044979383E+02 -0.84084222913E+03  0.84515873158E+03  0.00000000000E+00 0.  1.
         21    1    1    2  506  501  0.76485121450E+02 -0.21816765121E+02 -0.44537605494E+02  0.91156696664E+02  0.00000000000E+00 0.  1.
<scales pt_clust_3="35.71539" pt_clust_4="14000.00000" pt_clust_5="87.49942" pt_clust_6="74.22109"></scales>
<clustering>
<clus scale="   35.715">  1  3  2 -1</clus>
<clus scale="   74.221">  1  6  2 -1</clus>
<clus scale="   87.499">  2  5  1 -1</clus>
<clus scale="   35.715">  1  3  2 -1</clus>
</clustering>
</event>
<event>
 6    0  0.8777103E+002  0.1251228E+03  0.7546771E-02  0.1234877E+00
         21   -1    0    0  504  501  0.00000000000E+00  0.00000000000E+00  0.37504544133E+03  0.37504544133E+03  0.00000000000E+00 0.  1.
         21   -1    0    0  501  502 -0.00000000000E+00 -0.00000000000E+00 -0.25546683667E+03  0.25546683667E+03  0.00000000000E+00 0.  1.
         21    1    1    2  503  506  0.38121349991E+02  0.87650231206E+02 -0.33767190679E+02  0.10137072320E+03  0.00000000000E+00 0.  1.
         21    1    1    2  504  505  0.77246090864E+01 -0.41537283875E+02  0.16320997104E+03  0.16858976892E+03  0.00000000000E+00 0.  1.
         21    1    1    2  505  503 -0.18696137521E+02 -0.79691139767E+02  0.16298788192E+03  0.18238769960E+03  0.00000000000E+00 0.  1.
         21    1    1    2  506  502 -0.27149821557E+02  0.33578192436E+02 -0.17285205761E+03  0.17816408628E+03  0.00000000000E+00 0.  1.
<scales pt_clust_3="117.01401" pt_clust_4="31.83442" pt_clust_5="31.83442" pt_clust_6="43.18110"></scales>
<clustering>
<clus scale="   31.834">  4  5 -1 -1</clus>
<clus scale="   43.181">  2  6  1 -1</clus>
<clus scale="  117.014">  2  3  1 -1</clus>
<clus scale="  125.123">  1  3  2 -1</clus>
</clustering>
</event>
<event>
 6    0  0.8777103E+002  0.2209560E+03  0.7546771E-02  0.1133172E+00
         21   -1    0    0  502  501  0.00000000000E+00  0.00000000000E+00  0.30343048576E+03  0.30343048576E+03  0.00000000000E+00 0. -1.
         21   -1    0    0  505  502 -0.00000000000E+00 -0.00000000000E+00 -0.12110107006E+04  0.12110107006E+04  0.00000000000E+00 0. -1.
         21    1    1    2  503  504  0.36595882838E+02 -0.14445007862E+01  0.13811401530E+02  0.39142049453E+02  0.00000000000E+00 0. -1.
         21    1    1    2  504  501  0.14310756216E+03  0.12846750806E+03  0.21551409781E+03  0.28884251995E+03  0.00000000000E+00 0. -1.
         21    1    1    2  505  506 -0.30250785735E+02 -0.14358371936E+03 -0.84962246577E+03  0.86220051545E+03  0.00000000000E+00 0. -1.
         21    1    1    2  506  503 -0.14945265927E+03  0.16560712088E+02 -0.28728324844E+03  0.32425610154E+03  0.00000000000E+00 0.  1.
<scales pt_clust_3="35.33346" pt_clust_4="35.33346" pt_clust_5="146.73580" pt_clust_6="205.58708"></scales>
<clustering>
<clus scale="   35.333">  3  4 -1 -1</clus>
<clus scale="  146.736">  2  5  1 -1</clus>
<clus scale="  205.587">  2  6  1 -1</clus>
<clus scale="  220.956">  1  3  2 -1</clus>
</clustering>
</event>
<event>
 6    0  0.8777103E+002  0.1655670E+03  0.7546771E-02  0.1182551E+00
         21   -1    0    0  504  501  0.00000000000E+00  0.00000000000E+00  0.12208644981E+03  0.12208644981E+03  0.00000000000E+00 0.  1.
         21   -1    0    0  503  502 -0.00000000000E+00 -0.00000000000E+00 -0.87989669324E+03  0.87989669324E+03  0.00000000000E+00 0.  1.
         21    1    1    2  503  505 -0.81062973061E+02 -0.11810884218E+03 -0.33515960221E+03  0.36448986701E+03  0.00000000000E+00 0.  1.
         21    1    1    2  504  506  0.44200930027E+02 -0.26926259706E+01  0.15638267140E+02  0.46963047697E+02  0.00000000000E+00 0.  1.
         21    1    1    2  505  501 -0.25305077529E+02 -0.70575930152E+02  0.30065824241E+02  0.80779097871E+02  0.00000000000E+00 0.  1.
         21    1    1    2  506  502  0.62167120564E+02  0.19137739830E+03 -0.46835473260E+03  0.50975113047E+03  0.00000000000E+00 0.  1.
<scales pt_clust_3="165.56695" pt_clust_4="44.28287" pt_clust_5="72.23921" pt_clust_6="14000.00000"></scales>
<clustering>
<clus scale="   44.283">  1  4  2 -1</clus>
<clus scale="   72.239">  1  5  2 -1</clus>
<clus scale="  165.567">  2  3  1 -1</clus>
<clus scale="   44.283">  1  3  2 -1</clus>
</clustering>
</event>
<event>
 6    0  0.8777103E+002  0.1865062E+03  0.7546771E-02  0.1161651E+00
         21   -1    0    0  503  501  0.00000000000E+00  0.00000000000E+00  0.53337394094E+03  0.53337394094E+03  0.00000000000E+00 0. -1.
         21   -1    0    0  506  502 -0.00000000000E+00 -0.00000000000E+00 -0.14044245873E+03  0.14044245873E+03  0.00000000000E+00 0. -1.
         21    1    1    2  503  504  0.85847086104E+02 -0.36198022807E+02  0.24736551537E+03  0.26432880516E+03  0.00000000000E+00 0. -1.
         21    1    1    2  504  505 -0.16437972479E+03  0.56100198641E+01 -0.19708504022E+02  0.16565201893E+03  0.00000000000E+00 0. -1.
         21    1    1    2  505  502 -0.35447890430E+02 -0.28236219435E+02  0.18597008096E+02  0.48986587287E+02  0.00000000000E+00 0.  1.
         21    1    1    2  506  501  0.11398052911E+03  0.58824222377E+02  0.14667746277E+03  0.19484898829E+03  0.00000000000E+00 0. -1.
<scales pt_clust_3="93.16662" pt_clust_4="39.37047" pt_clust_5="39.37047" pt_clust_6="170.76036"></scales>
<clustering>
<clus scale="   39.370">  4  5 -1 -1</clus>
<clus scale="   93.167">  1  3  2 -1</clus>
<clus scale="  170.760">  1  6  2 -1</clus>
<clus scale="   93.167">  1  3  2 -1</clus>
</clustering>
</event>
<event>
 6    0  0.8777103E+002  0.1461020E+03  0.7546771E-02  0.1205346E+00
         21   -1    0    0  505  501  0.00000000000E+00  0.00000000000E+00  0.14508499759E+04  0.14508499759E+04  0.00000000000E+00 0.  1.
         21   -1    0    0  501  502 -0.00000000000E+00 -0.00000000000E+00 -0.42570646400E+02  0.42570646400E+02  0.00000000000E+00 0.  1.
         21    1    1    2  503  502 -0.77606970466E+01  0.36484943938E+02  0.41715392910E+02  0.55960285546E+02  0.00000000000E+00 0.  1.
         21    1    1    2  504  506 -0.98032620141E+01  0.10873618140E+03  0.82654687186E+03  0.83372620954E+03  0.00000000000E+00 0.  1.
         21    1    1    2  505  504 -0.70824304361E+02  0.18119861195E+02  0.23997224728E+03  0.25086070024E+03  0.00000000000E+00 0. -1.
         21    1    1    2  506  503  0.88388263422E+02 -0.16334098653E+03  0.30004481747E+03  0.35287342699E+03  0.00000000000E+00 0.  1.
<scales pt_clust_3="37.30120" pt_clust_4="146.10198" pt_clust_5="75.82302" pt_clust_6="14000.00000"></scales>
<clustering>
<clus scale="   37.301">  2  3  1 -1</clus>
<clus scale="   75.823">  1  5  2 -1</clus>
<clus scale="  146.102">  1  4  2 -1</clus>
<clus scale="   75.823">  1  3  2 -1</clus>
</clustering>
</event>
<event>
 6    0  0.8777103E+002  0.1486776E+03  0.7546771E-02  0.1202107E+00
         21   -1    0    0  506  501  0.00000000000E+00  0.00000000000E+00  0.13172935103E+04  0.13172935103E+04  0.00000000000E+00 0.  1.
         21   -1    0    0  504  502 -0.00000000000E+00 -0.00000000000E+00 -0.85599150244E+02  0.85599150244E+02  0.00000000000E+00 0.  1.
         21    1    1    2  503  505 -0.12925894744E+03  0.12890224657E+03  0.41588416219E+03  0.45418421486E+03  0.00000000000E+00 0.  1.
         21    1    1    2  504  503  0.10168831243E+03 -0.73498308316E+02  0.80048253249E+02  0.14882955707E+03  0.00000000000E+00 0.  1.
         21    1    1    2  505  501  0.30703392151E+02 -0.18892729022E+02  0.75677712704E+03  0.75763530377E+03  0.00000000000E+00 0.  1.
         21    1    1    2  506  502 -0.31327571407E+01 -0.36511209229E+02 -0.21015182441E+02  0.42243584835E+02  0.00000000000E+00 0.  1.
<scales pt_clust_3="148.67761" pt_clust_4="14000.00000" pt_clust_5="36.05043" pt_clust_6="36.95738"></scales>
<clustering>
<clus scale="   36.050">  1  5  2 -1</clus>
<clus scale="   36.957">  2  6  1 -1</clus>
<clus scale="  148.678">  1  3  2 -1</clus>
<clus scale="   36.050">  1  3  2 -1</clus>
</clustering>
</event>
<event>
 6    0  0.8777103E+002  0.3177670E+03  0.7546771E-02  0.1076682E+00
         21   -1    0    0  503  501  0.00000000000E+00  0.00000000000E+00  0.28515294737E+04  0.28515294737E+04  0.00000000000E+00 0. -1.
         21   -1    0    0  504  502 -0.00000000000E+00 -0.00000000000E+00 -0.56783524929E+02  0.56783524929E+02  0.00000000000E+00 0. -1.
         21    1    1    2  503  505 -0.31287995458E+02 -0.15056174868E+02  0.22529433064E+03  0.22795429911E+03  0.00000000000E+00 0.  1.
         21    1    1    2  504  506 -0.45217342760E+02  0.28346617056E+03  0.94937491317E+03  0.99182176004E+03  0.00000000000E+00 0. -1.
         21    1    1    2  505  502  0.64781476881E+02 -0.34125118288E+03  0.90017896945E+03  0.96486848150E+03  0.00000000000E+00 0. -1.
         21    1    1    2  506  501  0.11723861337E+02  0.72841187179E+02  0.71989773547E+03  0.72366845793E+03  0.00000000000E+00 0. -1.
<scales pt_clust_3="34.72214" pt_clust_4="14000.00000" pt_clust_5="317.76703" pt_clust_6="68.77195"></scales>
<clustering>
<clus scale="   34.722">  1  3  2 -1</clus>
<clus scale="   68.772">  1  6  2 -1</clus>
<clus scale="  317.767">  2  5  1 -1</clus>
<clus scale="   34.722">  1  3  2 -1</clus>
</clustering>
</event>
<event>
 6    0  0.8777103E+002  0.2456956E+03  0.7546771E-02  0.1116056E+00
         21   -1    0    0  505  501  0.00000000000E+00  0.00000000000E+00  0.22985228317E+03  0.22985228317E+03  0.00000000000E+00 0. -1.
         21   -1    0    0  504  502 -0.00000000000E+00 -0.00000000000E+00 -0.90398478331E+03  0.90398478331E+03  0.00000000000E+00 0. -1.
         21    1    1    2  503  506  0.50774502134E+02  0.49434849256E+01 -0.30324338746E+02  0.59346892341E+02  0.00000000000E+00 0.  1.
         21    1    1    2  504  503 -0.21796797900E+03 -0.71220319645E+02 -0.50152227318E+03  0.55145894162E+03  0.00000000000E+00 0. -1.
         21    1    1    2  505  502  0.26136278009E+02 -0.59614972888E+02  0.15647394951E+03  0.16947314506E+03  0.00000000000E+00 0. -1.
         21    1    1    2  506  501  0.14105719886E+03  0.12589180761E+03 -0.29875983772E+03  0.35355808746E+03  0.00000000000E+00 0. -1.
<scales pt_clust_3="47.25778" pt_clust_4="228.23115" pt_clust_5="65.09263" pt_clust_6="47.25778"></scales>
<clustering>
<clus scale="   47.258">  3  6 -1 -1</clus>
<clus scale="   65.093">  1  5  2 -1</clus>
<clus scale="  228.231">  2  4  1 -1</clus>
<clus scale="   65.093">  1  3  2 -1</clus>
</clustering>
</event>
<event>
 6    0  0.8777103E+002  0.1648763E+03  0.7546771E-02  0.1183299E+00
         21   -1    0    0  504  501  0.00000000000E+00  0.00000000000E+00  0.20977778058E+04  0.20977778058E+04  0.00000000000E+00 0. -1.
         21   -1    0    0  505  502 -0.00000000000E+00 -0.00000000000E+00 -0.10353163465E+03  0.10353163465E+03  0.00000000000E+00 0.  1.
         21    1    1    2  503  506  0.96584246694E+01 -0.39473374627E+02  0.53783169288E+03  0.53936477669E+03  0.00000000000E+00 0.  1.
         21    1    1    2  504  503  0.28126452466E+02  0.12137521180E+02  0.12304775049E+04  0.12308587680E+04  0.00000000000E+00 0. -1.
         21    1    1    2  505  501 -0.11914436040E+03 -0.11647863856E+03  0.21160257238E+02  0.16795954376E+03  0.00000000000E+00 0.  1.
         21    1    1    2  506  502  0.81359483261E+02  0.14381449201E+03  0.20477671609E+03  0.26312635193E+03  0.00000000000E+00 0. -1.
<scales pt_clust_3="41.90198" pt_clust_4="30.63359" pt_clust_5="164.87634" pt_clust_6="14000.00000"></scales>
<clustering>
<clus scale="   30.634">  1  4  2 -1</clus>
<clus scale="   41.902">  1  3  2 -1</clus>
<clus scale="  164.876">  2  5  1 -1</clus>
<clus scale="   30.634">  1  3  2 -1</clus>
</clustering>
</event>
<event>
 6    0  0.8777103E+002  0.1127896E+03  0.7546771E-02  0.1255490E+00
         21   -1    0    0  506  501  0.00000000000E+00  0.00000000000E+00  0.32772064198E+04  0.32772064198E+04  0.00000000000E+00 0.  1.
         21   -1    0    0  504  502 -0.00000000000E+00 -0.00000000000E+00 -0.34367249734E+02  0.34367249734E+02  0.00000000000E+00 0.  1.
         21    1    1    2  503  502  0.21448794833E+02 -0.29011844160E+02  0.12503534350E+03  0.13013675510E+03  0.00000000000E+00 0.  1.
         21    1    1    2  504  505 -0.70368650404E+02 -0.20470937451E+02  0.29470022741E+02  0.78989166853E+02  0.00000000000E+00 0.  1.
         21    1    1    2  505  501  0.12139598589E+03  0.22028777546E+02  0.28312248276E+04  0.28339118329E+04  0.00000000000E+00 0.  1.
         21    1    1    2  506  503 -0.72476130320E+02  0.27454004065E+02  0.25710897626E+03  0.26853591469E+03  0.00000000000E+00 0.  1.
<scales pt_clust_3="36.07961" pt_clust_4="68.80674" pt_clust_5="112.78958" pt_clust_6="14000.00000"></scales>
<clustering>
<clus scale="   36.080">  2  3  1 -1</clus>
<clus scale="   68.807">  2  4  1 -1</clus>
<clus scale="  112.790">  1  5  2 -1</clus>
<clus scale="  112.790">  1  3  2 -1</clus>
</clustering>
</event>
<event>
 6    0  0.8777103E+002  0.7173216E+02  0.7546771E-02  0.1354300E+00
         21   -1    0    0  505  501  0.00000000000E+00  0.00000000000E+00  0.63735912866E+02  0.63735912866E+02  0.00000000000E+00 0.  1.
         21   -1    0    0  506  502 -0.00000000000E+00 -0.00000000000E+00 -0.33005206713E+03  0.33005206713E+03  0.00000000000E+00 0. -1.
         21    1    1    2  503  502  0.52892982816E+02 -0.11839074084E+02 -0.10845034157E+03  0.12124070230E+03  0.00000000000E+00 0. -1.
         21    1    1    2  504  503  0.85710068195E+01  0.53213164372E+02 -0.63223996837E+02  0.83080544031E+02  0.00000000000E+00 0. -1.
         21    1    1    2  505  504 -0.13694601362E+02  0.48280631877E+02  0.63835538038E+00  0.50189331720E+02  0.00000000000E+00 0.  1.
         21    1    1    2  506  501 -0.47769388274E+02 -0.89654722165E+02 -0.95280171232E+02  0.13927740195E+03  0.00000000000E+00 0. -1.
<scales pt_clust_3="50.74875" pt_clust_4="71.73216" pt_clust_5="50.18527" pt_clust_6="14000.00000"></scales>
<clustering>
<clus scale="   50.185">  1  5  2 -1</clus>
<clus scale="   50.749">  2  3  1 -1</clus>
<clus scale="   71.732">  2  4  1 -1</clus>
<clus scale="   50.185">  1  3  2 -1</clus>
</clustering>
</event>
<event>
 6    0  0.8777103E+002  0.7213792E+02  0.7546771E-02  0.1352970E+00
         21   -1    0    0  505  501  0.00000000000E+00  0.00000000000E+00  0.43787386144E+03  0.43787386144E+03  0.00000000000E+00 0. -1.
         21   -1    0    0  506  502 -0.00000000000E+00 -0.00000000000E+00 -0.12437994629E+03  0.12437994629E+03  0.00000000000E+00 0. -1.
         21    1    1    2  503  501  0.96118011113E+02 -0.57253695709E+02  0.24824747434E+03  0.27229297870E+03  0.00000000000E+00 0. -1.
         21    1    1    2  504  502 -0.23324283309E+02 -0.19833879033E+02 -0.16725164617E+02  0.34887477422E+02  0.00000000000E+00 0. -1.
         21    1    1    2  505  504 -0.25860466341E+02  0.42518153310E+02  0.15433084385E+03  0.16215599416E+03  0.00000000000E+00 0. -1.
         21    1    1    2  506  503 -0.46933261464E+02  0.34569421432E+02 -0.72359238423E+02  0.92917357447E+02  0.00000000000E+00 0. -1.
<scales pt_clust_3="14000.00000" pt_clust_4="30.61707" pt_clust_5="49.58802" pt_clust_6="72.13792"></scales>
<clustering>
<clus scale="   30.617">  2  4  1 -1</clus>
<clus scale="   49.588">  1  5  2 -1</clus>
<clus scale="   72.138">  2  6  1 -1</clus>
<clus scale="   49.588">  1  3  2 -1</clus>
</clustering>
</event>
<event>
 6    0  0.8777103E+002  0.8635176E+02  0.7546771E-02  0.1311935E+00
         21   -1    0    0  505  501  0.00000000000E+00  0.00000000000E+00  0.32759649897E+03  0.32759649897E+03  0.00000000000E+00 0. -1.
         21   -1    0    0  504  502 -0.00000000000E+00 -0.00000000000E+00 -0.31152566879E+03  0.31152566879E+03  0.00000000000E+00 0.  1.
         21    1    1    2  503  501  0.30307493369E+02 -0.22559375952E+01  0.15121327727E+03  0.15423711820E+03  0.00000000000E+00 0. -1.
         21    1    1    2  504  503  0.29093410823E+02  0.99549009726E+02 -0.21160871214E+03  0.23565797025E+03  0.00000000000E+00 0.  1.
         21    1    1    2  505  506 -0.76636478988E+02 -0.67953511647E+02  0.14217688559E+03  0.17522869757E+03  0.00000000000E+00 0. -1.
         21    1    1    2  506  502  0.17235574796E+02 -0.29339560484E+02 -0.65710620536E+02  0.73998381734E+02  0.00000000000E+00 0. -1.
<scales pt_clust_3="30.39134" pt_clust_4="14000.00000" pt_clust_5="86.35176" pt_clust_6="34.44252"></scales>
<clustering>
<clus scale="   30.391">  1  3  2 -1</clus>
<clus scale="   34.443">  2  6  1 -1</clus>
<clus scale="   86.352">  1  5  2 -1</clus>
<clus scale="   30.391">  1  3  2 -1</clus>
</clustering>
</event>
<event>
 6    0  0.8777103E+002  0.1331335E+03  0.7546771E-02  0.1222879E+00
         21   -1    0    0  506  501  0.00000000000E+00  0.00000000000E+00  0.28139143610E+03  0.28139143610E+03  0.00000000000E+00 0. -1.
         21   -1    0    0  503  502 -0.00000000000E+00 -0.00000000000E+00 -0.42236341608E+03  0.42236341608E+03  0.00000000000E+00 0.  1.
         21    1    1    2  503  505  0.46534083329E+02  0.13043481402E+01 -0.26366091879E+03  0.26773905642E+03  0.00000000000E+00 0.  1.
         21    1    1    2  504  502  0.54505599409E+02 -0.61792886798E+01 -0.72502968176E+02  0.90916029224E+02  0.00000000000E+00 0.  1.
         21    1    1    2  505  501 -0.11375026979E+03  0.49979777158E+02  0.24623618124E+03  0.27580674204E+03  0.00000000000E+00 0. -1.
         21    1    1    2  506  504  0.12710587051E+02 -0.45104836619E+02 -0.51044274248E+02  0.69293024491E+02  0.00000000000E+00 0.  1.
<scales pt_clust_3="46.55236" pt_clust_4="47.21404" pt_clust_5="120.28963" pt_clust_6="47.21404"></scales>
<clustering>
<clus scale="   46.552">  2  3  1 -1</clus>
<clus scale="   47.214">  4  6 -1 -1</clus>
<clus scale="  120.290">  1  5  2 -1</clus>
<clus scale="  120.290">  1  3  2 -1</clus>
</clustering>
</event>
<event>
 6    0  0.1787824E+003  0.2453688E+03  0.7546771E-02  0.1116267E+00
         21   -1    0    0  504  501  0.00000000000E+00  0.00000000000E+00  0.14999487074E+04  0.14999487074E+04  0.00000000000E+00 0. -1.
         21   -1    0    0  505  502 -0.00000000000E+00 -0.00000000000E+00 -0.41101477931E+03  0.41101477931E+03  0.00000000000E+00 0. -1.
         21    1    1    2  503  501 -0.49368164176E+02 -0.19834353638E+03  0.65694522174E+03  0.68800755696E+03  0.00000000000E+00 0. -1.
         21    1    1    2  504  502 -0.18855438056E+02 -0.32612845602E+02  0.78831599487E+03  0.78921558082E+03  0.00000000000E+00 0. -1.
         21    1    1    2  505  506  0.39331517989E+01  0.69812459066E+02 -0.13951549327E+03  0.15605711130E+03  0.00000000000E+00 0. -1.
         21    1    1    2  506  503  0.64290450434E+02  0.16114392291E+03 -0.21681179524E+03  0.27768323764E+03  0.00000000000E+00 0. -1.
<scales pt_clust_3="238.82966" pt_clust_4="37.67128" pt_clust_5="35.72225" pt_clust_6="35.72225"></scales>
<clustering>
<clus scale="   35.722">  5  6 -1 -1</clus>
<clus scale="   37.671">  1  4  2 -1</clus>
<clus scale="  238.830">  1  3  2 -1</clus>
<clus scale="   37.671">  1  3  2 -1</clus>
</clustering>
</event>
<event>
 6    0  0.8777103E+002  0.1910302E+03  0.7546771E-02  0.1157535E+00
         21   -1    0    0  506  501  0.00000000000E+00  0.00000000000E+00  0.78905874608E+03  0.78905874608E+03  0.00000000000E+00 0. -1.
         21   -1    0    0  503  502 -0.00000000000E+00 -0.00000000000E+00 -0.33102924584E+03  0.33102924584E+03  0.00000000000E+00 0. -1.
         21    1    1    2  503  505  0.24614766870E+01 -0.22335724211E+03 -0.22295007589E+03  0.31559666160E+03  0.00000000000E+00 0. -1.
         21    1    1    2  504  502  0.64400914800E+01  0.29313998178E+02 -0.17889390486E+02  0.34940171141E+02  0.00000000000E+00 0. -1.
         21    1    1    2  505  501  0.72532529210E+02  0.10140176749E+03  0.59611764212E+03  0.60901521285E+03  0.00000000000E+00 0. -1.
         21    1    1    2  506  504 -0.81434097377E+02  0.92641476445E+02  0.10275132451E+03  0.16053594632E+03  0.00000000000E+00 0. -1.
<scales pt_clust_3="14000.00000" pt_clust_4="30.01308" pt_clust_5="191.03016" pt_clust_6="125.05092"></scales>
<clustering>
<clus scale="   30.013">  2  4  1 -1</clus>
<clus scale="  125.051">  1  6  2 -1</clus>
<clus scale="  191.030">  1  5  2 -1</clus>
<clus scale="  125.051">  1  3  2 -1</clus>
</clustering>
</event>
<event>
 6    0  0.8777103E+002  0.9988182E+02  0.7546771E-02  0.1280545E+00
         21   -1    0    0  503  501  0.00000000000E+00  0.00000000000E+00  0.15999888904E+04  0.15999888904E+04  0.00000000000E+00 0.  1.
         21   -1    0    0  506  502 -0.00000000000E+00 -0.00000000000E+00 -0.35054428875E+03  0.35054428875E+03  0.00000000000E+00 0.  1.
         21    1    1    2  503  504  0.12135620314E+03  0.75572385586E+02  0.11540109603E+04  0.11628326664E+04  0.00000000000E+00 0.  1.
         21    1    1    2  504  502 -0.55068979063E+02 -0.24112390669E+02 -0.33765053310E+03  0.34296046761E+03  0.00000000000E+00 0.  1.
         21    1    1    2  505  501 -0.49090534488E+01 -0.33027217373E+02  0.20981974058E+03  0.21245992430E+03  0.00000000000E+00 0.  1.
         21    1    1    2  506  505 -0.61378170632E+02 -0.18432777545E+02  0.22326443389E+03  0.23228012089E+03  0.00000000000E+00 0.  1.
<scales pt_clust_3="14000.00000" pt_clust_4="60.15050" pt_clust_5="33.39006" pt_clust_6="99.88182"></scales>
<clustering>
<clus scale="   33.390">  1  5  2 -1</clus>
<clus scale="   60.150">  2  4  1 -1</clus>
<clus scale="   99.882">  2  6  1 -1</clus>
<clus scale="   33.390">  1  3  2 -1</clus>
</clustering>
</event>
<event>
 6    0  0.8777103E+002  0.1185760E+03  0.7546771E-02  0.1245465E+00
         21   -1    0    0  506  501  0.00000000000E+00  0.00000000000E+00  0.25405824055E+03  0.25405824055E+03  0.00000000000E+00 0. -1.
         21   -1    0    0  503  502 -0.00000000000E+00 -0.00000000000E+00 -0.49682075467E+03  0.49682075467E+03  0.00000000000E+00 0. -1.
         21    1    1    2  503  505  0.12698628780E+03  0.81387359535E+02 -0.25999618585E+03  0.30057850262E+03  0.00000000000E+00 0. -1.
         21    1    1    2  504  502 -0.13569060982E+02 -0.41086054347E+02 -0.17923597238E+03  0.18438469859E+03  0.00000000000E+00 0. -1.
         21    1    1    2  505  501 -0.63735082778E+02 -0.51272606555E+01  0.19479378171E+03  0.20501967460E+03  0.00000000000E+00 0. -1.
         21    1    1    2  506  504 -0.49682144041E+02 -0.35174044532E+02  0.16758624085E+01  0.60896119417E+02  0.00000000000E+00 0. -1.
<scales pt_clust_3="14000.00000" pt_clust_4="43.26873" pt_clust_5="118.57597" pt_clust_6="64.19103"></scales>
<clustering>
<clus scale="   43.269">  2  4  1 -1</clus>
<clus scale="   64.191">  1  6  2 -1</clus>
<clus scale="  118.576">  1  5  2 -1</clus>
<clus scale="   64.191">  1  3  2 -1</clus>
</clustering>
</event>
<event>
 6    0  0.8777103E+002  0.1268153E+03  0.7546771E-02  0.1232259E+00
         21   -1    0    0  505  501  0.00000000000E+00  0.00000000000E+00  0.16048326552E+04  0.16048326552E+04  0.00000000000E+00 0. -1.
         21   -1    0    0  504  502 -0.00000000000E+00 -0.00000000000E+00 -0.11729255543E+03  0.11729255543E+03  0.00000000000E+00 0. -1.
         21    1    1    2  503  501 -0.14966798827E+02  0.48406074300E+02  0.71413417388E+03  0.71592930614E+03  0.00000000000E+00 0. -1.
         21    1    1    2  504  503 -0.44164246195E+02  0.11716704833E+03 -0.51616833598E+02  0.13543594562E+03  0.00000000000E+00 0. -1.
         21    1    1    2  505  506  0.10211222019E+03  0.15869700195E+01  0.37865458061E+03  0.39218454253E+03  0.00000000000E+00 0. -1.
         21    1    1    2  506  502 -0.42981175167E+02 -0.16716009264E+03  0.44636817887E+03  0.47857541631E+03  0.00000000000E+00 0. -1.
<scales pt_clust_3="50.66708" pt_clust_4="14000.00000" pt_clust_5="98.25302" pt_clust_6="126.81528"></scales>
<clustering>
<clus scale="   50.667">  1  3  2 -1</clus>
<clus scale="   98.253">  1  5  2 -1</clus>
<clus scale="  126.815">  1  6  2 -1</clus>
<clus scale="   50.667">  1  3  2 -1</clus>
</clustering>
</event>
<event>
 6    0  0.8777103E+002  0.7061681E+02  0.7546771E-02  0.1358008E+00
         21   -1    0    0  506  501  0.00000000000E+00  0.00000000000E+00  0.17224940408E+03  0.17224940408E+03  0.00000000000E+00 0.  1.
         21   -1    0    0  505  502 -0.00000000000E+00 -0.00000000000E+00 -0.23940679482E+03  0.23940679482E+03  0.00000000000E+00 0.  1.
         21    1    1    2  503  501 -0.20350325130E+02 -0.76114985183E+02  0.70220620128E+02  0.10553938693E+03  0.00000000000E+00 0.  1.
         21    1    1    2  504  502  0.34109641168E+02 -0.48127554839E+02 -0.52794040225E+02  0.79164005954E+02  0.00000000000E+00 0.  1.
         21    1    1    2  505  503  0.13281522720E+02  0.59645125346E+02 -0.12989035366E+03  0.14354596406E+03  0.00000000000E+00 0.  1.
         21    1    1    2  506  504 -0.27040838758E+02  0.64597414676E+02  0.45306383021E+02  0.83406841961E+02  0.00000000000E+00 0.  1.
<scales pt_clust_3="14000.00000" pt_clust_4="58.98923" pt_clust_5="45.65981" pt_clust_6="70.61681"></scales>
<clustering>
<clus scale="   58.989">  2  4  1 -1</clus>
<clus scale="   45.660">  2  5  1 -1</clus>
<clus scale="   70.617">  2  6  1 -1</clus>
<clus scale="   70.617">  1  3  2 -1</clus>
</clustering>
</event>
<event>
 6    0  0.8777103E+002  0.9196946E+02  0.7546771E-02  0.1298151E+00
         21   -1    0    0  505  501  0.00000000000E+00  0.00000000000E+00  0.19568242440E+03  0.19568242440E+03  0.00000000000E+00 0.  1.
         21   -1    0    0  503  502 -0.00000000000E+00 -0.00000000000E+00 -0.19472487189E+03  0.19472487189E+03  0.00000000000E+00 0. -1.
         21    1    1    2  503  506 -0.24947829200E+02 -0.12294061459E+03 -0.87188169360E+02  0.15276964939E+03  0.00000000000E+00 0. -1.
         21    1    1    2  504  502 -0.50599606214E+01  0.32947391229E+02 -0.47277171661E+02  0.57846907874E+02  0.00000000000E+00 0. -1.
         21    1    1    2  505  504  0.36835513924E+02  0.44085966922E+02  0.11606201276E+03  0.12950219447E+03  0.00000000000E+00 0.  1.
         21    1    1    2  506  501 -0.68277241026E+01  0.45907256440E+02  0.19360880763E+02  0.50288544563E+02  0.00000000000E+00 0. -1.
<scales pt_clust_3="91.96946" pt_clust_4="33.33367" pt_clust_5="14000.00000" pt_clust_6="50.03807"></scales>
<clustering>
<clus scale="   33.334">  2  4  1 -1</clus>
<clus scale="   50.038">  1  6  2 -1</clus>
<clus scale="   91.969">  2  3  1 -1</clus>
<clus scale="   50.038">  1  3  2 -1</clus>
</clustering>
</event>
<event>
 6    0  0.8777103E+002  0.9836888E+02  0.7546771E-02  0.1283764E+00
         21   -1    0    0  503  501  0.00000000000E+00  0.00000000000E+00  0.65715985760E+02  0.65715985760E+02  0.00000000000E+00 0. -1.
         21   -1    0    0  504  502 -0.00000000000E+00 -0.00000000000E+00 -0.77604333006E+03  0.77604333006E+03  0.00000000000E+00 0. -1.
         21    1    1    2  503  505  0.24797267464E+02  0.87161592080E+02 -0.53171492176E+01  0.90776206593E+02  0.00000000000E+00 0. -1.
         21    1    1    2  504  501 -0.33608072116E+02 -0.80646525273E+01 -0.20300526778E+03  0.20592639432E+03  0.00000000000E+00 0. -1.
         21    1    1    2  505  506  0.87589247929E+02 -0.97859979628E+02 -0.31029504871E+03  0.33694431175E+03  0.00000000000E+00 0. -1.
         21    1    1    2  506  502 -0.78778443277E+02  0.18763040075E+02 -0.19170987859E+03  0.20811240316E+03  0.00000000000E+00 0. -1.
<scales pt_clust_3="89.23118" pt_clust_4="34.56213" pt_clust_5="98.36888" pt_clust_6="14000.00000"></scales>
<clustering>
<clus scale="   34.562">  2  4  1 -1</clus>
<clus scale="   89.231">  1  3  2 -1</clus>
<clus scale="   98.369">  1  5  2 -1</clus>
<clus scale="   89.231">  1  3  2 -1</clus>
</clustering>
</event>
<event>
 6    0  0.8777103E+002  0.1757737E+03  0.7546771E-02  0.1171957E+00
         21   -1    0    0  503  501  0.00000000000E+00  0.00000000000E+00  0.42664118000E+03  0.42664118000E+03  0.00000000000E+00 0.  1.
         21   -1    0    0  505  502 -0.00000000000E+00 -0.00000000000E+00 -0.24139684518E+03  0.24139684518E+03  0.00000000000E+00 0.  1.
         21    1    1    2  503  504 -0.24198443396E+02 -0.38801996647E+02  0.65160100850E+02  0.79605265840E+02  0.00000000000E+00 0.  1.
         21    1    1    2  504  506  0.30654168797E+02 -0.16643562189E+03  0.82005516457E+02  0.18805690370E+03  0.00000000000E+00 0.  1.
         21    1    1    2  505  501  0.14847666678E+03  0.16854953784E+03  0.75226924349E+02  0.23688258152E+03  0.00000000000E+00 0.  1.
         21    1    1    2  506  502 -0.15493239218E+03  0.36688080700E+02 -0.37148206836E+02  0.16349327412E+03  0.00000000000E+00 0.  1.
<scales pt_clust_3="45.72920" pt_clust_4="175.77369" pt_clust_5="14000.00000" pt_clust_6="162.00605"></scales>
<clustering>
<clus scale="   45.729">  1  3  2 -1</clus>
<clus scale="  162.006">  2  6  1 -1</clus>
<clus scale="  175.774">  1  4  2 -1</clus>
<clus scale="   45.729">  1  3  2 -1</clus>
</clustering>
</event>
<event>
 6    0  0.8777103E+002  0.1427360E+03  0.7546771E-02  0.1209694E+00
         21   -1    0    0  505  501  0.00000000000E+00  0.00000000000E+00  0.17351016931E+03  0.17351016931E+03  0.00000000000E+00 0.  1.
         21   -1    0    0  504  502 -0.00000000000E+00 -0.00000000000E+00 -0.79272864370E+03  0.79272864370E+03  0.00000000000E+00 0. -1.
         21    1    1    2  503  501  0.33986829405E+02  0.11549504265E+02  0.53419384902E+02  0.64359352895E+02  0.00000000000E+00 0.  1.
         21    1    1    2  504  506 -0.64723765059E+02 -0.13302612463E+03 -0.68760003625E+03  0.70333414921E+03  0.00000000000E+00 0. -1.
         21    1    1    2  505  502 -0.29157164519E+02  0.10485315588E+03  0.57633208800E+02  0.12314995451E+03  0.00000000000E+00 0.  1.
         21    1    1    2  506  503  0.59894100174E+02  0.16623464486E+02 -0.42671031846E+02  0.75395356395E+02  0.00000000000E+00 0. -1.
<scales pt_clust_3="35.89562" pt_clust_4="142.73604" pt_clust_5="14000.00000" pt_clust_6="67.27467"></scales>
<clustering>
<clus scale="   35.896">  1  3  2 -1</clus>
<clus scale="   67.275">  1  6  2 -1</clus>
<clus scale="  142.736">  2  4  1 -1</clus>
<clus scale="   35.896">  1  3  2 -1</clus>
</clustering>
</event>
<event>
 6    0  0.8777103E+002  0.1842971E+03  0.7546771E-02  0.1163708E+00
         21   -1    0    0  506  501  0.00000000000E+00  0.00000000000E+00  0.13689202077E+04  0.13689202077E+04  0.00000000000E+00 0.  1.
         21   -1    0    0  503  502 -0.00000000000E+00 -0.00000000000E+00 -0.30726822405E+02  0.30726822405E+02  0.00000000000E+00 0.  1.
         21    1    1    2  503  505 -0.26541283061E+02  0.16350266657E+03  0.70905475570E+03  0.72814573285E+03  0.00000000000E+00 0.  1.
         21    1    1    2  504  502  0.45213996081E+02 -0.57423365148E+02  0.15097152257E+03  0.16773237294E+03  0.00000000000E+00 0.  1.
         21    1    1    2  505  501 -0.35109914313E+02  0.10902215563E+02  0.16540205909E+03  0.16943850075E+03  0.00000000000E+00 0.  1.
         21    1    1    2  506  504  0.16437201293E+02 -0.11698151699E+03  0.31276504789E+03  0.33433042351E+03  0.00000000000E+00 0.  1.
<scales pt_clust_3="176.54438" pt_clust_4="41.13964" pt_clust_5="36.76363" pt_clust_6="41.13964"></scales>
<clustering>
<clus scale="   36.764">  1  5  2 -1</clus>
<clus scale="   41.140">  4  6 -1 -1</clus>
<clus scale="  176.544">  1  3  2 -1</clus>
<clus scale="   36.764">  1  3  2 -1</clus>
</clustering>
</event>
<event>
 6    0  0.8777103E+002  0.7904283E+02  0.7546771E-02  0.1331790E+00
         21   -1    0    0  505  501  0.00000000000E+00  0.00000000000E+00  0.32514482005E+03  0.32514482005E+03  0.00000000000E+00 0. -1.
         21   -1    0    0  506  502 -0.00000000000E+00 -0.00000000000E+00 -0.14283347821E+03  0.14283347821E+03  0.00000000000E+00 0. -1.
         21    1    1    2  503  501 -0.17637591014E+02  0.34722999230E+02  0.65917576444E+02  0.76563034008E+02  0.00000000000E+00 0. -1.
         21    1    1    2  504  503 -0.19994789650E+01 -0.70032673164E+02  0.37093531912E+02  0.79274859422E+02  0.00000000000E+00 0. -1.
         21    1    1    2  505  502  0.56144870420E+02 -0.39517655866E+02  0.17339842204E+03  0.18649639236E+03  0.00000000000E+00 0. -1.
         21    1    1    2  506  504 -0.36507800442E+02  0.74827329799E+02 -0.94098188554E+02  0.12564401246E+03  0.00000000000E+00 0. -1.
<scales pt_clust_3="38.94575" pt_clust_4="14000.00000" pt_clust_5="46.12087" pt_clust_6="79.04283"></scales>
<clustering>
<clus scale="   38.946">  1  3  2 -1</clus>
<clus scale="   46.121">  1  5  2 -1</clus>
<clus scale="   79.043">  2  6  1 -1</clus>
<clus scale="   38.946">  1  3  2 -1</clus>
</clustering>
</event>
<event>
 6    0  0.8777103E+002  0.9393311E+02  0.7546771E-02  0.1293597E+00
         21   -1    0    0  506  501  0.00000000000E+00  0.00000000000E+00  0.37277076458E+03  0.37277076458E+03  0.00000000000E+00 0.  1.
         21   -1    0    0  505  502 -0.00000000000E+00 -0.00000000000E+00 -0.15298409931E+03  0.15298409931E+03  0.00000000000E+00 0.  1.
         21    1    1    2  503  501 -0.12724697649E+02 -0.15740303871E+03  0.18937039660E+03  0.24657408954E+03  0.00000000000E+00 0.  1.
         21    1    1    2  504  502  0.26866470528E+02  0.41914912658E+02  0.25544724110E+02  0.55957127085E+02  0.00000000000E+00 0.  1.
         21    1    1    2  505  503 -0.26085933152E+02  0.85372740994E+02 -0.87703455204E+02  0.12514342519E+03  0.00000000000E+00 0.  1.
         21    1    1    2  506  504  0.11944160273E+02  0.30115385056E+02  0.92574999767E+02  0.98080222082E+02  0.00000000000E+00 0.  1.
<scales pt_clust_3="93.93311" pt_clust_4="54.46455" pt_clust_5="14000.00000" pt_clust_6="32.39752"></scales>
<clustering>
<clus scale="   32.398">  1  6  2 -1</clus>
<clus scale="   54.465">  1  4  2 -1</clus>
<clus scale="   93.933">  1  3  2 -1</clus>
<clus scale="   32.398">  1  3  2 -1</clus>
</clustering>
</event>
<event>
 6    0  0.8777103E+002  0.9276929E+02  0.7546771E-02  0.1296281E+00
         21   -1    0    0  505  501  0.00000000000E+00  0.00000000000E+00  0.29255869434E+03  0.29255869434E+03  0.00000000000E+00 0.  1.
         21   -1    0    0  503  502 -0.00000000000E+00 -0.00000000000E+00 -0.27017022356E+03  0.27017022356E+03  0.00000000000E+00 0.  1.
         21    1    1    2  503  506  0.43274607480E+02  0.30916616185E+02 -0.13414161389E+03  0.14430003945E+03  0.00000000000E+00 0.  1.
         21    1    1    2  504  501  0.86116944917E+02  0.58689715609E+01  0.16126870373E+03  0.18291573971E+03  0.00000000000E+00 0.  1.
         21    1    1    2  505  502 -0.12947941799E+03 -0.10519983536E+03  0.12869922880E+01  0.16683399351E+03  0.00000000000E+00 0.  1.
         21    1    1    2  506  504  0.87865588576E-01  0.68414247616E+02 -0.60256113450E+01  0.68679145229E+02  0.00000000000E+00 0.  1.
<scales pt_clust_3="53.18391" pt_clust_4="14000.00000" pt_clust_5="92.76929" pt_clust_6="78.22711"></scales>
<clustering>
<clus scale="   53.184">  2  3  1 -1</clus>
<clus scale="   78.227">  2  6  1 -1</clus>
<clus scale="   92.769">  2  5  1 -1</clus>
<clus scale="   92.769">  1  3  2 -1</clus>
</clustering>
</event>
<event>
 6    0  0.8777103E+002  0.1418354E+03  0.7546771E-02  0.1210880E+00
         21   -1    0    0  503  501  0.00000000000E+00  0.00000000000E+00  0.37248069578E+03  0.37248069578E+03  0.00000000000E+00 0. -1.
         21   -1    0    0  504  502 -0.00000000000E+00 -0.00000000000E+00 -0.13157433908E+03  0.13157433908E+03  0.00000000000E+00 0.  1.
         21    1    1    2  503  502 -0.71489088433E+02  0.78080845764E+02  0.68689450200E+02  0.12619646908E+03  0.00000000000E+00 0. -1.
         21    1    1    2  504  505  0.27157129030E+02 -0.19397598417E+02 -0.36928642458E+02  0.49774502662E+02  0.00000000000E+00 0.  1.
         21    1    1    2  505  506  0.72240146925E+02 -0.83584265233E+02 -0.51043518610E+01  0.11059395386E+03  0.00000000000E+00 0.  1.
         21    1    1    2  506  501 -0.27908187522E+02  0.24901017885E+02  0.21424990082E+03  0.21749010925E+03  0.00000000000E+00 0. -1.
<scales pt_clust_3="129.03908" pt_clust_4="32.35872" pt_clust_5="32.35872" pt_clust_6="37.40224"></scales>
<clustering>
<clus scale="   32.359">  4  5 -1 -1</clus>
<clus scale="   37.402">  1  6  2 -1</clus>
<clus scale="  129.039">  1  3  2 -1</clus>
<clus scale="   37.402">  1  3  2 -1</clus>
</clustering>
</event>
<event>
 6    0  0.8777103E+002  0.7629802E+02  0.7546771E-02  0.1339898E+00
         21   -1    0    0  506  501  0.00000000000E+00  0.00000000000E+00  0.11172905361E+03  0.11172905361E+03  0.00000000000E+00 0.  1.
         21   -1    0    0  503  502 -0.00000000000E+00 -0.00000000000E+00 -0.38373910934E+03  0.38373910934E+03  0.00000000000E+00 0. -1.
         21    1    1    2  503  505  0.23618482302E+02 -0.21018948189E+02 -0.73118179909E+02  0.79661139349E+02  0.00000000000E+00 0.  1.
         21    1    1    2  504  502  0.44963950576E+02  0.50182105156E+02 -0.23100834016E+03  0.24063427385E+03  0.00000000000E+00 0. -1.
         21    1    1    2  505  501 -0.90088194181E+02 -0.77547682407E+02  0.27613885114E+02  0.12203299729E+03  0.00000000000E+00 0.  1.
         21    1    1    2  506  504  0.21505761303E+02  0.48384525440E+02  0.45025792230E+01  0.53139752455E+02  0.00000000000E+00 0.  1.
<scales pt_clust_3="31.61691" pt_clust_4="14000.00000" pt_clust_5="76.29802" pt_clust_6="52.24233"></scales>
<clustering>
<clus scale="   31.617">  2  3  1 -1</clus>
<clus scale="   52.242">  1  6  2 -1</clus>
<clus scale="   76.298">  1  5  2 -1</clus>
<clus scale="   52.242">  1  3  2 -1</clus>
</clustering>
</event>
<event>
 6    0  0.8777103E+002  0.1505527E+03  0.7546771E-02  0.1199795E+00
         21   -1    0    0  503  501  0.00000000000E+00  0.00000000000E+00  0.54527106023E+03  0.54527106023E+03  0.00000000000E+00 0.  1.
         21   -1    0    0  506  502 -0.00000000000E+00 -0.00000000000E+00 -0.15028916975E+03  0.15028916975E+03  0.00000000000E+00 0.  1.
         21    1    1    2  503  504  0.56885454056E+02 -0.25210304479E+02  0.22928609393E+03  0.23757867582E+03  0.00000000000E+00 0.  1.
         21    1    1    2  504  502  0.69285714080E+01 -0.14104706906E+03 -0.39142458055E+02  0.14654150543E+03  0.00000000000E+00 0.  1.
         21    1    1    2  505  501 -0.30631395293E+02 -0.99293665381E+01  0.97040421140E+02  0.10224342538E+03  0.00000000000E+00 0.  1.
         21    1    1    2  506  505 -0.33182630171E+02  0.17618674007E+03  0.10779783347E+03  0.20919662335E+03  0.00000000000E+00 0.  1.
<scales pt_clust_3="50.91917" pt_clust_4="14000.00000" pt_clust_5="32.20054" pt_clust_6="150.55272"></scales>
<clustering>
<clus scale="   32.201">  1  5  2 -1</clus>
<clus scale="   50.919">  1  3  2 -1</clus>
<clus scale="  150.553">  1  6  2 -1</clus>
<clus scale="   32.201">  1  3  2 -1</clus>
</clustering>
</event>
<event>
 6    0  0.8777103E+002  0.7968122E+02  0.7546771E-02  0.1329959E+00
         21   -1    0    0  503  501  0.00000000000E+00  0.00000000000E+00  0.55069692731E+03  0.55069692731E+03  0.00000000000E+00 0. -1.
         21   -1    0    0  506  502 -0.00000000000E+00 -0.00000000000E+00 -0.31854151624E+03  0.31854151624E+03  0.00000000000E+00 0. -1.
         21    1    1    2  503  505 -0.22444899789E+02 -0.23384968430E+02  0.19253965251E+03  0.19524893870E+03  0.00000000000E+00 0. -1.
         21    1    1    2  504  502  0.25845379581E+02  0.25104503135E+02 -0.28327060809E+03  0.28555289725E+03  0.00000000000E+00 0. -1.
         21    1    1    2  505  504 -0.75268077172E+02 -0.64598130373E+02  0.79921562500E+02  0.12737997504E+03  0.00000000000E+00 0. -1.
         21    1    1    2  506  501  0.71867597379E+02  0.62878595669E+02  0.24296480415E+03  0.26105663256E+03  0.00000000000E+00 0. -1.
<scales pt_clust_3="32.41343" pt_clust_4="35.92721" pt_clust_5="14000.00000" pt_clust_6="79.68122"></scales>
<clustering>
<clus scale="   32.413">  1  3  2 -1</clus>
<clus scale="   35.927">  2  4  1 -1</clus>
<clus scale="   79.681">  1  6  2 -1</clus>
<clus scale="   32.413">  1  3  2 -1</clus>
</clustering>
</event>
<event>
 6    0  0.8777103E+002  0.1048082E+03  0.7546771E-02  0.1270498E+00
         21   -1    0    0  506  501  0.00000000000E+00  0.00000000000E+00  0.27755825953E+03  0.27755825953E+03  0.00000000000E+00 0.  1.
         21   -1    0    0  505  502 -0.00000000000E+00 -0.00000000000E+00 -0.70315554867E+03  0.70315554867E+03  0.00000000000E+00 0. -1.
         21    1    1    2  503  504 -0.68461645776E+02 -0.87503311000E+01 -0.24247191570E+03  0.25210354052E+03  0.00000000000E+00 0. -1.
         21    1    1    2  504  502 -0.33454765576E+02 -0.41348853528E+02 -0.42869824625E+03  0.43198511012E+03  0.00000000000E+00 0. -1.
         21    1    1    2  505  501  0.89942197705E+02  0.93825764544E+01  0.65606545969E+02  0.11172220255E+03  0.00000000000E+00 0.  1.
         21    1    1    2  506  503  0.11974213646E+02  0.40716608174E+02  0.17996632685E+03  0.18490295501E+03  0.00000000000E+00 0.  1.
<scales pt_clust_3="14000.00000" pt_clust_4="52.51162" pt_clust_5="104.80823" pt_clust_6="42.44083"></scales>
<clustering>
<clus scale="   42.441">  1  6  2 -1</clus>
<clus scale="   52.512">  2  4  1 -1</clus>
<clus scale="  104.808">  1  5  2 -1</clus>
<clus scale="   42.441">  1  3  2 -1</clus>
</clustering>
</event>
<event>
 6    0  0.8777103E+002  0.8294879E+02  0.7546771E-02  0.1320886E+00
         21   -1    0    0  506  501  0.00000000000E+00  0.00000000000E+00  0.68262319074E+02  0.68262319074E+02  0.00000000000E+00 0. -1.
         21   -1    0    0  505  502 -0.00000000000E+00 -0.00000000000E+00 -0.61546316952E+03  0.61546316952E+03  0.00000000000E+00 0. -1.
         21    1    1    2  503  504  0.51171337835E+02  0.17014916040E+02 -0.95262183748E+02  0.10946641876E+03  0.00000000000E+00 0.  1.
         21    1    1    2  504  502 -0.64501007194E+02  0.51105848965E+02 -0.41220082167E+03  0.42033522944E+03  0.00000000000E+00 0. -1.
         21    1    1    2  505  501  0.49320434537E+02 -0.76300040944E+02 -0.62761616410E+02  0.11042292337E+03  0.00000000000E+00 0.  1.
         21    1    1    2  506  503 -0.35990765178E+02  0.81792759389E+01  0.23023771381E+02  0.43500917020E+02  0.00000000000E+00 0. -1.
<scales pt_clust_3="47.67765" pt_clust_4="82.94879" pt_clust_5="14000.00000" pt_clust_6="36.90848"></scales>
<clustering>
<clus scale="   36.908">  1  6  2 -1</clus>
<clus scale="   47.678">  1  3  2 -1</clus>
<clus scale="   82.949">  2  4  1 -1</clus>
<clus scale="   36.908">  1  3  2 -1</clus>
</clustering>
</event>
<event>
 6    0  0.8777103E+002  0.1128471E+03  0.7546771E-02  0.1255387E+00
         21   -1    0    0  506  501  0.00000000000E+00  0.00000000000E+00  0.41410834774E+02  0.41410834774E+02  0.00000000000E+00 0.  1.
         21   -1    0    0  504  502 -0.00000000000E+00 -0.00000000000E+00 -0.65492720577E+03  0.65492720577E+03  0.00000000000E+00 0.  1.
         21    1    1    2  503  502  0.13710561242E+02 -0.36394225355E+02 -0.16225396336E+03  0.16684983595E+03  0.00000000000E+00 0.  1.
         21    1    1    2  504  501 -0.88365642453E+01  0.13203993486E+03 -0.25121188546E+03  0.28393668425E+03  0.00000000000E+00 0.  1.
         21    1    1    2  505  503 -0.39891054905E+02 -0.99435797450E+02 -0.15274073387E+03  0.18657037777E+03  0.00000000000E+00 0.  1.
         21    1    1    2  506  505  0.35017057909E+02  0.37900879447E+01 -0.47309788298E+02  0.58981142580E+02  0.00000000000E+00 0. -1.
<scales pt_clust_3="39.52087" pt_clust_4="112.84707" pt_clust_5="14000.00000" pt_clust_6="35.22157"></scales>
<clustering>
<clus scale="   35.222">  1  6  2 -1</clus>
<clus scale="   39.521">  2  3  1 -1</clus>
<clus scale="  112.847">  2  4  1 -1</clus>
<clus scale="   35.222">  1  3  2 -1</clus>
</clustering>
</event>
<event>
 6    0  0.8777103E+002  0.8924758E+02  0.7546771E-02  0.1304684E+00
         21   -1    0    0  506  501  0.00000000000E+00  0.00000000000E+00  0.12295543072E+04  0.12295543072E+04  0.00000000000E+00 0.  1.
         21   -1    0    0  505  502 -0.00000000000E+00 -0.00000000000E+00 -0.28805687203E+02  0.28805687203E+02  0.00000000000E+00 0.  1.
         21    1    1    2  503  502  0.14530333880E+02 -0.39777943321E+02  0.32405966113E+02  0.53325059936E+02  0.00000000000E+00 0.  1.
         21    1    1    2  504  503 -0.86724138239E+01 -0.54771771414E+02  0.18755317315E+03  0.19557952465E+03  0.00000000000E+00 0.  1.
         21    1    1    2  505  501  0.65485117346E+02  0.12994938434E+03  0.45596029389E+03  0.47861773127E+03  0.00000000000E+00 0.  1.
         21    1    1    2  506  504 -0.71343037402E+02 -0.35399669605E+02  0.52482918688E+03  0.53083767858E+03  0.00000000000E+00 0.  1.
<scales pt_clust_3="42.34874" pt_clust_4="63.71043" pt_clust_5="89.24758" pt_clust_6="14000.00000"></scales>
<clustering>
<clus scale="   42.349">  2  3  1 -1</clus>
<clus scale="   63.710">  2  4  1 -1</clus>
<clus scale="   89.248">  2  5  1 -1</clus>
<clus scale="   89.248">  1  3  2 -1</clus>
</clustering>
</event>
<event>
 6    0  0.8777103E+002  0.8476749E+02  0.7546771E-02  0.1316042E+00
         21   -1    0    0  506  501  0.00000000000E+00  0.00000000000E+00  0.89842620369E+03  0.89842620369E+03  0.00000000000E+00 0.  1.
         21   -1    0    0  504  502 -0.00000000000E+00 -0.00000000000E+00 -0.53734736637E+02  0.53734736637E+02  0.00000000000E+00 0.  1.
         21    1    1    2  503  501  0.39514992404E+02  0.11601898049E+03  0.34438231176E+03  0.36554208391E+03  0.00000000000E+00 0.  1.
         21    1    1    2  504  503  0.22469702828E+02 -0.48374924655E+02 -0.81906627377E+01  0.53963949416E+02  0.00000000000E+00 0.  1.
         21    1    1    2  505  502 -0.18002160814E+02 -0.51672371656E+02  0.58023591870E+02  0.79754930882E+02  0.00000000000E+00 0.  1.
         21    1    1    2  506  505 -0.43982534418E+02 -0.15971684177E+02  0.45047622617E+03  0.45289997612E+03  0.00000000000E+00 0.  1.
<scales pt_clust_3="14000.00000" pt_clust_4="53.18526" pt_clust_5="84.76749" pt_clust_6="46.79271"></scales>
<clustering>
<clus scale="   46.793">  1  6  2 -1</clus>
<clus scale="   53.185">  2  4  1 -1</clus>
<clus scale="   84.767">  2  5  1 -1</clus>
<clus scale="   46.793">  1  3  2 -1</clus>
</clustering>
</event>
<event>
 6    0  0.8777103E+002  0.1151480E+03  0.7546771E-02  0.1251323E+00
         21   -1    0    0  504  501  0.00000000000E+00  0.00000000000E+00  0.18006022086E+02  0.18006022086E+02  0.00000000000E+00 0. -1.
         21   -1    0    0  503  502 -0.00000000000E+00 -0.00000000000E+00 -0.29580439672E+04  0.29580439672E+04  0.00000000000E+00 0. -1.
         21    1    1    2  503  506  0.36935744997E+02  0.33012663526E+02 -0.22663956563E+03  0.23199046946E+03  0.00000000000E+00 0. -1.
         21    1    1    2  504  505  0.79538003067E+02 -0.10830634898E+02 -0.11472336618E+04  0.11500385521E+04  0.00000000000E+00 0. -1.
         21    1    1    2  505  502  0.64732523174E+01 -0.35217848789E+02 -0.13005334989E+04  0.13010263570E+04  0.00000000000E+00 0. -1.
         21    1    1    2  506  501 -0.12294700038E+03  0.13035820161E+02 -0.26563121883E+03  0.29299461075E+03  0.00000000000E+00 0. -1.
<scales pt_clust_3="47.14928" pt_clust_4="14000.00000" pt_clust_5="35.80782" pt_clust_6="115.14796"></scales>
<clustering>
<clus scale="   35.808">  2  5  1 -1</clus>
<clus scale="   47.149">  2  3  1 -1</clus>
<clus scale="  115.148">  1  6  2 -1</clus>
<clus scale="  115.148">  1  3  2 -1</clus>
</clustering>
</event>
<event>
 6    0  0.8777103E+002  0.1600966E+03  0.7546771E-02  0.1188588E+00
         21   -1    0    0  505  501  0.00000000000E+00  0.00000000000E+00  0.12037712083E+04  0.12037712083E+04  0.00000000000E+00 0. -1.
         21   -1    0    0  506  502 -0.00000000000E+00 -0.00000000000E+00 -0.21144374003E+03  0.21144374003E+03  0.00000000000E+00 0.  1.
         21    1    1    2  503  504 -0.12302894378E+03 -0.54330167814E+02  0.42188392804E+03  0.44280236775E+03  0.00000000000E+00 0. -1.
         21    1    1    2  504  501 -0.14241391325E+02 -0.61867006325E+02  0.54181630535E+03  0.54552291652E+03  0.00000000000E+00 0. -1.
         21    1    1    2  505  502  0.19324184873E+03 -0.44311126046E+02  0.12215768733E+03  0.23286989622E+03  0.00000000000E+00 0.  1.
         21    1    1    2  506  503 -0.55971513619E+02  0.16050830018E+03 -0.93530452477E+02  0.19401976782E+03  0.00000000000E+00 0.  1.
<scales pt_clust_3="162.83410" pt_clust_4="63.48499" pt_clust_5="14000.00000" pt_clust_6="160.09660"></scales>
<clustering>
<clus scale="   63.485">  1  4  2 -1</clus>
<clus scale="  162.834">  1  3  2 -1</clus>
<clus scale="  160.097">  2  6  1 -1</clus>
<clus scale="   63.485">  1  3  2 -1</clus>
</clustering>
</event>
<event>
 6    0  0.8777103E+002  0.7870158E+02  0.7546771E-02  0.1332777E+00
         21   -1    0    0  504  501  0.00000000000E+00  0.00000000000E+00  0.21021890788E+03  0.21021890788E+03  0.00000000000E+00 0. -1.
         21   -1    0    0  503  502 -0.00000000000E+00 -0.00000000000E+00 -0.40829075082E+03  0.40829075082E+03  0.00000000000E+00 0. -1.
         21    1    1    2  503  501 -0.16019255252E+02 -0.12360969237E+03  0.45694804843E+02  0.13275536817E+03  0.00000000000E+00 0. -1.
         21    1    1    2  504  505 -0.25270882044E+01  0.67582874706E+02  0.95428932061E+02  0.11696372174E+03  0.00000000000E+00 0. -1.
         21    1    1    2  505  506  0.53613629044E+02  0.52425772604E+02 -0.90138783277E+02  0.11725136717E+03  0.00000000000E+00 0. -1.
         21    1    1    2  506  502 -0.35067285588E+02  0.36010450636E+01 -0.24905679656E+03  0.25153920163E+03  0.00000000000E+00 0. -1.
<scales pt_clust_3="14000.00000" pt_clust_4="78.70158" pt_clust_5="62.75426" pt_clust_6="35.25170"></scales>
<clustering>
<clus scale="   35.252">  2  6  1 -1</clus>
<clus scale="   62.754">  2  5  1 -1</clus>
<clus scale="   78.702">  1  4  2 -1</clus>
<clus scale="   78.702">  1  3  2 -1</clus>
</clustering>
</event>
<event>
 6    0  0.8777103E+002  0.8064909E+02  0.7546771E-02  0.1327219E+00
         21   -1    0    0  505  501  0.00000000000E+00  0.00000000000E+00  0.16364683510E+03  0.16364683510E+03  0.00000000000E+00 0. -1.
         21   -1    0    0  504  502 -0.00000000000E+00 -0.00000000000E+00 -0.16135487641E+03  0.16135487641E+03  0.00000000000E+00 0. -1.
         21    1    1    2  503  502  0.29565522587E+02  0.85840549874E+02 -0.25534368364E+02  0.94311844941E+02  0.00000000000E+00 0. -1.
         21    1    1    2  504  506 -0.89296819921E+02  0.55922634443E+01 -0.14410369270E+02  0.90624799039E+02  0.00000000000E+00 0. -1.
         21    1    1    2  505  503  0.16539818621E+02 -0.74311577948E+02 -0.16580056741E+01  0.76148047907E+02  0.00000000000E+00 0. -1.
         21    1    1    2  506  501  0.43191478713E+02 -0.17121235370E+02  0.43894701997E+02  0.63917019622E+02  0.00000000000E+00 0. -1.
<scales pt_clust_3="80.64909" pt_clust_4="74.29955" pt_clust_5="14000.00000" pt_clust_6="46.46117"></scales>
<clustering>
<clus scale="   46.461">  1  6  2 -1</clus>
<clus scale="   74.300">  1  4  2 -1</clus>
<clus scale="   80.649">  2  3  1 -1</clus>
<clus scale="   46.461">  1  3  2 -1</clus>
</clustering>
</event>
<event>
 6    0  0.8777103E+002  0.9266195E+02  0.7546771E-02  0.1296530E+00
         21   -1    0    0  503  501  0.00000000000E+00  0.00000000000E+00  0.11111922867E+03  0.11111922867E+03  0.00000000000E+00 0.  1.
         21   -1    0    0  505  502 -0.00000000000E+00 -0.00000000000E+00 -0.91567034797E+03  0.91567034797E+03  0.00000000000E+00 0.  1.
         21    1    1    2  503  504  0.47350126879E+02 -0.28783039449E+02  0.42252672094E+02  0.69683471315E+02  0.00000000000E+00 0.  1.
         21    1    1    2  504  506 -0.12984663915E+03  0.43956080599E+02 -0.57525154572E+02  0.14866549744E+03  0.00000000000E+00 0.  1.
         21    1    1    2  505  501  0.32924203755E+02 -0.21340730046E+02 -0.35206210000E+02  0.52715340978E+02  0.00000000000E+00 0.  1.
         21    1    1    2  506  502  0.49572308520E+02  0.61676888962E+01 -0.75407242682E+03  0.75572526691E+03  0.00000000000E+00 0.  1.
<scales pt_clust_3="92.66195" pt_clust_4="14000.00000" pt_clust_5="39.23557" pt_clust_6="50.19744"></scales>
<clustering>
<clus scale="   39.236">  1  5  2 -1</clus>
<clus scale="   50.197">  2  6  1 -1</clus>
<clus scale="   92.662">  1  3  2 -1</clus>
<clus scale="   39.236">  1  3  2 -1</clus>
</clustering>
</event>
<event>
 6    0  0.8777103E+002  0.1036144E+03  0.7546771E-02  0.1272874E+00
         21   -1    0    0  503  501  0.00000000000E+00  0.00000000000E+00  0.16995720157E+03  0.16995720157E+03  0.00000000000E+00 0.  1.
         21   -1    0    0  504  502 -0.00000000000E+00 -0.00000000000E+00 -0.29963646450E+03  0.29963646450E+03  0.00000000000E+00 0. -1.
         21    1    1    2  503  506 -0.10557211345E+03 -0.22871381256E+02  0.12323695996E+03  0.16387775785E+03  0.00000000000E+00 0.  1.
         21    1    1    2  504  505  0.10219379766E+02 -0.29978608408E+02 -0.11699454165E+02  0.33764328998E+02  0.00000000000E+00 0.  1.
         21    1    1    2  505  501  0.45098100299E+02  0.48649439812E+01 -0.45420035730E+02  0.64191011647E+02  0.00000000000E+00 0. -1.
         21    1    1    2  506  502  0.50254633381E+02  0.47985045683E+02 -0.19579673300E+03  0.20776056758E+03  0.00000000000E+00 0. -1.
<scales pt_clust_3="103.61438" pt_clust_4="31.67259" pt_clust_5="47.13285" pt_clust_6="14000.00000"></scales>
<clustering>
<clus scale="   31.673">  2  4  1 -1</clus>
<clus scale="   47.133">  2  5  1 -1</clus>
<clus scale="  103.614">  1  3  2 -1</clus>
<clus scale="  103.614">  1  3  2 -1</clus>
</clustering>
</event>
<event>
 6    0  0.8777103E+002  0.5671352E+02  0.7546771E-02  0.1412165E+00
         21   -1    0    0  506  501  0.00000000000E+00  0.00000000000E+00  0.24448795198E+03  0.24448795198E+03  0.00000000000E+00 0.  1.
         21   -1    0    0  504  502 -0.00000000000E+00 -0.00000000000E+00 -0.11472000606E+04  0.11472000606E+04  0.00000000000E+00 0. -1.
         21    1    1    2  503  502  0.35750112616E+02  0.16107601623E+01 -0.96615534978E+02  0.10303022226E+03  0.00000000000E+00 0. -1.
         21    1    1    2  504  505 -0.75087814137E+02 -0.23175309900E+02 -0.99720302162E+03  0.10002945272E+04  0.00000000000E+00 0. -1.
         21    1    1    2  505  501 -0.43129173580E+02  0.34572245729E+02  0.19705923586E+03  0.20466486808E+03  0.00000000000E+00 0.  1.
         21    1    1    2  506  503  0.82466875101E+02 -0.13007695992E+02 -0.59527878559E+01  0.83698395010E+02  0.00000000000E+00 0. -1.
<scales pt_clust_3="35.78638" pt_clust_4="46.35794" pt_clust_5="14000.00000" pt_clust_6="56.71352"></scales>
<clustering>
<clus scale="   35.786">  2  3  1 -1</clus>
<clus scale="   46.358">  2  4  1 -1</clus>
<clus scale="   56.714">  2  6  1 -1</clus>
<clus scale="   56.714">  1  3  2 -1</clus>
</clustering>
</event>
<event>
 6    0  0.8777103E+002  0.8011007E+02  0.7546771E-02  0.1328739E+00
         21   -1    0    0  505  501  0.00000000000E+00  0.00000000000E+00  0.15162107574E+04  0.15162107574E+04  0.00000000000E+00 0. -1.
         21   -1    0    0  506  502 -0.00000000000E+00 -0.00000000000E+00 -0.88138607124E+02  0.88138607124E+02  0.00000000000E+00 0. -1.
         21    1    1    2  503  502 -0.69175867552E+00  0.33646981248E+02 -0.66486771071E+02  0.74519048603E+02  0.00000000000E+00 0. -1.
         21    1    1    2  504  503  0.20435787591E+01  0.61662184238E+02  0.75960677245E+02  0.97859213499E+02  0.00000000000E+00 0. -1.
         21    1    1    2  505  504  0.71333292367E+02 -0.22205385768E+02  0.90810725381E+03  0.91117523132E+03  0.00000000000E+00 0. -1.
         21    1    1    2  506  501 -0.72685112450E+02 -0.73103779718E+02  0.51049099026E+03  0.52079587106E+03  0.00000000000E+00 0. -1.
<scales pt_clust_3="33.65409" pt_clust_4="14000.00000" pt_clust_5="73.83445" pt_clust_6="80.11007"></scales>
<clustering>
<clus scale="   33.654">  2  3  1 -1</clus>
<clus scale="   73.834">  1  5  2 -1</clus>
<clus scale="   80.110">  1  6  2 -1</clus>
<clus scale="   73.834">  1  3  2 -1</clus>
</clustering>
</event>
<event>
 6    0  0.8777103E+002  0.7095908E+02  0.7546771E-02  0.1356862E+00
         21   -1    0    0  504  501  0.00000000000E+00  0.00000000000E+00  0.40042821634E+02  0.40042821634E+02  0.00000000000E+00 0.  1.
         21   -1    0    0  506  502 -0.00000000000E+00 -0.00000000000E+00 -0.24393355878E+04  0.24393355878E+04  0.00000000000E+00 0.  1.
         21    1    1    2  503  501 -0.51220717692E+02  0.10042206255E+03 -0.79875536821E+02  0.13816024736E+03  0.00000000000E+00 0.  1.
         21    1    1    2  504  505  0.57799357478E+02 -0.38330736436E+02 -0.13808986396E+03  0.15452773735E+03  0.00000000000E+00 0. -1.
         21    1    1    2  505  502 -0.51222498616E+01 -0.92338340087E+02 -0.84954277506E+03  0.85456160290E+03  0.00000000000E+00 0.  1.
         21    1    1    2  506  503 -0.14563899239E+01  0.30247013972E+02 -0.13317845903E+04  0.13321288218E+04  0.00000000000E+00 0.  1.
<scales pt_clust_3="14000.00000" pt_clust_4="67.06276" pt_clust_5="70.95908" pt_clust_6="30.28206"></scales>
<clustering>
<clus scale="   30.282">  2  6  1 -1</clus>
<clus scale="   67.063">  1  4  2 -1</clus>
<clus scale="   70.959">  2  5  1 -1</clus>
<clus scale="   67.063">  1  3  2 -1</clus>
</clustering>
</event>
<event>
 6    0  0.8777103E+002  0.1223547E+03  0.7546771E-02  0.1239262E+00
         21   -1    0    0  505  501  0.00000000000E+00  0.00000000000E+00  0.69144763356E+03  0.69144763356E+03  0.00000000000E+00 0. -1.
         21   -1    0    0  506  502 -0.00000000000E+00 -0.00000000000E+00 -0.14738148278E+03  0.14738148278E+03  0.00000000000E+00 0.  1.
         21    1    1    2  503  502  0.25051131787E+02  0.66926588741E+02  0.45090837000E+01  0.71603486787E+02  0.00000000000E+00 0.  1.
         21    1    1    2  504  501 -0.10653036423E+03 -0.11643362144E+02  0.23009687352E+02  0.10960717174E+03  0.00000000000E+00 0.  1.
         21    1    1    2  505  503  0.11775882153E+03 -0.46184313726E+02  0.57471093126E+03  0.58846646922E+03  0.00000000000E+00 0. -1.
         21    1    1    2  506  504 -0.36279589086E+02 -0.90989128703E+01 -0.58163551530E+02  0.69151988592E+02  0.00000000000E+00 0.  1.
<scales pt_clust_3="64.14829" pt_clust_4="122.35474" pt_clust_5="14000.00000" pt_clust_6="37.40319"></scales>
<clustering>
<clus scale="   37.403">  2  6  1 -1</clus>
<clus scale="   64.148">  2  3  1 -1</clus>
<clus scale="  122.355">  2  4  1 -1</clus>
<clus scale="  122.355">  1  3  2 -1</clus>
</clustering>
</event>
<event>
 6    0  0.8777103E+002  0.1291054E+03  0.7546771E-02  0.1228789E+00
         21   -1    0    0  506  501  0.00000000000E+00  0.00000000000E+00  0.18912154900E+04  0.18912154900E+04  0.00000000000E+00 0.  1.
         21   -1    0    0  505  502 -0.00000000000E+00 -0.00000000000E+00 -0.88435637945E+03  0.88435637945E+03  0.00000000000E+00 0. -1.
         21    1    1    2  503  504 -0.11928784126E+03  0.72683441197E+02  0.17618298498E+03  0.22483975603E+03  0.00000000000E+00 0. -1.
         21    1    1    2  504  502 -0.28194574360E+02  0.26695320697E+02 -0.66350245476E+03  0.66463755660E+03  0.00000000000E+00 0. -1.
         21    1    1    2  505  501  0.59239751848E+02 -0.59843263782E+01 -0.18892925833E+03  0.19808943691E+03  0.00000000000E+00 0. -1.
         21    1    1    2  506  503  0.88242663769E+02 -0.93394435515E+02  0.16831078387E+04  0.16880051199E+04  0.00000000000E+00 0.  1.
<scales pt_clust_3="129.10539" pt_clust_4="38.82749" pt_clust_5="38.64463" pt_clust_6="14000.00000"></scales>
<clustering>
<clus scale="   38.827">  2  4  1 -1</clus>
<clus scale="   38.645">  2  5  1 -1</clus>
<clus scale="  129.105">  2  3  1 -1</clus>
<clus scale="  129.105">  1  3  2 -1</clus>
</clustering>
</event>
<event>
 6    0  0.8777103E+002  0.1865782E+03  0.7546771E-02  0.1161584E+00
         21   -1    0    0  506  501  0.00000000000E+00  0.00000000000E+00  0.51719800601E+03  0.51719800601E+03  0.00000000000E+00 0. -1.
         21   -1    0    0  504  502 -0.00000000000E+00 -0.00000000000E+00 -0.13795706724E+03  0.13795706724E+03  0.00000000000E+00 0. -1.
         21    1    1    2  503  505 -0.96094977983E+02 -0.21361843852E+02  0.18827082364E+02  0.10022490807E+03  0.00000000000E+00 0. -1.
         21    1    1    2  504  501  0.14639814196E+03  0.82738791920E+02  0.38020288190E+03  0.41573110909E+03  0.00000000000E+00 0. -1.
         21    1    1    2  505  502 -0.31882913253E+02  0.93254975478E+01 -0.50088619288E+02  0.60102868851E+02  0.00000000000E+00 0. -1.
         21    1    1    2  506  503 -0.18420250722E+02 -0.70702445615E+02  0.30299593790E+02  0.79096187244E+02  0.00000000000E+00 0. -1.
<scales pt_clust_3="72.78318" pt_clust_4="163.27386" pt_clust_5="33.21875" pt_clust_6="72.78318"></scales>
<clustering>
<clus scale="   33.219">  2  5  1 -1</clus>
<clus scale="   72.783">  3  6 -1 -1</clus>
<clus scale="  163.274">  1  4  2 -1</clus>
<clus scale="  163.274">  1  3  2 -1</clus>
</clustering>
</event>
<event>
 6    0  0.8777103E+002  0.6828061E+02  0.7546771E-02  0.1366039E+00
         21   -1    0    0  506  501  0.00000000000E+00  0.00000000000E+00  0.22529780719E+04  0.22529780719E+04  0.00000000000E+00 0.  1.
         21   -1    0    0  504  502 -0.00000000000E+00 -0.00000000000E+00 -0.11848080386E+03  0.11848080386E+03  0.00000000000E+00 0.  1.
         21    1    1    2  503  501 -0.49134647036E+02  0.24708113676E+02  0.93970064028E+03  0.94130866232E+03  0.00000000000E+00 0.  1.
         21    1    1    2  504  503 -0.53579646551E+01  0.55740828248E+02  0.55079910955E+02  0.78546446832E+02  0.00000000000E+00 0. -1.
         21    1    1    2  505  502 -0.32076849789E+02 -0.15375211574E+02 -0.10052993544E+03  0.10663765444E+03  0.00000000000E+00 0.  1.
         21    1    1    2  506  505  0.86569461480E+02 -0.65073730351E+02  0.12402466523E+04  0.12449661122E+04  0.00000000000E+00 0.  1.
<scales pt_clust_3="14000.00000" pt_clust_4="53.30474" pt_clust_5="35.57136" pt_clust_6="68.28061"></scales>
<clustering>
<clus scale="   35.571">  2  5  1 -1</clus>
<clus scale="   53.305">  2  4  1 -1</clus>
<clus scale="   68.281">  2  6  1 -1</clus>
<clus scale="   68.281">  1  3  2 -1</clus>
</clustering>
</event>
<event>
 6    0  0.8777103E+002  0.8185604E+02  0.7546771E-02  0.1323865E+00
         21   -1    0    0  503  501  0.00000000000E+00  0.00000000000E+00  0.22443300933E+02  0.22443300933E+02  0.00000000000E+00 0.  1.
         21   -1    0    0  505  502 -0.00000000000E+00 -0.00000000000E+00 -0.12312648842E+04  0.12312648842E+04  0.00000000000E+00 0.  1.
         21    1    1    2  503  502  0.42216650973E+02  0.11348622654E+01 -0.46825271381E+03  0.47015331279E+03  0.00000000000E+00 0.  1.
         21    1    1    2  504  501  0.65134238484E+02  0.47541400695E+02 -0.12104844372E+03  0.14544888976E+03  0.00000000000E+00 0.  1.
         21    1    1    2  505  506 -0.15066671932E+02 -0.39916882857E+02 -0.36014040046E+03  0.36265888957E+03  0.00000000000E+00 0.  1.
         21    1    1    2  506  504 -0.92284217525E+02 -0.87593801036E+01 -0.25938002523E+03  0.27544709298E+03  0.00000000000E+00 0.  1.
<scales pt_clust_3="42.23190" pt_clust_4="81.85604" pt_clust_5="39.68910" pt_clust_6="14000.00000"></scales>
<clustering>
<clus scale="   42.232">  2  3  1 -1</clus>
<clus scale="   39.689">  2  5  1 -1</clus>
<clus scale="   81.856">  1  4  2 -1</clus>
<clus scale="   81.856">  1  3  2 -1</clus>
</clustering>
</event>
<event>
 6    0  0.8777103E+002  0.1005204E+03  0.7546771E-02  0.1279205E+00
         21   -1    0    0  502  501  0.00000000000E+00  0.00000000000E+00  0.11874306563E+04  0.11874306563E+04  0.00000000000E+00 0. -1.
         21   -1    0    0  503  502 -0.00000000000E+00 -0.00000000000E+00 -0.36193041885E+02  0.36193041885E+02  0.00000000000E+00 0. -1.
         21    1    1    2  503  506 -0.29755649984E+02 -0.15115545208E+02 -0.57198328880E+01  0.33861407253E+02  0.00000000000E+00 0. -1.
         21    1    1    2  504  501  0.66905211794E+01  0.40161300453E+02  0.30497983770E+03  0.30768554489E+03  0.00000000000E+00 0. -1.
         21    1    1    2  505  504  0.10490851797E+03 -0.27223265761E+02  0.70966807790E+03  0.71789670854E+03  0.00000000000E+00 0. -1.
         21    1    1    2  506  505 -0.81843389170E+02  0.21775105154E+01  0.14230953172E+03  0.16418003752E+03  0.00000000000E+00 0. -1.
<scales pt_clust_3="33.37482" pt_clust_4="39.14449" pt_clust_5="100.52039" pt_clust_6="14000.00000"></scales>
<clustering>
<clus scale="   33.375">  2  3  1 -1</clus>
<clus scale="   39.144">  1  4  2 -1</clus>
<clus scale="  100.520">  1  5  2 -1</clus>
<clus scale="   39.144">  1  3  2 -1</clus>
</clustering>
</event>
<event>
 6    0  0.8777103E+002  0.1555246E+03  0.7546771E-02  0.1193844E+00
         21   -1    0    0  503  501  0.00000000000E+00  0.00000000000E+00  0.11955970830E+04  0.11955970830E+04  0.00000000000E+00 0.  1.
         21   -1    0    0  504  502 -0.00000000000E+00 -0.00000000000E+00 -0.26255072711E+03  0.26255072711E+03  0.00000000000E+00 0.  1.
         21    1    1    2  503  502 -0.71399573901E+01  0.32842366129E+02  0.10641029003E+04  0.10646335437E+04  0.00000000000E+00 0.  1.
         21    1    1    2  504  505 -0.20949524563E+02  0.28807366975E+02 -0.54025779938E+02  0.64711141772E+02  0.00000000000E+00 0.  1.
         21    1    1    2  505  506  0.34588466812E+02  0.12608161476E+03 -0.44874553276E+02  0.13822684670E+03  0.00000000000E+00 0.  1.
         21    1    1    2  506  501 -0.64989848593E+01 -0.18773134787E+03 -0.32156211204E+02  0.19057627789E+03  0.00000000000E+00 0.  1.
<scales pt_clust_3="33.60952" pt_clust_4="36.87595" pt_clust_5="14000.00000" pt_clust_6="155.52460"></scales>
<clustering>
<clus scale="   33.610">  1  3  2 -1</clus>
<clus scale="   36.876">  2  4  1 -1</clus>
<clus scale="  155.525">  1  6  2 -1</clus>
<clus scale="   33.610">  1  3  2 -1</clus>
</clustering>
</event>
<event>
 6    0  0.8777103E+002  0.9434920E+02  0.7546771E-02  0.1292649E+00
         21   -1    0    0  502  501  0.00000000000E+00  0.00000000000E+00  0.40421871547E+03  0.40421871547E+03  0.00000000000E+00 0. -1.
         21   -1    0    0  504  502 -0.00000000000E+00 -0.00000000000E+00 -0.10005887758E+03  0.10005887758E+03  0.00000000000E+00 0. -1.
         21    1    1    2  503  505  0.10544881237E+02 -0.11132573221E+03  0.29374655157E+03  0.31431138976E+03  0.00000000000E+00 0. -1.
         21    1    1    2  504  506  0.42863464930E+02  0.22471410555E+02  0.77311058218E+01  0.49010314377E+02  0.00000000000E+00 0. -1.
         21    1    1    2  505  501 -0.44920992634E+02  0.15364738925E+02  0.36235530992E+02  0.59724237021E+02  0.00000000000E+00 0.  1.
         21    1    1    2  506  503 -0.84873535323E+01  0.73489582732E+02 -0.33553350490E+02  0.81231651893E+02  0.00000000000E+00 0. -1.
<scales pt_clust_3="94.34920" pt_clust_4="45.87857" pt_clust_5="47.47600" pt_clust_6="14000.00000"></scales>
<clustering>
<clus scale="   47.476">  1  5  2 -1</clus>
<clus scale="   45.879">  2  4  1 -1</clus>
<clus scale="   94.349">  1  3  2 -1</clus>
<clus scale="   47.476">  1  3  2 -1</clus>
</clustering>
</event>
<event>
 6    0  0.8777103E+002  0.8337803E+02  0.7546771E-02  0.1319729E+00
         21   -1    0    0  505  501  0.00000000000E+00  0.00000000000E+00  0.19164183181E+03  0.19164183181E+03  0.00000000000E+00 0. -1.
         21   -1    0    0  503  502 -0.00000000000E+00 -0.00000000000E+00 -0.19164248744E+03  0.19164248744E+03  0.00000000000E+00 0. -1.
         21    1    1    2  503  504 -0.44120260289E+02  0.62613527818E+02 -0.79413392436E+02  0.11033375790E+03  0.00000000000E+00 0. -1.
         21    1    1    2  504  501  0.26074664725E+02 -0.35452507582E+02  0.32864260331E+02  0.54925659227E+02  0.00000000000E+00 0. -1.
         21    1    1    2  505  506 -0.59358624075E+01  0.76421100959E+02  0.75749813307E+02  0.10776573366E+03  0.00000000000E+00 0. -1.
         21    1    1    2  506  502  0.23981457972E+02 -0.10358212119E+03 -0.29201336830E+02  0.11025916846E+03  0.00000000000E+00 0. -1.
<scales pt_clust_3="83.37803" pt_clust_4="44.00873" pt_clust_5="55.36202" pt_clust_6="14000.00000"></scales>
<clustering>
<clus scale="   44.009">  1  4  2 -1</clus>
<clus scale="   55.362">  1  5  2 -1</clus>
<clus scale="   83.378">  2  3  1 -1</clus>
<clus scale="   44.009">  1  3  2 -1</clus>
</clustering>
</event>
<event>
 6    0  0.8777103E+002  0.7688862E+02  0.7546771E-02  0.1338120E+00
         21   -1    0    0  503  501  0.00000000000E+00  0.00000000000E+00  0.27020220505E+03  0.27020220505E+03  0.00000000000E+00 0. -1.
         21   -1    0    0  505  502 -0.00000000000E+00 -0.00000000000E+00 -0.12664526465E+03  0.12664526465E+03  0.00000000000E+00 0. -1.
         21    1    1    2  503  504 -0.40855757923E+02 -0.13522261304E+02  0.16030299930E+03  0.16597920379E+03  0.00000000000E+00 0. -1.
         21    1    1    2  504  506  0.23665988103E+02  0.62436216308E+02 -0.19792065994E+02  0.69642558655E+02  0.00000000000E+00 0. -1.
         21    1    1    2  505  501 -0.50311451429E+02 -0.64559885135E+02  0.29577684094E+02  0.87029077382E+02  0.00000000000E+00 0. -1.
         21    1    1    2  506  502  0.67501221249E+02  0.15645930132E+02 -0.26531676996E+02  0.74196629870E+02  0.00000000000E+00 0. -1.
<scales pt_clust_3="43.03539" pt_clust_4="76.88862" pt_clust_5="14000.00000" pt_clust_6="59.75767"></scales>
<clustering>
<clus scale="   43.035">  1  3  2 -1</clus>
<clus scale="   59.758">  2  6  1 -1</clus>
<clus scale="   76.889">  1  4  2 -1</clus>
<clus scale="   43.035">  1  3  2 -1</clus>
</clustering>
</event>
<event>
 6    0  0.8777103E+002  0.1489632E+03  0.7546771E-02  0.1201753E+00
         21   -1    0    0  506  501  0.00000000000E+00  0.00000000000E+00  0.13374074085E+04  0.13374074085E+04  0.00000000000E+00 0. -1.
         21   -1    0    0  503  502 -0.00000000000E+00 -0.00000000000E+00 -0.39046434838E+02  0.39046434838E+02  0.00000000000E+00 0.  1.
         21    1    1    2  503  505 -0.13582292457E+03 -0.18865671187E+02  0.36051825348E+03  0.38571646514E+03  0.00000000000E+00 0. -1.
         21    1    1    2  504  502  0.20590382243E+02 -0.33934224939E+02  0.69303145026E+02  0.79865019712E+02  0.00000000000E+00 0.  1.
         21    1    1    2  505  501 -0.34570667672E+02 -0.37588131632E+00  0.58334614366E+03  0.58436974226E+03  0.00000000000E+00 0. -1.
         21    1    1    2  506  504  0.14980321000E+03  0.53175777442E+02  0.28519343151E+03  0.32650261623E+03  0.00000000000E+00 0.  1.
<scales pt_clust_3="148.96323" pt_clust_4="38.06339" pt_clust_5="34.57271" pt_clust_6="14000.00000"></scales>
<clustering>
<clus scale="   34.573">  1  5  2 -1</clus>
<clus scale="   38.063">  2  4  1 -1</clus>
<clus scale="  148.963">  1  3  2 -1</clus>
<clus scale="   34.573">  1  3  2 -1</clus>
</clustering>
</event>
<event>
 6    0  0.8777103E+002  0.9085150E+02  0.7546771E-02  0.1300803E+00
         21   -1    0    0  505  501  0.00000000000E+00  0.00000000000E+00  0.44881317798E+03  0.44881317798E+03  0.00000000000E+00 0. -1.
         21   -1    0    0  506  502 -0.00000000000E+00 -0.00000000000E+00 -0.42670347338E+03  0.42670347338E+03  0.00000000000E+00 0. -1.
         21    1    1    2  503  502 -0.54848126702E+02 -0.83896017785E+02 -0.31416206501E+03  0.32976455524E+03  0.00000000000E+00 0. -1.
         21    1    1    2  504  501  0.44871855046E+02  0.50439024203E+02  0.32975880093E+03  0.33659834421E+03  0.00000000000E+00 0. -1.
         21    1    1    2  505  503 -0.55917522525E+02 -0.65801943982E+01  0.83165079079E+02  0.10043156208E+03  0.00000000000E+00 0. -1.
         21    1    1    2  506  504  0.65893794181E+02  0.40037187980E+02 -0.76652110392E+02  0.10872218983E+03  0.00000000000E+00 0. -1.
<scales pt_clust_3="90.85150" pt_clust_4="44.89763" pt_clust_5="56.30336" pt_clust_6="14000.00000"></scales>
<clustering>
<clus scale="   56.303">  1  5  2 -1</clus>
<clus scale="   44.898">  1  4  2 -1</clus>
<clus scale="   90.851">  2  3  1 -1</clus>
<clus scale="   56.303">  1  3  2 -1</clus>
</clustering>
</event>
<event>
 6    0  0.8777103E+002  0.1065141E+03  0.7546771E-02  0.1267165E+00
         21   -1    0    0  503  501  0.00000000000E+00  0.00000000000E+00  0.36510258864E+03  0.36510258864E+03  0.00000000000E+00 0.  1.
         21   -1    0    0  505  502 -0.00000000000E+00 -0.00000000000E+00 -0.74167497784E+03  0.74167497784E+03  0.00000000000E+00 0. -1.
         21    1    1    2  503  506 -0.52789527617E+02  0.93482912163E+02  0.33730087008E+03  0.35397410364E+03  0.00000000000E+00 0.  1.
         21    1    1    2  504  502 -0.35235030385E+02 -0.16906907778E+02 -0.28728516127E+03  0.28993122423E+03  0.00000000000E+00 0. -1.
         21    1    1    2  505  501  0.60103646831E+02 -0.40592197330E+02 -0.40679806650E+03  0.41321282865E+03  0.00000000000E+00 0. -1.
         21    1    1    2  506  504  0.27920911171E+02 -0.35983807056E+02 -0.19790031511E+02  0.49659409965E+02  0.00000000000E+00 0.  1.
<scales pt_clust_3="106.51408" pt_clust_4="39.08134" pt_clust_5="14000.00000" pt_clust_6="45.00930"></scales>
<clustering>
<clus scale="   39.081">  2  4  1 -1</clus>
<clus scale="   45.009">  2  6  1 -1</clus>
<clus scale="  106.514">  1  3  2 -1</clus>
<clus scale="  106.514">  1  3  2 -1</clus>
</clustering>
</event>
<event>
 6    0  0.8777103E+002  0.6695703E+02  0.7546771E-02  0.1370758E+00
         21   -1    0    0  503  501  0.00000000000E+00  0.00000000000E+00  0.25153326476E+03  0.25153326476E+03  0.00000000000E+00 0.  1.
         21   -1    0    0  506  502 -0.00000000000E+00 -0.00000000000E+00 -0.49611780526E+03  0.49611780526E+03  0.00000000000E+00 0. -1.
         21    1    1    2  503  504  0.25541959006E+02  0.57365358814E+02 -0.11319798378E+03  0.12944867552E+03  0.00000000000E+00 0. -1.
         21    1    1    2  504  502 -0.29288640341E+02 -0.78503440782E+01 -0.32410274669E+03  0.32551811435E+03  0.00000000000E+00 0. -1.
         21    1    1    2  505  501 -0.58449915753E+02  0.26508002177E+02  0.18306279284E+03  0.19398724946E+03  0.00000000000E+00 0.  1.
         21    1    1    2  506  505  0.62196597088E+02 -0.76023016913E+02  0.96533971359E+01  0.98697030686E+02  0.00000000000E+00 0. -1.
<scales pt_clust_3="52.02740" pt_clust_4="30.32247" pt_clust_5="14000.00000" pt_clust_6="66.95703"></scales>
<clustering>
<clus scale="   30.322">  2  4  1 -1</clus>
<clus scale="   52.027">  2  3  1 -1</clus>
<clus scale="   66.957">  2  6  1 -1</clus>
<clus scale="   66.957">  1  3  2 -1</clus>
</clustering>
</event>
<event>
 6    0  0.8777103E+002  0.1114812E+03  0.7546771E-02  0.1257851E+00
         21   -1    0    0  505  501  0.00000000000E+00  0.00000000000E+00  0.11718248430E+03  0.11718248430E+03  0.00000000000E+00 0. -1.
         21   -1    0    0  506  502 -0.00000000000E+00 -0.00000000000E+00 -0.45563214304E+03  0.45563214304E+03  0.00000000000E+00 0. -1.
         21    1    1    2  503  501 -0.49877530089E+02 -0.12198872479E+00  0.20427085120E+02  0.53898503649E+02  0.00000000000E+00 0. -1.
         21    1    1    2  504  503 -0.45037064577E+02  0.50824200417E+01 -0.12557099281E+02  0.47030297910E+02  0.00000000000E+00 0. -1.
         21    1    1    2  505  502  0.12076690668E+03  0.56492532026E+02 -0.15280106139E+02  0.13419960346E+03  0.00000000000E+00 0. -1.
         21    1    1    2  506  504 -0.25852312016E+02 -0.61452963342E+02 -0.33103953843E+03  0.33768622232E+03  0.00000000000E+00 0. -1.
<scales pt_clust_3="31.49039" pt_clust_4="31.49039" pt_clust_5="106.47423" pt_clust_6="66.66940"></scales>
<clustering>
<clus scale="   31.490">  3  4 -1 -1</clus>
<clus scale="   66.669">  2  6  1 -1</clus>
<clus scale="  106.474">  2  5  1 -1</clus>
<clus scale="  111.481">  1  3  2 -1</clus>
</clustering>
</event>
<event>
 6    0  0.8777103E+002  0.6932611E+02  0.7546771E-02  0.1362400E+00
         21   -1    0    0  505  501  0.00000000000E+00  0.00000000000E+00  0.33272497578E+03  0.33272497578E+03  0.00000000000E+00 0. -1.
         21   -1    0    0  503  502 -0.00000000000E+00 -0.00000000000E+00 -0.20640715466E+04  0.20640715466E+04  0.00000000000E+00 0.  1.
         21    1    1    2  503  501  0.59480984383E+02 -0.40324288310E+02 -0.94552216152E+03  0.94824901459E+03  0.00000000000E+00 0.  1.
         21    1    1    2  504  502 -0.62211000701E+02  0.34066605134E+01 -0.76730173036E+03  0.76982709705E+03  0.00000000000E+00 0.  1.
         21    1    1    2  505  506  0.57047392558E+02 -0.39042759334E+02  0.32008869190E+03  0.32746833853E+03  0.00000000000E+00 0. -1.
         21    1    1    2  506  504 -0.54317376240E+02  0.75960387130E+02 -0.33861137083E+03  0.35125207220E+03  0.00000000000E+00 0.  1.
<scales pt_clust_3="40.34534" pt_clust_4="62.30420" pt_clust_5="14000.00000" pt_clust_6="69.32611"></scales>
<clustering>
<clus scale="   62.304">  2  4  1 -1</clus>
<clus scale="   40.345">  2  3  1 -1</clus>
<clus scale="   69.326">  2  6  1 -1</clus>
<clus scale="   69.326">  1  3  2 -1</clus>
</clustering>
</event>
<event>
 6    0  0.9597362E+002  0.1184205E+03  0.7546771E-02  0.1245726E+00
         21   -1    0    0  503  501  0.00000000000E+00  0.00000000000E+00  0.53073618040E+03  0.53073618040E+03  0.00000000000E+00 0.  1.
         21   -1    0    0  505  502 -0.00000000000E+00 -0.00000000000E+00 -0.63576255897E+03  0.63576255897E+03  0.00000000000E+00 0.  1.
         21    1    1    2  503  504 -0.30745642622E+02  0.24065392677E+02  0.15757563247E+02  0.42103900822E+02  0.00000000000E+00 0.  1.
         21    1    1    2  504  506 -0.36647684025E+02 -0.56047539070E+02  0.10508292687E+02  0.67784980604E+02  0.00000000000E+00 0.  1.
         21    1    1    2  505  501 -0.49523697892E+02  0.55184258243E+02  0.45363816969E+03  0.45965801201E+03  0.00000000000E+00 0.  1.
         21    1    1    2  506  502  0.11691702454E+03 -0.23202111850E+02 -0.58493040419E+03  0.59695184593E+03  0.00000000000E+00 0.  1.
<scales pt_clust_3="39.04405" pt_clust_4="66.77583" pt_clust_5="14000.00000" pt_clust_6="118.42050"></scales>
<clustering>
<clus scale="   39.044">  1  3  2 -1</clus>
<clus scale="   66.776">  1  4  2 -1</clus>
<clus scale="  118.420">  2  6  1 -1</clus>
<clus scale="   39.044">  1  3  2 -1</clus>
</clustering>
</event>
<event>
 6    0  0.8777103E+002  0.1018632E+03  0.7546771E-02  0.1276426E+00
         21   -1    0    0  503  501  0.00000000000E+00  0.00000000000E+00  0.92009308580E+02  0.92009308580E+02  0.00000000000E+00 0.  1.
         21   -1    0    0  506  502 -0.00000000000E+00 -0.00000000000E+00 -0.71872579418E+03  0.71872579418E+03  0.00000000000E+00 0.  1.
         21    1    1    2  503  505 -0.62378069585E+02  0.37325208684E+02 -0.10048977159E+03  0.12402575927E+03  0.00000000000E+00 0. -1.
         21    1    1    2  504  501  0.98285455377E+02 -0.55690748031E+02  0.32000254328E+02  0.11741169632E+03  0.00000000000E+00 0.  1.
         21    1    1    2  505  502 -0.32526759961E+02 -0.40889765544E+02 -0.27478199562E+03  0.27970539529E+03  0.00000000000E+00 0.  1.
         21    1    1    2  506  504 -0.33806258310E+01  0.59255304891E+02 -0.28344497272E+03  0.28959225188E+03  0.00000000000E+00 0.  1.
<scales pt_clust_3="14000.00000" pt_clust_4="101.86322" pt_clust_5="52.24905" pt_clust_6="40.86869"></scales>
<clustering>
<clus scale="   52.249">  2  5  1 -1</clus>
<clus scale="   40.869">  2  6  1 -1</clus>
<clus scale="  101.863">  1  4  2 -1</clus>
<clus scale="  101.863">  1  3  2 -1</clus>
</clustering>
</event>
<event>
 6    0  0.8777103E+002  0.3979252E+03  0.7546771E-02  0.1044500E+00
         21   -1    0    0  505  501  0.00000000000E+00  0.00000000000E+00  0.17333165940E+04  0.17333165940E+04  0.00000000000E+00 0.  1.
         21   -1    0    0  503  502 -0.00000000000E+00 -0.00000000000E+00 -0.31466902951E+03  0.31466902951E+03  0.00000000000E+00 0.  1.
         21    1    1    2  503  504 -0.42188056352E+03 -0.16217554789E+03  0.34192761434E+03  0.56674386777E+03  0.00000000000E+00 0.  1.
         21    1    1    2  504  501  0.48705776316E+02 -0.28362373562E+02  0.91392733924E+03  0.91566361635E+03  0.00000000000E+00 0.  1.
         21    1    1    2  505  506  0.34768060064E+03  0.60673353026E+02  0.22581677552E+03  0.41899435788E+03  0.00000000000E+00 0.  1.
         21    1    1    2  506  502  0.25494186560E+02  0.12986456843E+03 -0.63024164603E+02  0.14658378152E+03  0.00000000000E+00 0.  1.
<scales pt_clust_3="397.92517" pt_clust_4="56.36202" pt_clust_5="14000.00000" pt_clust_6="131.42978"></scales>
<clustering>
<clus scale="   56.362">  1  4  2 -1</clus>
<clus scale="  131.430">  2  6  1 -1</clus>
<clus scale="  397.925">  1  3  2 -1</clus>
<clus scale="   56.362">  1  3  2 -1</clus>
</clustering>
</event>
<event>
 6    0  0.8777103E+002  0.1156621E+03  0.7546771E-02  0.1250430E+00
         21   -1    0    0  505  501  0.00000000000E+00  0.00000000000E+00  0.53766416099E+03  0.53766416099E+03  0.00000000000E+00 0. -1.
         21   -1    0    0  506  502 -0.00000000000E+00 -0.00000000000E+00 -0.24530991723E+03  0.24530991723E+03  0.00000000000E+00 0. -1.
         21    1    1    2  503  502 -0.14108851250E+02 -0.37656526163E+02 -0.16060947030E+03  0.16556713320E+03  0.00000000000E+00 0. -1.
         21    1    1    2  504  503 -0.31758672857E+02  0.88014903104E+02  0.53549696679E+01  0.93722527549E+02  0.00000000000E+00 0. -1.
         21    1    1    2  505  504  0.11140637551E+03 -0.55478734932E+02  0.44028746704E+03  0.45753942362E+03  0.00000000000E+00 0. -1.
         21    1    1    2  506  501 -0.65538851401E+02  0.51203579912E+01  0.73212773487E+01  0.66144993847E+02  0.00000000000E+00 0. -1.
<scales pt_clust_3="40.21285" pt_clust_4="115.66209" pt_clust_5="14000.00000" pt_clust_6="71.07795"></scales>
<clustering>
<clus scale="   40.213">  2  3  1 -1</clus>
<clus scale="   71.078">  2  6  1 -1</clus>
<clus scale="  115.662">  2  4  1 -1</clus>
<clus scale="  115.662">  1  3  2 -1</clus>
</clustering>
</event>
<event>
 6    0  0.8777103E+002  0.1321186E+03  0.7546771E-02  0.1224346E+00
         21   -1    0    0  506  501  0.00000000000E+00  0.00000000000E+00  0.18718556660E+03  0.18718556660E+03  0.00000000000E+00 0.  1.
         21   -1    0    0  505  502 -0.00000000000E+00 -0.00000000000E+00 -0.15506839343E+04  0.15506839343E+04  0.00000000000E+00 0. -1.
         21    1    1    2  503  504  0.12802371067E+03 -0.18274553057E+01 -0.18987502643E+02  0.12943699372E+03  0.00000000000E+00 0.  1.
         21    1    1    2  504  501  0.41709674453E+02 -0.38611333410E+02  0.10041129605E+03  0.11538180266E+03  0.00000000000E+00 0.  1.
         21    1    1    2  505  503 -0.52853915985E+02  0.22338708194E+02 -0.13191725402E+04  0.13204199124E+04  0.00000000000E+00 0. -1.
         21    1    1    2  506  502 -0.11687946914E+03  0.18100080522E+02 -0.12574962091E+03  0.17263079210E+03  0.00000000000E+00 0.  1.
<scales pt_clust_3="14000.00000" pt_clust_4="56.83777" pt_clust_5="56.96054" pt_clust_6="132.11856"></scales>
<clustering>
<clus scale="   56.838">  1  4  2 -1</clus>
<clus scale="   56.961">  2  5  1 -1</clus>
<clus scale="  132.119">  2  6  1 -1</clus>
<clus scale="   56.838">  1  3  2 -1</clus>
</clustering>
</event>
<event>
 6    0  0.8777103E+002  0.1370318E+03  0.7546771E-02  0.1217380E+00
         21   -1    0    0  505  501  0.00000000000E+00  0.00000000000E+00  0.15386330157E+04  0.15386330157E+04  0.00000000000E+00 0.  1.
         21   -1    0    0  503  502 -0.00000000000E+00 -0.00000000000E+00 -0.32479032847E+03  0.32479032847E+03  0.00000000000E+00 0. -1.
         21    1    1    2  503  504 -0.39449765875E+02 -0.48077641025E+02 -0.28674216323E+03  0.29340894970E+03  0.00000000000E+00 0. -1.
         21    1    1    2  504  501  0.35614938400E+02  0.14514324883E+03  0.81674623374E+03  0.83030680887E+03  0.00000000000E+00 0.  1.
         21    1    1    2  505  506  0.31396890338E+02 -0.10915592036E+02  0.63696554539E+03  0.63783228273E+03  0.00000000000E+00 0.  1.
         21    1    1    2  506  502 -0.27562062862E+02 -0.86150015765E+02  0.46873071372E+02  0.10187530292E+03  0.00000000000E+00 0. -1.
<scales pt_clust_3="62.14884" pt_clust_4="137.03179" pt_clust_5="33.24026" pt_clust_6="14000.00000"></scales>
<clustering>
<clus scale="   33.240">  1  5  2 -1</clus>
<clus scale="   62.149">  2  3  1 -1</clus>
<clus scale="  137.032">  1  4  2 -1</clus>
<clus scale="   33.240">  1  3  2 -1</clus>
</clustering>
</event>
<event>
 6    0  0.8777103E+002  0.6068936E+02  0.7546771E-02  0.1394961E+00
         21   -1    0    0  505  501  0.00000000000E+00  0.00000000000E+00  0.20073989953E+04  0.20073989953E+04  0.00000000000E+00 0. -1.
         21   -1    0    0  501  502 -0.00000000000E+00 -0.00000000000E+00 -0.63008158273E+03  0.63008158273E+03  0.00000000000E+00 0.  1.
         21    1    1    2  503  506 -0.32593395577E+02 -0.39901750360E+02 -0.12788226505E+03  0.13787078309E+03  0.00000000000E+00 0. -1.
         21    1    1    2  504  503  0.82828688219E+02  0.61764228285E+02 -0.49348001185E+02  0.11450168867E+03  0.00000000000E+00 0. -1.
         21    1    1    2  505  504 -0.24713639552E+02 -0.55245298609E+02  0.19682985879E+04  0.19692288181E+04  0.00000000000E+00 0. -1.
         21    1    1    2  506  502 -0.25521653091E+02  0.33382820684E+02 -0.41375090912E+03  0.41587928813E+03  0.00000000000E+00 0.  1.
<scales pt_clust_3="52.05534" pt_clust_4="14000.00000" pt_clust_5="60.68936" pt_clust_6="42.02104"></scales>
<clustering>
<clus scale="   42.021">  2  6  1 -1</clus>
<clus scale="   52.055">  2  3  1 -1</clus>
<clus scale="   60.689">  1  5  2 -1</clus>
<clus scale="   60.689">  1  3  2 -1</clus>
</clustering>
</event>
<event>
 6    0  0.8777103E+002  0.6657380E+02  0.7546771E-02  0.1372147E+00
         21   -1    0    0  505  501  0.00000000000E+00  0.00000000000E+00  0.22568688245E+03  0.22568688245E+03  0.00000000000E+00 0. -1.
         21   -1    0    0  503  502 -0.00000000000E+00 -0.00000000000E+00 -0.14138206107E+03  0.14138206107E+03  0.00000000000E+00 0.  1.
         21    1    1    2  503  506  0.24241456841E+02  0.23251267902E+02 -0.34186404421E+02  0.47926818547E+02  0.00000000000E+00 0.  1.
         21    1    1    2  504  502 -0.74927504624E+02  0.14028675870E+02 -0.44405153079E+02  0.88219908841E+02  0.00000000000E+00 0.  1.
         21    1    1    2  505  504 -0.34388424128E+02 -0.60207612095E+02  0.41117988389E+02  0.80611470880E+02  0.00000000000E+00 0.  1.
         21    1    1    2  506  501  0.85074471911E+02  0.22927668323E+02  0.12177839049E+03  0.15031074525E+03  0.00000000000E+00 0. -1.
<scales pt_clust_3="33.58973" pt_clust_4="14000.00000" pt_clust_5="63.02375" pt_clust_6="66.57380"></scales>
<clustering>
<clus scale="   33.590">  2  3  1 -1</clus>
<clus scale="   63.024">  1  5  2 -1</clus>
<clus scale="   66.574">  1  6  2 -1</clus>
<clus scale="   63.024">  1  3  2 -1</clus>
</clustering>
</event>
<event>
 6    0  0.8777103E+002  0.1478261E+03  0.7546771E-02  0.1203170E+00
         21   -1    0    0  504  501  0.00000000000E+00  0.00000000000E+00  0.16276747514E+04  0.16276747514E+04  0.00000000000E+00 0.  1.
         21   -1    0    0  503  502 -0.00000000000E+00 -0.00000000000E+00 -0.22492532543E+03  0.22492532543E+03  0.00000000000E+00 0.  1.
         21    1    1    2  503  505 -0.16855178809E+03  0.45102217383E+02 -0.12744726899E+03  0.21607110324E+03  0.00000000000E+00 0.  1.
         21    1    1    2  504  502  0.10467489028E+03  0.32550725954E+02  0.31292207834E+03  0.33156690053E+03  0.00000000000E+00 0.  1.
         21    1    1    2  505  506  0.95136857388E+02 -0.53420837804E+02  0.24877720955E+02  0.11190937649E+03  0.00000000000E+00 0. -1.
         21    1    1    2  506  501 -0.31259959576E+02 -0.24232105533E+02  0.11923968957E+04  0.11930526966E+04  0.00000000000E+00 0.  1.
<scales pt_clust_3="147.82606" pt_clust_4="82.81186" pt_clust_5="14000.00000" pt_clust_6="39.55224"></scales>
<clustering>
<clus scale="   39.552">  1  6  2 -1</clus>
<clus scale="   82.812">  1  4  2 -1</clus>
<clus scale="  147.826">  2  3  1 -1</clus>
<clus scale="   39.552">  1  3  2 -1</clus>
</clustering>
</event>
<event>
 6    0  0.8777103E+002  0.9235985E+02  0.7546771E-02  0.1297236E+00
         21   -1    0    0  505  501  0.00000000000E+00  0.00000000000E+00  0.46184941013E+03  0.46184941013E+03  0.00000000000E+00 0.  1.
         21   -1    0    0  503  502 -0.00000000000E+00 -0.00000000000E+00 -0.12535479937E+03  0.12535479937E+03  0.00000000000E+00 0.  1.
         21    1    1    2  503  506 -0.58350125449E+02 -0.69866800462E+02 -0.72473759445E+02  0.11635528675E+03  0.00000000000E+00 0.  1.
         21    1    1    2  504  502  0.12425716571E+03  0.32770340528E+02  0.22868174309E+03  0.26231484531E+03  0.00000000000E+00 0.  1.
         21    1    1    2  505  504 -0.46288910506E+02 -0.57145193998E+01  0.43157983132E+02  0.63544712415E+02  0.00000000000E+00 0.  1.
         21    1    1    2  506  501 -0.19618129752E+02  0.42810979333E+02  0.13712864398E+03  0.14498936501E+03  0.00000000000E+00 0. -1.
<scales pt_clust_3="14000.00000" pt_clust_4="92.35985" pt_clust_5="46.64031" pt_clust_6="54.17781"></scales>
<clustering>
<clus scale="   46.640">  1  5  2 -1</clus>
<clus scale="   54.178">  1  6  2 -1</clus>
<clus scale="   92.360">  1  4  2 -1</clus>
<clus scale="   46.640">  1  3  2 -1</clus>
</clustering>
</event>
<event>
 6    0  0.8777103E+002  0.1547158E+03  0.7546771E-02  0.1194795E+00
         21   -1    0    0  504  501  0.00000000000E+00  0.00000000000E+00  0.13593669985E+03  0.13593669985E+03  0.00000000000E+00 0. -1.
         21   -1    0    0  505  502 -0.00000000000E+00 -0.00000000000E+00 -0.61026230043E+03  0.61026230043E+03  0.00000000000E+00 0. -1.
         21    1    1    2  503  502 -0.51853919862E+01 -0.75086603196E+02 -0.17678747201E+03  0.19214238609E+03  0.00000000000E+00 0. -1.
         21    1    1    2  504  503 -0.16348953901E+02  0.64539566547E+02 -0.21963776948E+02  0.70107427863E+02  0.00000000000E+00 0. -1.
         21    1    1    2  505  506  0.14371445939E+03 -0.29799947729E+02 -0.31654320585E+03  0.34891472295E+03  0.00000000000E+00 0. -1.
         21    1    1    2  506  501 -0.12218011350E+03  0.40346984377E+02  0.40968854227E+02  0.13503446338E+03  0.00000000000E+00 0. -1.
<scales pt_clust_3="70.93812" pt_clust_4="66.57810" pt_clust_5="14000.00000" pt_clust_6="154.71584"></scales>
<clustering>
<clus scale="   66.578">  1  4  2 -1</clus>
<clus scale="   70.938">  2  3  1 -1</clus>
<clus scale="  154.716">  1  6  2 -1</clus>
<clus scale="   66.578">  1  3  2 -1</clus>
</clustering>
</event>
<event>
 6    0  0.8777103E+002  0.8198961E+02  0.7546771E-02  0.1323498E+00
         21   -1    0    0  504  501  0.00000000000E+00  0.00000000000E+00  0.25692832345E+03  0.25692832345E+03  0.00000000000E+00 0. -1.
         21   -1    0    0  503  502 -0.00000000000E+00 -0.00000000000E+00 -0.10391837867E+03  0.10391837867E+03  0.00000000000E+00 0.  1.
         21    1    1    2  503  501 -0.33393125223E+02  0.28754870333E+02 -0.31449718812E+02  0.54138971115E+02  0.00000000000E+00 0.  1.
         21    1    1    2  504  506  0.80124407731E+02 -0.35936830841E+02  0.11177327078E+03  0.14214302862E+03  0.00000000000E+00 0. -1.
         21    1    1    2  505  502  0.36747374122E+02  0.36830531947E+02  0.34700549999E+01  0.52143061571E+02  0.00000000000E+00 0. -1.
         21    1    1    2  506  505 -0.83478656630E+02 -0.29648571439E+02  0.69216337816E+02  0.11242164081E+03  0.00000000000E+00 0.  1.
<scales pt_clust_3="44.06749" pt_clust_4="81.98961" pt_clust_5="53.67383" pt_clust_6="14000.00000"></scales>
<clustering>
<clus scale="   44.067">  2  3  1 -1</clus>
<clus scale="   53.674">  2  5  1 -1</clus>
<clus scale="   81.990">  1  4  2 -1</clus>
<clus scale="   81.990">  1  3  2 -1</clus>
</clustering>
</event>
<event>
 6    0  0.8777103E+002  0.9036229E+02  0.7546771E-02  0.1301977E+00
         21   -1    0    0  505  501  0.00000000000E+00  0.00000000000E+00  0.10709919871E+03  0.10709919871E+03  0.00000000000E+00 0. -1.
         21   -1    0    0  504  502 -0.00000000000E+00 -0.00000000000E+00 -0.22846075964E+03  0.22846075964E+03  0.00000000000E+00 0. -1.
         21    1    1    2  503  502  0.21572987788E+02  0.84062845121E+02 -0.21115580307E+02  0.89318662460E+02  0.00000000000E+00 0. -1.
         21    1    1    2  504  506 -0.30976973913E+02 -0.99591021812E-01 -0.54853215444E+02  0.62995698867E+02  0.00000000000E+00 0. -1.
         21    1    1    2  505  503  0.52465351177E+02 -0.46256465237E+01  0.34281782649E+02  0.62843060886E+02  0.00000000000E+00 0. -1.
         21    1    1    2  506  501 -0.43061365052E+02 -0.79337607576E+02 -0.79674547831E+02  0.12040253614E+03  0.00000000000E+00 0. -1.
<scales pt_clust_3="90.36229" pt_clust_4="30.97713" pt_clust_5="50.07095" pt_clust_6="14000.00000"></scales>
<clustering>
<clus scale="   30.977">  2  4  1 -1</clus>
<clus scale="   50.071">  1  5  2 -1</clus>
<clus scale="   90.362">  1  3  2 -1</clus>
<clus scale="   50.071">  1  3  2 -1</clus>
</clustering>
</event>
<event>
 6    0  0.8777103E+002  0.6623417E+02  0.7546771E-02  0.1373388E+00
         21   -1    0    0  504  501  0.00000000000E+00  0.00000000000E+00  0.76111463846E+03  0.76111463846E+03  0.00000000000E+00 0.  1.
         21   -1    0    0  506  502 -0.00000000000E+00 -0.00000000000E+00 -0.64384249303E+02  0.64384249303E+02  0.00000000000E+00 0. -1.
         21    1    1    2  503  505 -0.58465286561E+02  0.38963513585E+02  0.60751064734E+02  0.92881844242E+02  0.00000000000E+00 0.  1.
         21    1    1    2  504  503  0.68538627285E+02 -0.57030526816E+02  0.37557381731E+03  0.38601258615E+03  0.00000000000E+00 0.  1.
         21    1    1    2  505  502  0.40622344116E+02 -0.47134533772E+01 -0.30133119472E+02  0.50797602043E+02  0.00000000000E+00 0. -1.
         21    1    1    2  506  501 -0.50695684839E+02  0.22780466608E+02  0.29053862659E+03  0.29580685533E+03  0.00000000000E+00 0.  1.
<scales pt_clust_3="47.47334" pt_clust_4="66.23417" pt_clust_5="40.89488" pt_clust_6="14000.00000"></scales>
<clustering>
<clus scale="   40.895">  2  5  1 -1</clus>
<clus scale="   47.473">  2  3  1 -1</clus>
<clus scale="   66.234">  2  4  1 -1</clus>
<clus scale="   66.234">  1  3  2 -1</clus>
</clustering>
</event>
<event>
 6    0  0.8777103E+002  0.1285355E+03  0.7546771E-02  0.1229645E+00
         21   -1    0    0  505  501  0.00000000000E+00  0.00000000000E+00  0.28800014333E+03  0.28800014333E+03  0.00000000000E+00 0.  1.
         21   -1    0    0  503  502 -0.00000000000E+00 -0.00000000000E+00 -0.27137313573E+03  0.27137313573E+03  0.00000000000E+00 0. -1.
         21    1    1    2  503  504  0.32932529756E+02  0.72236595047E+01 -0.15223667116E+03  0.15592542069E+03  0.00000000000E+00 0. -1.
         21    1    1    2  504  501  0.90623916066E+02 -0.57031990719E+02  0.33531532289E+02  0.11220385816E+03  0.00000000000E+00 0. -1.
         21    1    1    2  505  506  0.58623285646E+01 -0.33925755119E+02  0.13268242518E+03  0.13707643747E+03  0.00000000000E+00 0.  1.
         21    1    1    2  506  502 -0.12941877439E+03  0.83734086334E+02  0.26497212964E+01  0.15416756274E+03  0.00000000000E+00 0. -1.
<scales pt_clust_3="33.71547" pt_clust_4="128.53555" pt_clust_5="34.40602" pt_clust_6="14000.00000"></scales>
<clustering>
<clus scale="   33.715">  2  3  1 -1</clus>
<clus scale="   34.406">  1  5  2 -1</clus>
<clus scale="  128.536">  1  4  2 -1</clus>
<clus scale="   34.406">  1  3  2 -1</clus>
</clustering>
</event>
<event>
 6    0  0.8777103E+002  0.1168807E+03  0.7546771E-02  0.1248333E+00
         21   -1    0    0  505  501  0.00000000000E+00  0.00000000000E+00  0.10595087028E+04  0.10595087028E+04  0.00000000000E+00 0. -1.
         21   -1    0    0  506  502 -0.00000000000E+00 -0.00000000000E+00 -0.13478489370E+03  0.13478489370E+03  0.00000000000E+00 0.  1.
         21    1    1    2  503  502  0.11061253208E+02  0.95587054176E+02 -0.59160735890E+02  0.11295675686E+03  0.00000000000E+00 0.  1.
         21    1    1    2  504  501 -0.76415517968E+02 -0.53315208347E+02  0.89921315468E+03  0.90402773209E+03  0.00000000000E+00 0. -1.
         21    1    1    2  505  503 -0.13558808029E+02 -0.29666570546E+02  0.91465240066E+02  0.97107346908E+02  0.00000000000E+00 0.  1.
         21    1    1    2  506  504  0.78913072788E+02 -0.12605275283E+02 -0.67938497345E+01  0.80201760679E+02  0.00000000000E+00 0.  1.
<scales pt_clust_3="14000.00000" pt_clust_4="116.88074" pt_clust_5="32.61820" pt_clust_6="79.59127"></scales>
<clustering>
<clus scale="   32.618">  1  5  2 -1</clus>
<clus scale="   79.591">  2  6  1 -1</clus>
<clus scale="  116.881">  1  4  2 -1</clus>
<clus scale="   32.618">  1  3  2 -1</clus>
</clustering>
</event>
<event>
 6    0  0.8777103E+002  0.1028817E+03  0.7546771E-02  0.1274350E+00
         21   -1    0    0  504  501  0.00000000000E+00  0.00000000000E+00  0.22954853038E+02  0.22954853038E+02  0.00000000000E+00 0.  1.
         21   -1    0    0  506  502 -0.00000000000E+00 -0.00000000000E+00 -0.13603669675E+04  0.13603669675E+04  0.00000000000E+00 0. -1.
         21    1    1    2  503  502  0.96171365481E+02 -0.90420223297E+01 -0.65505762135E+03  0.66214135726E+03  0.00000000000E+00 0. -1.
         21    1    1    2  504  503 -0.63250604221E+02  0.92178678966E+02 -0.25720140870E+03  0.28044627369E+03  0.00000000000E+00 0.  1.
         21    1    1    2  505  501 -0.49389406831E+02 -0.39161276386E+02 -0.17028095193E+03  0.18157235931E+03  0.00000000000E+00 0.  1.
         21    1    1    2  506  505  0.16468645571E+02 -0.43975380250E+02 -0.25487213244E+03  0.25916183023E+03  0.00000000000E+00 0. -1.
<scales pt_clust_3="14000.00000" pt_clust_4="102.88169" pt_clust_5="65.71741" pt_clust_6="46.95796"></scales>
<clustering>
<clus scale="   46.958">  2  6  1 -1</clus>
<clus scale="   65.717">  1  5  2 -1</clus>
<clus scale="  102.882">  1  4  2 -1</clus>
<clus scale="   65.717">  1  3  2 -1</clus>
</clustering>
</event>
<event>
 6    0  0.8777103E+002  0.7045115E+02  0.7546771E-02  0.1358566E+00
         21   -1    0    0  505  501  0.00000000000E+00  0.00000000000E+00  0.21860986051E+04  0.21860986051E+04  0.00000000000E+00 0.  1.
         21   -1    0    0  504  502 -0.00000000000E+00 -0.00000000000E+00 -0.15290069203E+03  0.15290069203E+03  0.00000000000E+00 0.  1.
         21    1    1    2  503  506  0.73363145592E+02 -0.58801804897E+02  0.56691897252E+03  0.57466244422E+03  0.00000000000E+00 0.  1.
         21    1    1    2  504  503 -0.59928454091E+02  0.35543485493E+02 -0.12915391438E+03  0.14674976174E+03  0.00000000000E+00 0.  1.
         21    1    1    2  505  502  0.45616185642E+02 -0.71259888798E+01  0.41030137775E+02  0.61766401189E+02  0.00000000000E+00 0.  1.
         21    1    1    2  506  501 -0.59050877143E+02  0.30384308284E+02  0.15544027172E+04  0.15558206900E+04  0.00000000000E+00 0.  1.
<scales pt_clust_3="70.45115" pt_clust_4="32.70439" pt_clust_5="46.16943" pt_clust_6="14000.00000"></scales>
<clustering>
<clus scale="   46.169">  2  5  1 -1</clus>
<clus scale="   32.704">  2  4  1 -1</clus>
<clus scale="   70.451">  2  3  1 -1</clus>
<clus scale="   70.451">  1  3  2 -1</clus>
</clustering>
</event>
<event>
 6    0  0.8777103E+002  0.1162796E+03  0.7546771E-02  0.1249364E+00
         21   -1    0    0  503  501  0.00000000000E+00  0.00000000000E+00  0.48425739742E+02  0.48425739742E+02  0.00000000000E+00 0.  1.
         21   -1    0    0  505  502 -0.00000000000E+00 -0.00000000000E+00 -0.93530940354E+03  0.93530940354E+03  0.00000000000E+00 0.  1.
         21    1    1    2  503  506  0.34598669792E+02  0.10364891227E+02 -0.21896960404E+01  0.36184163528E+02  0.00000000000E+00 0.  1.
         21    1    1    2  504  501 -0.15572461522E+03 -0.40248155005E+02 -0.35646845227E+03  0.39107521940E+03  0.00000000000E+00 0.  1.
         21    1    1    2  505  504  0.10361342230E+03 -0.93750356175E+01 -0.48300906441E+03  0.49408641843E+03  0.00000000000E+00 0.  1.
         21    1    1    2  506  502  0.17512523127E+02  0.39258299395E+02 -0.45216451084E+02  0.62389341929E+02  0.00000000000E+00 0.  1.
<scales pt_clust_3="36.11785" pt_clust_4="116.27956" pt_clust_5="14000.00000" pt_clust_6="49.98687"></scales>
<clustering>
<clus scale="   36.118">  1  3  2 -1</clus>
<clus scale="   49.987">  1  6  2 -1</clus>
<clus scale="  116.280">  1  4  2 -1</clus>
<clus scale="   36.118">  1  3  2 -1</clus>
</clustering>
</event>
<event>
 6    0  0.8777103E+002  0.8787440E+02  0.7546771E-02  0.1308082E+00
         21   -1    0    0  505  501  0.00000000000E+00  0.00000000000E+00  0.42249462476E+03  0.42249462476E+03  0.00000000000E+00 0. -1.
         21   -1    0    0  506  502 -0.00000000000E+00 -0.00000000000E+00 -0.39139550967E+03  0.39139550967E+03  0.00000000000E+00 0.  1.
         21    1    1    2  503  501 -0.39600994359E+02 -0.14210948159E+01  0.35009767255E+03  0.35233313581E+03  0.00000000000E+00 0. -1.
         21    1    1    2  504  502  0.26299312456E+00  0.38673974033E+02 -0.24747416067E+03  0.25047795438E+03  0.00000000000E+00 0.  1.
         21    1    1    2  505  504  0.81521802103E+02 -0.84222270101E+02 -0.20873556256E+01  0.11723289663E+03  0.00000000000E+00 0.  1.
         21    1    1    2  506  503 -0.42183800868E+02  0.46969390884E+02 -0.69437041166E+02  0.93846147612E+02  0.00000000000E+00 0.  1.
<scales pt_clust_3="39.61470" pt_clust_4="38.67487" pt_clust_5="87.87440" pt_clust_6="14000.00000"></scales>
<clustering>
<clus scale="   38.675">  2  4  1 -1</clus>
<clus scale="   39.615">  1  3  2 -1</clus>
<clus scale="   87.874">  1  5  2 -1</clus>
<clus scale="   39.615">  1  3  2 -1</clus>
</clustering>
</event>
<event>
 6    0  0.8777103E+002  0.8719524E+02  0.7546771E-02  0.1309790E+00
         21   -1    0    0  505  501  0.00000000000E+00  0.00000000000E+00  0.23022841091E+03  0.23022841091E+03  0.00000000000E+00 0.  1.
         21   -1    0    0  506  502 -0.00000000000E+00 -0.00000000000E+00 -0.10040833457E+04  0.10040833457E+04  0.00000000000E+00 0.  1.
         21    1    1    2  503  501  0.11821986624E+03 -0.13008027187E+02 -0.17175933913E+02  0.12016720955E+03  0.00000000000E+00 0.  1.
         21    1    1    2  504  502 -0.73309698615E+02  0.31686417822E+02 -0.90551129759E+02  0.12073875967E+03  0.00000000000E+00 0.  1.
         21    1    1    2  505  504 -0.38197581758E+02  0.30395814213E+02  0.15923935195E+03  0.16655369099E+03  0.00000000000E+00 0.  1.
         21    1    1    2  506  503 -0.67125858704E+01 -0.49074204847E+02 -0.82536722304E+03  0.82685209636E+03  0.00000000000E+00 0.  1.
<scales pt_clust_3="14000.00000" pt_clust_4="87.19524" pt_clust_5="48.81558" pt_clust_6="49.25835"></scales>
<clustering>
<clus scale="   48.816">  1  5  2 -1</clus>
<clus scale="   49.258">  2  6  1 -1</clus>
<clus scale="   87.195">  2  4  1 -1</clus>
<clus scale="   48.816">  1  3  2 -1</clus>
</clustering>
</event>
<event>
 6    0  0.8777103E+002  0.1053542E+03  0.7546771E-02  0.1269423E+00
         21   -1    0    0  504  501  0.00000000000E+00  0.00000000000E+00  0.18116566829E+03  0.18116566829E+03  0.00000000000E+00 0.  1.
         21   -1    0    0  503  502 -0.00000000000E+00 -0.00000000000E+00 -0.13924991222E+04  0.13924991222E+04  0.00000000000E+00 0.  1.
         21    1    1    2  503  506 -0.16628805060E+02  0.38712470747E+02 -0.95954240319E+03  0.96046696771E+03  0.00000000000E+00 0.  1.
         21    1    1    2  504  505 -0.69495146482E+02  0.69254093484E+02 -0.18023332408E+02  0.99752420321E+02  0.00000000000E+00 0. -1.
         21    1    1    2  505  502  0.45905233159E+02 -0.51379255103E+01 -0.35005501963E+03  0.35308951482E+03  0.00000000000E+00 0.  1.
         21    1    1    2  506  501  0.40218718384E+02 -0.10282863872E+03  0.11628730132E+03  0.16035588763E+03  0.00000000000E+00 0.  1.
<scales pt_clust_3="42.13280" pt_clust_4="14000.00000" pt_clust_5="41.74088" pt_clust_6="105.35416"></scales>
<clustering>
<clus scale="   42.133">  2  3  1 -1</clus>
<clus scale="   41.741">  2  5  1 -1</clus>
<clus scale="  105.354">  1  6  2 -1</clus>
<clus scale="  105.354">  1  3  2 -1</clus>
</clustering>
</event>
<event>
 6    0  0.8777103E+002  0.1221260E+03  0.7546771E-02  0.1239631E+00
         21   -1    0    0  503  501  0.00000000000E+00  0.00000000000E+00  0.52833415648E+03  0.52833415648E+03  0.00000000000E+00 0. -1.
         21   -1    0    0  505  502 -0.00000000000E+00 -0.00000000000E+00 -0.21882747194E+03  0.21882747194E+03  0.00000000000E+00 0. -1.
         21    1    1    2  503  506 -0.17518942537E+02  0.99153242972E+02  0.24087401172E+03  0.26107196031E+03  0.00000000000E+00 0. -1.
         21    1    1    2  504  501  0.55607769207E+02  0.20918800427E+02  0.24114116988E+03  0.24835233846E+03  0.00000000000E+00 0. -1.
         21    1    1    2  505  504 -0.67313846099E+02 -0.11320302008E+03 -0.15325623916E+03  0.20207313645E+03  0.00000000000E+00 0. -1.
         21    1    1    2  506  502  0.29225019429E+02 -0.68690233216E+01 -0.19252257903E+02  0.35664193197E+02  0.00000000000E+00 0. -1.
<scales pt_clust_3="122.12597" pt_clust_4="59.88292" pt_clust_5="14000.00000" pt_clust_6="30.02141"></scales>
<clustering>
<clus scale="   30.021">  2  6  1 -1</clus>
<clus scale="   59.883">  1  4  2 -1</clus>
<clus scale="  122.126">  1  3  2 -1</clus>
<clus scale="   59.883">  1  3  2 -1</clus>
</clustering>
</event>
<event>
 6    0  0.8777103E+002  0.1258771E+03  0.7546771E-02  0.1233705E+00
         21   -1    0    0  503  501  0.00000000000E+00  0.00000000000E+00  0.43529587234E+03  0.43529587234E+03  0.00000000000E+00 0.  1.
         21   -1    0    0  506  502 -0.00000000000E+00 -0.00000000000E+00 -0.24243844821E+04  0.24243844821E+04  0.00000000000E+00 0. -1.
         21    1    1    2  503  502 -0.29478621625E+02 -0.73559787679E+02 -0.84631694223E+02  0.11594203363E+03  0.00000000000E+00 0.  1.
         21    1    1    2  504  505 -0.63753960483E+02  0.12588303348E+03 -0.78221174189E+03  0.79483728822E+03  0.00000000000E+00 0. -1.
         21    1    1    2  505  501  0.51713787600E+01 -0.12573802706E+03  0.40154542542E+03  0.42080342594E+03  0.00000000000E+00 0.  1.
         21    1    1    2  506  504  0.88061203348E+02  0.73414781265E+02 -0.15237905991E+04  0.15280976066E+04  0.00000000000E+00 0. -1.
<scales pt_clust_3="79.24665" pt_clust_4="14000.00000" pt_clust_5="125.87710" pt_clust_6="73.15347"></scales>
<clustering>
<clus scale="   79.247">  2  3  1 -1</clus>
<clus scale="   73.153">  2  6  1 -1</clus>
<clus scale="  125.877">  1  5  2 -1</clus>
<clus scale="  125.877">  1  3  2 -1</clus>
</clustering>
</event>
<event>
 6    0  0.8777103E+002  0.9592243E+02  0.7546771E-02  0.1289112E+00
         21   -1    0    0  506  501  0.00000000000E+00  0.00000000000E+00  0.20240273332E+03  0.20240273332E+03  0.00000000000E+00 0.  1.
         21   -1    0    0  504  502 -0.00000000000E+00 -0.00000000000E+00 -0.85003454163E+03  0.85003454163E+03  0.00000000000E+00 0.  1.
         21    1    1    2  503  501 -0.44148112379E+02 -0.73999890919E+02  0.69168625896E+02  0.11049587545E+03  0.00000000000E+00 0.  1.
         21    1    1    2  504  505  0.10007144550E+02  0.32269088897E+02 -0.39235304173E+03  0.39380495984E+03  0.00000000000E+00 0.  1.
         21    1    1    2  505  503  0.82403570492E+02  0.46161656316E+01 -0.42371895934E+03  0.43168207505E+03  0.00000000000E+00 0.  1.
         21    1    1    2  506  502 -0.48262602662E+02  0.37114636390E+02  0.99271566866E+02  0.11645436462E+03  0.00000000000E+00 0. -1.
<scales pt_clust_3="95.92243" pt_clust_4="33.78516" pt_clust_5="14000.00000" pt_clust_6="61.10690"></scales>
<clustering>
<clus scale="   33.785">  2  4  1 -1</clus>
<clus scale="   61.107">  1  6  2 -1</clus>
<clus scale="   95.922">  1  3  2 -1</clus>
<clus scale="   61.107">  1  3  2 -1</clus>
</clustering>
</event>
<event>
 6    0  0.8777103E+002  0.1193677E+03  0.7546771E-02  0.1244144E+00
         21   -1    0    0  502  501  0.00000000000E+00  0.00000000000E+00  0.41683839560E+02  0.41683839560E+02  0.00000000000E+00 0.  1.
         21   -1    0    0  505  502 -0.00000000000E+00 -0.00000000000E+00 -0.18448716402E+04  0.18448716402E+04  0.00000000000E+00 0. -1.
         21    1    1    2  503  506 -0.23956913597E+02 -0.13946143068E+03 -0.34656592436E+03  0.37434124042E+03  0.00000000000E+00 0. -1.
         21    1    1    2  504  503  0.76541093236E+02  0.68314520257E+02 -0.40748371603E+03  0.42020041821E+03  0.00000000000E+00 0. -1.
         21    1    1    2  505  504 -0.32135858429E+02 -0.39410279737E+02 -0.91745087992E+03  0.91885907549E+03  0.00000000000E+00 0. -1.
         21    1    1    2  506  501 -0.20448321210E+02  0.11055719016E+03 -0.13168728033E+03  0.17315474564E+03  0.00000000000E+00 0.  1.
<scales pt_clust_3="119.36770" pt_clust_4="80.24745" pt_clust_5="50.85158" pt_clust_6="14000.00000"></scales>
<clustering>
<clus scale="   50.852">  2  5  1 -1</clus>
<clus scale="   80.247">  2  4  1 -1</clus>
<clus scale="  119.368">  2  3  1 -1</clus>
<clus scale="  119.368">  1  3  2 -1</clus>
</clustering>
</event>
<event>
 6    0  0.8777103E+002  0.8042621E+02  0.7546771E-02  0.1327846E+00
         21   -1    0    0  505  501  0.00000000000E+00  0.00000000000E+00  0.18930825819E+04  0.18930825819E+04  0.00000000000E+00 0.  1.
         21   -1    0    0  506  502 -0.00000000000E+00 -0.00000000000E+00 -0.14441129097E+03  0.14441129097E+03  0.00000000000E+00 0. -1.
         21    1    1    2  503  501 -0.27969906464E+02 -0.20797005048E+02  0.69410731630E+03  0.69498186856E+03  0.00000000000E+00 0.  1.
         21    1    1    2  504  503 -0.16566315485E+02  0.86787816765E+02  0.11264475813E+04  0.11299073950E+04  0.00000000000E+00 0.  1.
         21    1    1    2  505  502 -0.52738116339E+02  0.15491461538E+02  0.17165141502E+02  0.57584167775E+02  0.00000000000E+00 0.  1.
         21    1    1    2  506  504  0.97274338288E+02 -0.81482273255E+02 -0.89048748144E+02  0.15502044152E+03  0.00000000000E+00 0. -1.
<scales pt_clust_3="34.85443" pt_clust_4="80.42621" pt_clust_5="55.62714" pt_clust_6="14000.00000"></scales>
<clustering>
<clus scale="   34.854">  1  3  2 -1</clus>
<clus scale="   55.627">  2  5  1 -1</clus>
<clus scale="   80.426">  1  4  2 -1</clus>
<clus scale="   34.854">  1  3  2 -1</clus>
</clustering>
</event>
<event>
 6    0  0.8777103E+002  0.1592192E+03  0.7546771E-02  0.1189581E+00
         21   -1    0    0  506  501  0.00000000000E+00  0.00000000000E+00  0.13325893825E+04  0.13325893825E+04  0.00000000000E+00 0.  1.
         21   -1    0    0  503  502 -0.00000000000E+00 -0.00000000000E+00 -0.81784973558E+02  0.81784973558E+02  0.00000000000E+00 0.  1.
         21    1    1    2  503  504  0.36539797620E+02  0.86526116681E+01  0.14501769427E+01  0.37578285112E+02  0.00000000000E+00 0. -1.
         21    1    1    2  504  501  0.13836282613E+03 -0.62378748803E+02  0.88963973204E+03  0.90249334224E+03  0.00000000000E+00 0.  1.
         21    1    1    2  505  502 -0.25766749117E+02 -0.68767890043E+02  0.89893734765E+01  0.73984842343E+02  0.00000000000E+00 0.  1.
         21    1    1    2  506  505 -0.14913587464E+03  0.12249402718E+03  0.35072512649E+03  0.40031788637E+03  0.00000000000E+00 0.  1.
<scales pt_clust_3="37.55029" pt_clust_4="14000.00000" pt_clust_5="64.74897" pt_clust_6="159.21922"></scales>
<clustering>
<clus scale="   37.550">  2  3  1 -1</clus>
<clus scale="   64.749">  2  5  1 -1</clus>
<clus scale="  159.219">  2  6  1 -1</clus>
<clus scale="  159.219">  1  3  2 -1</clus>
</clustering>
</event>
<event>
 6    0  0.8777103E+002  0.8420636E+02  0.7546771E-02  0.1317521E+00
         21   -1    0    0  503  501  0.00000000000E+00  0.00000000000E+00  0.11478935735E+02  0.11478935735E+02  0.00000000000E+00 0.  1.
         21   -1    0    0  506  502 -0.00000000000E+00 -0.00000000000E+00 -0.19481923947E+04  0.19481923947E+04  0.00000000000E+00 0.  1.
         21    1    1    2  503  505 -0.30762698738E+02  0.19897381895E+02 -0.88351864108E+02  0.95646752853E+02  0.00000000000E+00 0.  1.
         21    1    1    2  504  502  0.64735325170E+02 -0.71833716096E+02 -0.85235094477E+03  0.85781867440E+03  0.00000000000E+00 0.  1.
         21    1    1    2  505  504 -0.43070693181E+02 -0.34761137823E+02 -0.35290646237E+03  0.35722036966E+03  0.00000000000E+00 0.  1.
         21    1    1    2  506  501  0.90980667489E+01  0.86697472024E+02 -0.64310418769E+03  0.64898553351E+03  0.00000000000E+00 0.  1.
<scales pt_clust_3="36.63672" pt_clust_4="84.20636" pt_clust_5="59.27981" pt_clust_6="14000.00000"></scales>
<clustering>
<clus scale="   36.637">  1  3  2 -1</clus>
<clus scale="   59.280">  1  5  2 -1</clus>
<clus scale="   84.206">  2  4  1 -1</clus>
<clus scale="   36.637">  1  3  2 -1</clus>
</clustering>
</event>
<event>
 6    0  0.8777103E+002  0.9983862E+02  0.7546771E-02  0.1280636E+00
         21   -1    0    0  504  501  0.00000000000E+00  0.00000000000E+00  0.11724448106E+03  0.11724448106E+03  0.00000000000E+00 0. -1.
         21   -1    0    0  503  502 -0.00000000000E+00 -0.00000000000E+00 -0.63606468432E+03  0.63606468432E+03  0.00000000000E+00 0. -1.
         21    1    1    2  503  506  0.34121800501E+02 -0.11511241804E+02 -0.93939083313E+02  0.10060495679E+03  0.00000000000E+00 0.  1.
         21    1    1    2  504  502 -0.26476527826E+02  0.82652542567E+02 -0.94990857806E+02  0.12866900320E+03  0.00000000000E+00 0. -1.
         21    1    1    2  505  501  0.15875485132E+02  0.30789247794E+02  0.87304155562E+02  0.93925632212E+02  0.00000000000E+00 0. -1.
         21    1    1    2  506  505 -0.23520757807E+02 -0.10193054856E+03 -0.41719441770E+03  0.43010957318E+03  0.00000000000E+00 0. -1.
<scales pt_clust_3="36.91183" pt_clust_4="14000.00000" pt_clust_5="34.64114" pt_clust_6="99.83862"></scales>
<clustering>
<clus scale="   34.641">  1  5  2 -1</clus>
<clus scale="   36.912">  2  3  1 -1</clus>
<clus scale="   99.839">  2  6  1 -1</clus>
<clus scale="   34.641">  1  3  2 -1</clus>
</clustering>
</event>
<event>
 6    0  0.8777103E+002  0.7403697E+02  0.7546771E-02  0.1346879E+00
         21   -1    0    0  505  501  0.00000000000E+00  0.00000000000E+00  0.80068564658E+03  0.80068564658E+03  0.00000000000E+00 0. -1.
         21   -1    0    0  506  502 -0.00000000000E+00 -0.00000000000E+00 -0.17065357741E+03  0.17065357741E+03  0.00000000000E+00 0. -1.
         21    1    1    2  503  501 -0.95027685644E+02 -0.36224867658E+02  0.19672581009E+03  0.22145777573E+03  0.00000000000E+00 0. -1.
         21    1    1    2  504  502  0.63535779542E+02 -0.28738922259E+02  0.14760431104E+03  0.16324752241E+03  0.00000000000E+00 0. -1.
         21    1    1    2  505  504  0.48929681521E+02  0.26988411256E+02  0.43142958368E+03  0.43503330189E+03  0.00000000000E+00 0. -1.
         21    1    1    2  506  503 -0.17437775419E+02  0.37975378660E+02 -0.14572763565E+03  0.15160062397E+03  0.00000000000E+00 0. -1.
<scales pt_clust_3="14000.00000" pt_clust_4="74.03697" pt_clust_5="56.23475" pt_clust_6="41.78762"></scales>
<clustering>
<clus scale="   41.788">  2  6  1 -1</clus>
<clus scale="   56.235">  1  5  2 -1</clus>
<clus scale="   74.037">  2  4  1 -1</clus>
<clus scale="   56.235">  1  3  2 -1</clus>
</clustering>
</event>
<event>
 6    0  0.8777103E+002  0.1068869E+03  0.7546771E-02  0.1266446E+00
         21   -1    0    0  504  501  0.00000000000E+00  0.00000000000E+00  0.71093489612E+03  0.71093489612E+03  0.00000000000E+00 0. -1.
         21   -1    0    0  503  502 -0.00000000000E+00 -0.00000000000E+00 -0.22772182432E+03  0.22772182432E+03  0.00000000000E+00 0.  1.
         21    1    1    2  503  505 -0.10325486094E+03 -0.21317958613E+02 -0.18266413790E+03  0.21090805803E+03  0.00000000000E+00 0.  1.
         21    1    1    2  504  506 -0.21014616316E+02  0.28277541792E+02  0.23059909047E+03  0.23327488934E+03  0.00000000000E+00 0. -1.
         21    1    1    2  505  501  0.13836990447E+03  0.57871948500E+02  0.37855380667E+03  0.40718346900E+03  0.00000000000E+00 0. -1.
         21    1    1    2  506  502 -0.14100427210E+02 -0.64831531679E+02  0.56724312566E+02  0.87290304063E+02  0.00000000000E+00 0. -1.
<scales pt_clust_3="14000.00000" pt_clust_4="35.23114" pt_clust_5="106.88691" pt_clust_6="62.99127"></scales>
<clustering>
<clus scale="   35.231">  1  4  2 -1</clus>
<clus scale="   62.991">  1  6  2 -1</clus>
<clus scale="  106.887">  1  5  2 -1</clus>
<clus scale="   35.231">  1  3  2 -1</clus>
</clustering>
</event>
<event>
 6    0  0.8777103E+002  0.1061450E+03  0.7546771E-02  0.1267880E+00
         21   -1    0    0  504  501  0.00000000000E+00  0.00000000000E+00  0.67195395428E+03  0.67195395428E+03  0.00000000000E+00 0.  1.
         21   -1    0    0  503  502 -0.00000000000E+00 -0.00000000000E+00 -0.43833771666E+03  0.43833771666E+03  0.00000000000E+00 0.  1.
         21    1    1    2  503  506  0.42941067685E+02 -0.23218268745E+02 -0.32231727158E+03  0.32599301658E+03  0.00000000000E+00 0.  1.
         21    1    1    2  504  505 -0.60681627347E+01  0.14873019207E+03  0.68414844720E+02  0.16382333048E+03  0.00000000000E+00 0.  1.
         21    1    1    2  505  502 -0.38026148449E+02 -0.79499752438E+02 -0.35811932279E+02  0.95124618775E+02  0.00000000000E+00 0.  1.
         21    1    1    2  506  501  0.11532434985E+01 -0.46012170889E+02  0.52333059677E+03  0.52535070510E+03  0.00000000000E+00 0.  1.
<scales pt_clust_3="49.10384" pt_clust_4="106.14501" pt_clust_5="14000.00000" pt_clust_6="46.02662"></scales>
<clustering>
<clus scale="   46.027">  1  6  2 -1</clus>
<clus scale="   49.104">  2  3  1 -1</clus>
<clus scale="  106.145">  1  4  2 -1</clus>
<clus scale="   46.027">  1  3  2 -1</clus>
</clustering>
</event>
<event>
 6    0  0.8777103E+002  0.1195799E+03  0.7546771E-02  0.1243792E+00
         21   -1    0    0  506  501  0.00000000000E+00  0.00000000000E+00  0.20822113360E+04  0.20822113360E+04  0.00000000000E+00 0. -1.
         21   -1    0    0  503  502 -0.00000000000E+00 -0.00000000000E+00 -0.45404165879E+02  0.45404165879E+02  0.00000000000E+00 0.  1.
         21    1    1    2  503  505 -0.17872266079E+02  0.33064091957E+02  0.10518440948E+03  0.11169786063E+03  0.00000000000E+00 0. -1.
         21    1    1    2  504  502 -0.53103789349E+02  0.68488721185E+02  0.11875512429E+02  0.87474254317E+02  0.00000000000E+00 0.  1.
         21    1    1    2  505  501  0.96159790588E+02 -0.75187110786E+02  0.17743719918E+04  0.17785656502E+04  0.00000000000E+00 0. -1.
         21    1    1    2  506  504 -0.25183735160E+02 -0.26365702356E+02  0.14537525648E+03  0.14987773675E+03  0.00000000000E+00 0.  1.
<scales pt_clust_3="37.00752" pt_clust_4="119.57986" pt_clust_5="14000.00000" pt_clust_6="36.46054"></scales>
<clustering>
<clus scale="   36.461">  1  6  2 -1</clus>
<clus scale="   37.008">  2  3  1 -1</clus>
<clus scale="  119.580">  2  4  1 -1</clus>
<clus scale="   36.461">  1  3  2 -1</clus>
</clustering>
</event>
<event>
 6    0  0.8777103E+002  0.8957023E+02  0.7546771E-02  0.1303896E+00
         21   -1    0    0  506  501  0.00000000000E+00  0.00000000000E+00  0.34650146041E+03  0.34650146041E+03  0.00000000000E+00 0. -1.
         21   -1    0    0  504  502 -0.00000000000E+00 -0.00000000000E+00 -0.16440906736E+04  0.16440906736E+04  0.00000000000E+00 0.  1.
         21    1    1    2  503  505  0.61940286776E+02  0.43880189196E+02  0.17624011349E+03  0.19189228158E+03  0.00000000000E+00 0. -1.
         21    1    1    2  504  501 -0.11292365544E+03 -0.60945920790E+02 -0.51115695069E+03  0.52701763297E+03  0.00000000000E+00 0.  1.
         21    1    1    2  505  502  0.64381980539E+02 -0.14628487902E+02 -0.11142720894E+04  0.11162263754E+04  0.00000000000E+00 0.  1.
         21    1    1    2  506  503 -0.13398611877E+02  0.31694219497E+02  0.15159971337E+03  0.15545584403E+03  0.00000000000E+00 0. -1.
<scales pt_clust_3="14000.00000" pt_clust_4="89.57023" pt_clust_5="65.92140" pt_clust_6="34.40997"></scales>
<clustering>
<clus scale="   34.410">  1  6  2 -1</clus>
<clus scale="   65.921">  2  5  1 -1</clus>
<clus scale="   89.570">  2  4  1 -1</clus>
<clus scale="   34.410">  1  3  2 -1</clus>
</clustering>
</event>
<event>
 6    0  0.8777103E+002  0.1697401E+03  0.7546771E-02  0.1178119E+00
         21   -1    0    0  506  501  0.00000000000E+00  0.00000000000E+00  0.52821830226E+03  0.52821830226E+03  0.00000000000E+00 0.  1.
         21   -1    0    0  505  502 -0.00000000000E+00 -0.00000000000E+00 -0.30199189244E+03  0.30199189244E+03  0.00000000000E+00 0.  1.
         21    1    1    2  503  504 -0.11013133808E+03  0.89612830439E+02  0.49617683285E+02  0.15040374165E+03  0.00000000000E+00 0.  1.
         21    1    1    2  504  502  0.11802687129E+02  0.61873538059E+02 -0.19568445324E+03  0.20557247718E+03  0.00000000000E+00 0.  1.
         21    1    1    2  505  501  0.76316567243E+02 -0.19868242284E+03  0.19224221031E+03  0.28680305264E+03  0.00000000000E+00 0.  1.
         21    1    1    2  506  503  0.22012083709E+02  0.47196054344E+02  0.18005096947E+03  0.18743092323E+03  0.00000000000E+00 0.  1.
<scales pt_clust_3="14000.00000" pt_clust_4="63.71402" pt_clust_5="169.74008" pt_clust_6="52.07686"></scales>
<clustering>
<clus scale="   52.077">  1  6  2 -1</clus>
<clus scale="   63.714">  2  4  1 -1</clus>
<clus scale="  169.740">  1  5  2 -1</clus>
<clus scale="   52.077">  1  3  2 -1</clus>
</clustering>
</event>
<event>
 6    0  0.8777103E+002  0.7711495E+02  0.7546771E-02  0.1337444E+00
         21   -1    0    0  505  501  0.00000000000E+00  0.00000000000E+00  0.23302999565E+03  0.23302999565E+03  0.00000000000E+00 0. -1.
         21   -1    0    0  506  502 -0.00000000000E+00 -0.00000000000E+00 -0.26913170911E+03  0.26913170911E+03  0.00000000000E+00 0.  1.
         21    1    1    2  503  502  0.78610040593E+02 -0.38566791057E+02 -0.18265722675E+03  0.20256011044E+03  0.00000000000E+00 0.  1.
         21    1    1    2  504  503  0.18695877979E+02  0.49877576296E+02 -0.49311206213E+01  0.53494153149E+02  0.00000000000E+00 0. -1.
         21    1    1    2  505  504 -0.35547378837E+02  0.31972329673E+02  0.16295559365E+03  0.16982453153E+03  0.00000000000E+00 0. -1.
         21    1    1    2  506  501 -0.61758539734E+02 -0.43283114912E+02 -0.11468959744E+02  0.76282909647E+02  0.00000000000E+00 0.  1.
<scales pt_clust_3="77.11495" pt_clust_4="61.79479" pt_clust_5="47.81052" pt_clust_6="14000.00000"></scales>
<clustering>
<clus scale="   47.811">  1  5  2 -1</clus>
<clus scale="   61.795">  1  4  2 -1</clus>
<clus scale="   77.115">  2  3  1 -1</clus>
<clus scale="   47.811">  1  3  2 -1</clus>
</clustering>
</event>
<event>
 6    0  0.8777103E+002  0.1832089E+03  0.7546771E-02  0.1164733E+00
         21   -1    0    0  503  501  0.00000000000E+00  0.00000000000E+00  0.64018871416E+03  0.64018871416E+03  0.00000000000E+00 0. -1.
         21   -1    0    0  505  502 -0.00000000000E+00 -0.00000000000E+00 -0.49015965451E+03  0.49015965451E+03  0.00000000000E+00 0. -1.
         21    1    1    2  503  502  0.46160083434E+02 -0.14963395233E+03  0.29311213970E+03  0.33231882197E+03  0.00000000000E+00 0. -1.
         21    1    1    2  504  506  0.98138683266E+01  0.18881022619E+03  0.14369449186E+02  0.18961037576E+03  0.00000000000E+00 0. -1.
         21    1    1    2  505  504 -0.48078031804E+02  0.44784309084E+01 -0.37920792649E+03  0.38226980655E+03  0.00000000000E+00 0. -1.
         21    1    1    2  506  501 -0.78959199567E+01 -0.43654704769E+02  0.22175539726E+03  0.22614936439E+03  0.00000000000E+00 0. -1.
<scales pt_clust_3="183.20890" pt_clust_4="14000.00000" pt_clust_5="48.30046" pt_clust_6="44.36303"></scales>
<clustering>
<clus scale="   44.363">  1  6  2 -1</clus>
<clus scale="   48.300">  2  5  1 -1</clus>
<clus scale="  183.209">  1  3  2 -1</clus>
<clus scale="   44.363">  1  3  2 -1</clus>
</clustering>
</event>
<event>
 6    0  0.8777103E+002  0.1709948E+03  0.7546771E-02  0.1176814E+00
         21   -1    0    0  505  501  0.00000000000E+00  0.00000000000E+00  0.46852971957E+03  0.46852971957E+03  0.00000000000E+00 0.  1.
         21   -1    0    0  504  502 -0.00000000000E+00 -0.00000000000E+00 -0.19623130352E+03  0.19623130352E+03  0.00000000000E+00 0.  1.
         21    1    1    2  503  501 -0.17472701554E+02 -0.11044834464E+03  0.18142958094E+03  0.21312162015E+03  0.00000000000E+00 0.  1.
         21    1    1    2  504  506  0.98593928575E+02  0.16643219029E+00 -0.35262406029E+02  0.10471020834E+03  0.00000000000E+00 0.  1.
         21    1    1    2  505  502 -0.15080348383E+03  0.82567371583E+02  0.18428478508E+03  0.25203163214E+03  0.00000000000E+00 0.  1.
         21    1    1    2  506  503  0.69682256809E+02  0.27714540865E+02 -0.58153543937E+02  0.94897562465E+02  0.00000000000E+00 0.  1.
<scales pt_clust_3="111.82188" pt_clust_4="39.22153" pt_clust_5="164.97491" pt_clust_6="39.22153"></scales>
<clustering>
<clus scale="   39.222">  4  6 -1 -1</clus>
<clus scale="  111.822">  1  3  2 -1</clus>
<clus scale="  164.975">  1  5  2 -1</clus>
<clus scale="  111.822">  1  3  2 -1</clus>
</clustering>
</event>
<event>
 6    0  0.8777103E+002  0.9634351E+02  0.7546771E-02  0.1288179E+00
         21   -1    0    0  503  501  0.00000000000E+00  0.00000000000E+00  0.89024671724E+02  0.89024671724E+02  0.00000000000E+00 0.  1.
         21   -1    0    0  504  502 -0.00000000000E+00 -0.00000000000E+00 -0.34194397905E+04  0.34194397905E+04  0.00000000000E+00 0. -1.
         21    1    1    2  503  505  0.15006429133E+02  0.33059070353E+02  0.62562079132E+02  0.72333317311E+02  0.00000000000E+00 0.  1.
         21    1    1    2  504  506 -0.35609183427E+02  0.31498505786E+02 -0.28108008754E+04  0.28112028975E+04  0.00000000000E+00 0. -1.
         21    1    1    2  505  502  0.41988129566E+02 -0.12336966766E+03 -0.20726706190E+03  0.24483200949E+03  0.00000000000E+00 0.  1.
         21    1    1    2  506  501 -0.21385375272E+02  0.58812091522E+02 -0.37490926055E+03  0.38009623786E+03  0.00000000000E+00 0.  1.
<scales pt_clust_3="36.30558" pt_clust_4="47.64168" pt_clust_5="14000.00000" pt_clust_6="96.34351"></scales>
<clustering>
<clus scale="   36.306">  1  3  2 -1</clus>
<clus scale="   47.642">  2  4  1 -1</clus>
<clus scale="   96.344">  2  6  1 -1</clus>
<clus scale="   36.306">  1  3  2 -1</clus>
</clustering>
</event>
<event>
 6    0  0.8777103E+002  0.1108796E+03  0.7546771E-02  0.1258950E+00
         21   -1    0    0  504  501  0.00000000000E+00  0.00000000000E+00  0.30467227285E+03  0.30467227285E+03  0.00000000000E+00 0.  1.
         21   -1    0    0  503  502 -0.00000000000E+00 -0.00000000000E+00 -0.19455684408E+04  0.19455684408E+04  0.00000000000E+00 0. -1.
         21    1    1    2  503  506 -0.32563885539E+02  0.35416925485E+02 -0.62163482400E+03  0.62349388102E+03  0.00000000000E+00 0. -1.
         21    1    1    2  504  505 -0.15003586443E+01  0.60286411462E+02  0.27001147250E+03  0.27666387145E+03  0.00000000000E+00 0.  1.
         21    1    1    2  505  502  0.44733348770E+02 -0.14548435800E+03 -0.12902158912E+04  0.12991627369E+04  0.00000000000E+00 0. -1.
         21    1    1    2  506  501 -0.10669104587E+02  0.49781021048E+02  0.94307481215E+00  0.50920224267E+02  0.00000000000E+00 0.  1.
<scales pt_clust_3="48.11201" pt_clust_4="110.87961" pt_clust_5="14000.00000" pt_clust_6="51.69653"></scales>
<clustering>
<clus scale="   48.112">  2  3  1 -1</clus>
<clus scale="   51.697">  1  6  2 -1</clus>
<clus scale="  110.880">  1  4  2 -1</clus>
<clus scale="   51.697">  1  3  2 -1</clus>
</clustering>
</event>
<event>
 6    0  0.8777103E+002  0.2041385E+03  0.7546771E-02  0.1146294E+00
         21   -1    0    0  505  501  0.00000000000E+00  0.00000000000E+00  0.42788077467E+03  0.42788077467E+03  0.00000000000E+00 0. -1.
         21   -1    0    0  504  502 -0.00000000000E+00 -0.00000000000E+00 -0.31231416650E+03  0.31231416650E+03  0.00000000000E+00 0. -1.
         21    1    1    2  503  501  0.73220928718E+02  0.18259764436E+03  0.93915595681E+02  0.21799849366E+03  0.00000000000E+00 0. -1.
         21    1    1    2  504  503 -0.85704185262E+02  0.25945584952E+02 -0.47773385702E+02  0.10149225158E+03  0.00000000000E+00 0. -1.
         21    1    1    2  505  506 -0.81021620723E+02 -0.19366695710E+03  0.17900342661E+03  0.27588696967E+03  0.00000000000E+00 0. -1.
         21    1    1    2  506  502  0.93504877267E+02 -0.14876272206E+02 -0.10957902842E+03  0.14481722624E+03  0.00000000000E+00 0. -1.
<scales pt_clust_3="204.13853" pt_clust_4="89.54541" pt_clust_5="14000.00000" pt_clust_6="47.64953"></scales>
<clustering>
<clus scale="   89.545">  2  4  1 -1</clus>
<clus scale="   47.650">  2  6  1 -1</clus>
<clus scale="  204.139">  2  3  1 -1</clus>
<clus scale="  204.139">  1  3  2 -1</clus>
</clustering>
</event>
<event>
 6    0  0.8777103E+002  0.1161905E+03  0.7546771E-02  0.1249517E+00
         21   -1    0    0  505  501  0.00000000000E+00  0.00000000000E+00  0.55941508938E+03  0.55941508938E+03  0.00000000000E+00 0.  1.
         21   -1    0    0  501  502 -0.00000000000E+00 -0.00000000000E+00 -0.57703338058E+02  0.57703338058E+02  0.00000000000E+00 0. -1.
         21    1    1    2  503  506 -0.11758658363E+03 -0.65138685230E+02  0.99063351233E+02  0.16698263539E+03  0.00000000000E+00 0. -1.
         21    1    1    2  504  503  0.66699162927E+02  0.74107393569E+01  0.31659841773E+03  0.32363290238E+03  0.00000000000E+00 0.  1.
         21    1    1    2  505  504  0.32694744326E+02  0.11785079149E+02  0.63060079890E+02  0.72002833783E+02  0.00000000000E+00 0.  1.
         21    1    1    2  506  502  0.18192676376E+02  0.45942866724E+02  0.22989902472E+02  0.54500055892E+02  0.00000000000E+00 0. -1.
<scales pt_clust_3="106.58709" pt_clust_4="33.28579" pt_clust_5="33.28579" pt_clust_6="49.41377"></scales>
<clustering>
<clus scale="   33.286">  4  5 -1 -1</clus>
<clus scale="   49.414">  2  6  1 -1</clus>
<clus scale="  106.587">  2  3  1 -1</clus>
<clus scale="  116.191">  1  3  2 -1</clus>
</clustering>
</event>
<event>
 6    0  0.8777103E+002  0.1212445E+03  0.7546771E-02  0.1241058E+00
         21   -1    0    0  506  501  0.00000000000E+00  0.00000000000E+00  0.12049794565E+04  0.12049794565E+04  0.00000000000E+00 0.  1.
         21   -1    0    0  503  502 -0.00000000000E+00 -0.00000000000E+00 -0.23910597494E+02  0.23910597494E+02  0.00000000000E+00 0.  1.
         21    1    1    2  503  505  0.23724955208E+02  0.34028764063E+02  0.90991303808E+02  0.10000123825E+03  0.00000000000E+00 0.  1.
         21    1    1    2  504  501 -0.21149470347E+02 -0.45935074806E+02  0.36294952692E+03  0.36645557750E+03  0.00000000000E+00 0.  1.
         21    1    1    2  505  504  0.25205534472E+02 -0.72753646171E+02  0.61214246279E+03  0.61696580679E+03  0.00000000000E+00 0.  1.
         21    1    1    2  506  502 -0.27781019333E+02  0.84659956913E+02  0.11498556547E+03  0.14546743143E+03  0.00000000000E+00 0.  1.
<scales pt_clust_3="41.48289" pt_clust_4="38.09652" pt_clust_5="38.09652" pt_clust_6="111.76072"></scales>
<clustering>
<clus scale="   38.097">  4  5 -1 -1</clus>
<clus scale="   41.483">  2  3  1 -1</clus>
<clus scale="  111.761">  2  6  1 -1</clus>
<clus scale="  121.244">  1  3  2 -1</clus>
</clustering>
</event>
<event>
 6    0  0.8777103E+002  0.1577279E+03  0.7546771E-02  0.1191286E+00
         21   -1    0    0  503  501  0.00000000000E+00  0.00000000000E+00  0.69349580190E+02  0.69349580190E+02  0.00000000000E+00 0. -1.
         21   -1    0    0  501  502 -0.00000000000E+00 -0.00000000000E+00 -0.16035188633E+04  0.16035188633E+04  0.00000000000E+00 0. -1.
         21    1    1    2  503  504 -0.53884444481E+02  0.98607753812E+02 -0.62347722222E+02  0.12850782441E+03  0.00000000000E+00 0. -1.
         21    1    1    2  504  505 -0.27970240856E+02  0.36206801661E+02  0.13884236487E+02  0.47812538972E+02  0.00000000000E+00 0. -1.
         21    1    1    2  505  506  0.54973474923E+02 -0.72151441066E+02 -0.47750395080E+03  0.48604314255E+03  0.00000000000E+00 0. -1.
         21    1    1    2  506  502  0.26881210414E+02 -0.62663114407E+02 -0.10082018466E+04  0.10105049376E+04  0.00000000000E+00 0. -1.
<scales pt_clust_3="39.66944" pt_clust_4="39.66944" pt_clust_5="144.95888" pt_clust_6="68.18552"></scales>
<clustering>
<clus scale="   39.669">  3  4 -1 -1</clus>
<clus scale="   68.186">  2  6  1 -1</clus>
<clus scale="  144.959">  2  5  1 -1</clus>
<clus scale="  157.728">  1  3  2 -1</clus>
</clustering>
</event>
<event>
 6    0  0.8777103E+002  0.1016890E+03  0.7546771E-02  0.1276784E+00
         21   -1    0    0  504  501  0.00000000000E+00  0.00000000000E+00  0.16360204333E+03  0.16360204333E+03  0.00000000000E+00 0. -1.
         21   -1    0    0  506  502 -0.00000000000E+00 -0.00000000000E+00 -0.68864875763E+03  0.68864875763E+03  0.00000000000E+00 0.  1.
         21    1    1    2  503  502  0.16164142239E+02 -0.45433806780E+02 -0.21337734654E+03  0.21875877653E+03  0.00000000000E+00 0.  1.
         21    1    1    2  504  503 -0.92249691491E+02 -0.49967115021E+02 -0.30199234368E+03  0.31969687800E+03  0.00000000000E+00 0.  1.
         21    1    1    2  505  501  0.10112300214E+03 -0.19410877900E+02  0.10678998381E+03  0.14834670332E+03  0.00000000000E+00 0. -1.
         21    1    1    2  506  505 -0.25037452893E+02  0.11481179970E+03 -0.11646700789E+03  0.16544844310E+03  0.00000000000E+00 0. -1.
<scales pt_clust_3="48.22355" pt_clust_4="14000.00000" pt_clust_5="101.68898" pt_clust_6="103.25847"></scales>
<clustering>
<clus scale="   48.224">  2  3  1 -1</clus>
<clus scale="  103.258">  2  6  1 -1</clus>
<clus scale="  101.689">  1  5  2 -1</clus>
<clus scale="  101.689">  1  3  2 -1</clus>
</clustering>
</event>
<event>
 6    0  0.8777103E+002  0.1460838E+03  0.7546771E-02  0.1205369E+00
         21   -1    0    0  506  501  0.00000000000E+00  0.00000000000E+00  0.19887105942E+03  0.19887105942E+03  0.00000000000E+00 0.  1.
         21   -1    0    0  504  502 -0.00000000000E+00 -0.00000000000E+00 -0.15452170210E+04  0.15452170210E+04  0.00000000000E+00 0. -1.
         21    1    1    2  503  501 -0.36520948458E+02 -0.16998689676E+03 -0.48150018671E+03  0.51192944294E+03  0.00000000000E+00 0.  1.
         21    1    1    2  504  503  0.19648369427E+02 -0.25939615643E+02 -0.40337420624E+02  0.51826919486E+02  0.00000000000E+00 0.  1.
         21    1    1    2  505  502  0.21201014601E+02  0.14200423647E+03 -0.99302201532E+03  0.10033480997E+04  0.00000000000E+00 0. -1.
         21    1    1    2  506  505 -0.43284355706E+01  0.53922275934E+02  0.16851366106E+03  0.17698361834E+03  0.00000000000E+00 0.  1.
<scales pt_clust_3="14000.00000" pt_clust_4="32.54108" pt_clust_5="146.08381" pt_clust_6="54.01826"></scales>
<clustering>
<clus scale="   32.541">  2  4  1 -1</clus>
<clus scale="   54.018">  1  6  2 -1</clus>
<clus scale="  146.084">  2  5  1 -1</clus>
<clus scale="   54.018">  1  3  2 -1</clus>
</clustering>
</event>
<event>
 6    0  0.8777103E+002  0.1423909E+03  0.7546771E-02  0.1210148E+00
         21   -1    0    0  503  501  0.00000000000E+00  0.00000000000E+00  0.14182421263E+03  0.14182421263E+03  0.00000000000E+00 0.  1.
         21   -1    0    0  506  502 -0.00000000000E+00 -0.00000000000E+00 -0.42287476350E+03  0.42287476350E+03  0.00000000000E+00 0.  1.
         21    1    1    2  503  504  0.83638617003E+01  0.29293585199E+02  0.26822909139E+02  0.40589860446E+02  0.00000000000E+00 0.  1.
         21    1    1    2  504  502  0.51165298087E+02 -0.12675425624E+03 -0.13756598784E+03  0.19393021996E+03  0.00000000000E+00 0.  1.
         21    1    1    2  505  501 -0.10125694454E+03  0.94942783682E+02  0.15553530785E+02  0.13967466954E+03  0.00000000000E+00 0.  1.
         21    1    1    2  506  505  0.41727784754E+02  0.25178873552E+01 -0.18586100296E+03  0.19050422619E+03  0.00000000000E+00 0.  1.
<scales pt_clust_3="30.46421" pt_clust_4="142.39087" pt_clust_5="14000.00000" pt_clust_6="42.02537"></scales>
<clustering>
<clus scale="   30.464">  1  3  2 -1</clus>
<clus scale="   42.025">  2  6  1 -1</clus>
<clus scale="  142.391">  2  4  1 -1</clus>
<clus scale="   30.464">  1  3  2 -1</clus>
</clustering>
</event>
<event>
 6    0  0.8777103E+002  0.1667060E+03  0.7546771E-02  0.1181327E+00
         21   -1    0    0  506  501  0.00000000000E+00  0.00000000000E+00  0.42053276770E+03  0.42053276770E+03  0.00000000000E+00 0.  1.
         21   -1    0    0  503  502 -0.00000000000E+00 -0.00000000000E+00 -0.27565763616E+03  0.27565763616E+03  0.00000000000E+00 0. -1.
         21    1    1    2  503  505 -0.87807202701E+02  0.87504975259E+01  0.22590389882E+01  0.88271055903E+02  0.00000000000E+00 0.  1.
         21    1    1    2  504  502  0.76805665005E+01 -0.19352821303E+03 -0.42517929024E+02  0.19829254809E+03  0.00000000000E+00 0. -1.
         21    1    1    2  505  501 -0.97922157779E+02  0.99228320079E+02  0.15722458813E+03  0.21012991125E+03  0.00000000000E+00 0.  1.
         21    1    1    2  506  504  0.17804879398E+03  0.85549395421E+02  0.27909433445E+02  0.19949688862E+03  0.00000000000E+00 0. -1.
<scales pt_clust_3="88.24214" pt_clust_4="166.70600" pt_clust_5="147.26977" pt_clust_6="14000.00000"></scales>
<clustering>
<clus scale="   88.242">  2  3  1 -1</clus>
<clus scale="  147.270">  1  5  2 -1</clus>
<clus scale="  166.706">  2  4  1 -1</clus>
<clus scale="  147.270">  1  3  2 -1</clus>
</clustering>
</event>
<event>
 6    0  0.8777103E+002  0.7246818E+02  0.7546771E-02  0.1351895E+00
         21   -1    0    0  504  501  0.00000000000E+00  0.00000000000E+00  0.45788273023E+03  0.45788273023E+03  0.00000000000E+00 0. -1.
         21   -1    0    0  505  502 -0.00000000000E+00 -0.00000000000E+00 -0.73637816313E+03  0.73637816313E+03  0.00000000000E+00 0.  1.
         21    1    1    2  503  501 -0.31812616934E+02 -0.99763562643E+01  0.21211507349E+03  0.21471929276E+03  0.00000000000E+00 0. -1.
         21    1    1    2  504  502  0.95963650694E+01 -0.41655417718E+02 -0.17157763738E+03  0.17682236763E+03  0.00000000000E+00 0.  1.
         21    1    1    2  505  506 -0.58307281824E+02  0.93953519219E+02 -0.54658498821E+03  0.55765773753E+03  0.00000000000E+00 0.  1.
         21    1    1    2  506  503  0.80523533689E+02 -0.42321745237E+02  0.22755211919E+03  0.24506149544E+03  0.00000000000E+00 0. -1.
<scales pt_clust_3="33.34022" pt_clust_4="42.77567" pt_clust_5="72.46818" pt_clust_6="14000.00000"></scales>
<clustering>
<clus scale="   33.340">  1  3  2 -1</clus>
<clus scale="   42.776">  2  4  1 -1</clus>
<clus scale="   72.468">  2  5  1 -1</clus>
<clus scale="   33.340">  1  3  2 -1</clus>
</clustering>
</event>
<event>
 6    0  0.8777103E+002  0.5841663E+02  0.7546771E-02  0.1404599E+00
         21   -1    0    0  503  501  0.00000000000E+00  0.00000000000E+00  0.75367165185E+03  0.75367165185E+03  0.00000000000E+00 0. -1.
         21   -1    0    0  504  502 -0.00000000000E+00 -0.00000000000E+00 -0.86084232890E+02  0.86084232890E+02  0.00000000000E+00 0. -1.
         21    1    1    2  503  502  0.59772495116E+02 -0.28456900555E+02  0.17108458146E+02  0.68375768381E+02  0.00000000000E+00 0. -1.
         21    1    1    2  504  505 -0.34866592994E+02 -0.60906079741E+01 -0.30036046402E+01  0.35521774355E+02  0.00000000000E+00 0. -1.
         21    1    1    2  505  506 -0.46174320397E+02  0.87563389035E+02  0.21500548963E+02  0.10129999294E+03  0.00000000000E+00 0. -1.
         21    1    1    2  506  501  0.21268418275E+02 -0.53015880506E+02  0.63198201649E+03  0.63455834906E+03  0.00000000000E+00 0. -1.
<scales pt_clust_3="55.68599" pt_clust_4="35.39456" pt_clust_5="14000.00000" pt_clust_6="58.41663"></scales>
<clustering>
<clus scale="   35.395">  2  4  1 -1</clus>
<clus scale="   55.686">  2  3  1 -1</clus>
<clus scale="   58.417">  1  6  2 -1</clus>
<clus scale="   58.417">  1  3  2 -1</clus>
</clustering>
</event>
<event>
 6    0  0.8777103E+002  0.7714384E+02  0.7546771E-02  0.1337358E+00
         21   -1    0    0  505  501  0.00000000000E+00  0.00000000000E+00  0.66102267834E+03  0.66102267834E+03  0.00000000000E+00 0. -1.
         21   -1    0    0  504  502 -0.00000000000E+00 -0.00000000000E+00 -0.22627006279E+03  0.22627006279E+03  0.00000000000E+00 0. -1.
         21    1    1    2  503  501 -0.74451280496E+02  0.68184554423E+02  0.46931286520E+03  0.48004863511E+03  0.00000000000E+00 0. -1.
         21    1    1    2  504  503  0.54701896212E+02 -0.16157614032E+02 -0.61389996457E+01  0.57367702212E+02  0.00000000000E+00 0. -1.
         21    1    1    2  505  506  0.34569508635E+02  0.34542424184E+01  0.15439364410E+03  0.15825416284E+03  0.00000000000E+00 0. -1.
         21    1    1    2  506  502 -0.14820124351E+02 -0.55481182810E+02 -0.18281489410E+03  0.19162224098E+03  0.00000000000E+00 0. -1.
<scales pt_clust_3="14000.00000" pt_clust_4="77.14384" pt_clust_5="34.74166" pt_clust_6="57.32020"></scales>
<clustering>
<clus scale="   34.742">  1  5  2 -1</clus>
<clus scale="   57.320">  2  6  1 -1</clus>
<clus scale="   77.144">  2  4  1 -1</clus>
<clus scale="   34.742">  1  3  2 -1</clus>
</clustering>
</event>
<event>
 6    0  0.8777103E+002  0.2472122E+03  0.7546771E-02  0.1115079E+00
         21   -1    0    0  504  501  0.00000000000E+00  0.00000000000E+00  0.59523636528E+02  0.59523636528E+02  0.00000000000E+00 0.  1.
         21   -1    0    0  505  502 -0.00000000000E+00 -0.00000000000E+00 -0.13079621440E+04  0.13079621440E+04  0.00000000000E+00 0.  1.
         21    1    1    2  503  506  0.18408078376E+03 -0.58052339062E+01 -0.37243074832E+03  0.41548056271E+03  0.00000000000E+00 0.  1.
         21    1    1    2  504  502 -0.21983077247E+03  0.97142526999E+02 -0.43575941866E+03  0.49764295436E+03  0.00000000000E+00 0.  1.
         21    1    1    2  505  503 -0.20608525748E+00 -0.49679116085E+02 -0.29269943275E+03  0.29688552504E+03  0.00000000000E+00 0.  1.
         21    1    1    2  506  501  0.35956073965E+02 -0.41658177007E+02 -0.14754890771E+03  0.15747673839E+03  0.00000000000E+00 0.  1.
<scales pt_clust_3="46.48595" pt_clust_4="232.12422" pt_clust_5="49.67954" pt_clust_6="46.48595"></scales>
<clustering>
<clus scale="   46.486">  3  6 -1 -1</clus>
<clus scale="   49.680">  2  5  1 -1</clus>
<clus scale="  232.124">  1  4  2 -1</clus>
<clus scale="  232.124">  1  3  2 -1</clus>
</clustering>
</event>
<event>
 6    0  0.8777103E+002  0.1750448E+03  0.7546771E-02  0.1172687E+00
         21   -1    0    0  504  501  0.00000000000E+00  0.00000000000E+00  0.23326357641E+03  0.23326357641E+03  0.00000000000E+00 0.  1.
         21   -1    0    0  505  502 -0.00000000000E+00 -0.00000000000E+00 -0.56288402730E+03  0.56288402730E+03  0.00000000000E+00 0.  1.
         21    1    1    2  503  501 -0.10811942974E+03 -0.10647163367E+03 -0.21459392327E+03  0.26282422218E+03  0.00000000000E+00 0.  1.
         21    1    1    2  504  506 -0.36616766387E+00 -0.44267076709E+02  0.13948069882E+03  0.14633719112E+03  0.00000000000E+00 0. -1.
         21    1    1    2  505  503  0.53183701261E+01 -0.32225027892E+02 -0.14784609622E+03  0.15141071842E+03  0.00000000000E+00 0.  1.
         21    1    1    2  506  502  0.10316722727E+03  0.18296373827E+03 -0.10666113022E+03  0.23557547199E+03  0.00000000000E+00 0.  1.
<scales pt_clust_3="14000.00000" pt_clust_4="44.53557" pt_clust_5="32.66095" pt_clust_6="175.04479"></scales>
<clustering>
<clus scale="   32.661">  2  5  1 -1</clus>
<clus scale="   44.536">  1  4  2 -1</clus>
<clus scale="  175.045">  1  6  2 -1</clus>
<clus scale="   44.536">  1  3  2 -1</clus>
</clustering>
</event>
<event>
 6    0  0.8777103E+002  0.9917429E+02  0.7546771E-02  0.1282042E+00
         21   -1    0    0  505  501  0.00000000000E+00  0.00000000000E+00  0.17347266807E+03  0.17347266807E+03  0.00000000000E+00 0. -1.
         21   -1    0    0  506  502 -0.00000000000E+00 -0.00000000000E+00 -0.41462107466E+03  0.41462107466E+03  0.00000000000E+00 0. -1.
         21    1    1    2  503  502  0.15787995703E+02  0.46517975237E+02 -0.27710333115E+03  0.28142394880E+03  0.00000000000E+00 0. -1.
         21    1    1    2  504  503  0.61110887458E+01 -0.51996166967E+02 -0.22457614096E+02  0.56967457515E+02  0.00000000000E+00 0. -1.
         21    1    1    2  505  504  0.84409971493E+02 -0.42375352272E+02  0.88356669942E+02  0.12933528092E+03  0.00000000000E+00 0. -1.
         21    1    1    2  506  501 -0.10630905594E+03  0.47853544002E+02 -0.29944131284E+02  0.12036705549E+03  0.00000000000E+00 0. -1.
<scales pt_clust_3="49.12416" pt_clust_4="39.82466" pt_clust_5="14000.00000" pt_clust_6="99.17429"></scales>
<clustering>
<clus scale="   49.124">  2  3  1 -1</clus>
<clus scale="   39.825">  2  4  1 -1</clus>
<clus scale="   99.174">  2  6  1 -1</clus>
<clus scale="   99.174">  1  3  2 -1</clus>
</clustering>
</event>
<event>
 6    0  0.8777103E+002  0.1211338E+03  0.7546771E-02  0.1241238E+00
         21   -1    0    0  505  501  0.00000000000E+00  0.00000000000E+00  0.30172031769E+03  0.30172031769E+03  0.00000000000E+00 0.  1.
         21   -1    0    0  501  502 -0.00000000000E+00 -0.00000000000E+00 -0.72137857411E+03  0.72137857411E+03  0.00000000000E+00 0. -1.
         21    1    1    2  503  504  0.71422241103E+01  0.10795845448E+03 -0.43560096269E+03  0.44883653813E+03  0.00000000000E+00 0. -1.
         21    1    1    2  504  502 -0.65335379676E+02 -0.11909424744E+02 -0.26228877078E+03  0.27056597256E+03  0.00000000000E+00 0.  1.
         21    1    1    2  505  506 -0.37033238195E+00 -0.37113277561E+02  0.10948067894E+03  0.11560082862E+03  0.00000000000E+00 0.  1.
         21    1    1    2  506  503  0.58563487948E+02 -0.58935752173E+02  0.16875079811E+03  0.18809555249E+03  0.00000000000E+00 0.  1.
<scales pt_clust_3="111.65361" pt_clust_4="66.41194" pt_clust_5="31.39811" pt_clust_6="31.39811"></scales>
<clustering>
<clus scale="   31.398">  5  6 -1 -1</clus>
<clus scale="   66.412">  2  4  1 -1</clus>
<clus scale="  111.654">  2  3  1 -1</clus>
<clus scale="  121.134">  1  3  2 -1</clus>
</clustering>
</event>
<event>
 6    0  0.8777103E+002  0.1005751E+03  0.7546771E-02  0.1279091E+00
         21   -1    0    0  504  501  0.00000000000E+00  0.00000000000E+00  0.61034107042E+03  0.61034107042E+03  0.00000000000E+00 0. -1.
         21   -1    0    0  503  502 -0.00000000000E+00 -0.00000000000E+00 -0.14940269284E+03  0.14940269284E+03  0.00000000000E+00 0. -1.
         21    1    1    2  503  505 -0.12598816670E+03  0.47869441596E+01 -0.72520373847E+02  0.14544805810E+03  0.00000000000E+00 0. -1.
         21    1    1    2  504  502  0.34585364913E+02 -0.88567745626E+01  0.49537753420E+03  0.49666235141E+03  0.00000000000E+00 0. -1.
         21    1    1    2  505  506  0.67059176279E+02  0.30766473168E+02  0.16682958196E+02  0.75642779487E+02  0.00000000000E+00 0. -1.
         21    1    1    2  506  501  0.24343625506E+02 -0.26696642765E+02  0.21398259031E+02  0.41990574266E+02  0.00000000000E+00 0.  1.
<scales pt_clust_3="100.57505" pt_clust_4="35.70140" pt_clust_5="14000.00000" pt_clust_6="44.73512"></scales>
<clustering>
<clus scale="   35.701">  1  4  2 -1</clus>
<clus scale="   44.735">  1  6  2 -1</clus>
<clus scale="  100.575">  2  3  1 -1</clus>
<clus scale="   35.701">  1  3  2 -1</clus>
</clustering>
</event>
<event>
 6    0  0.8777103E+002  0.7922444E+02  0.7546771E-02  0.1331267E+00
         21   -1    0    0  504  501  0.00000000000E+00  0.00000000000E+00  0.13774959570E+03  0.13774959570E+03  0.00000000000E+00 0. -1.
         21   -1    0    0  503  502 -0.00000000000E+00 -0.00000000000E+00 -0.54511936340E+03  0.54511936340E+03  0.00000000000E+00 0. -1.
         21    1    1    2  503  505  0.45918611152E+02  0.65377479120E+02 -0.44479437516E+03  0.45191234748E+03  0.00000000000E+00 0. -1.
         21    1    1    2  504  506 -0.68090108690E+02 -0.21324054444E+02  0.44611309953E+02  0.84149552436E+02  0.00000000000E+00 0.  1.
         21    1    1    2  505  501  0.70646946490E+01  0.50442687606E+02 -0.24707947877E+01  0.50994896512E+02  0.00000000000E+00 0. -1.
         21    1    1    2  506  502  0.15106802889E+02 -0.94496112282E+02 -0.47159076966E+01  0.95812162669E+02  0.00000000000E+00 0. -1.
<scales pt_clust_3="79.22444" pt_clust_4="64.49588" pt_clust_5="50.93500" pt_clust_6="14000.00000"></scales>
<clustering>
<clus scale="   50.935">  1  5  2 -1</clus>
<clus scale="   64.496">  1  4  2 -1</clus>
<clus scale="   79.224">  2  3  1 -1</clus>
<clus scale="   50.935">  1  3  2 -1</clus>
</clustering>
</event>
<event>
 6    0  0.8777103E+002  0.9227901E+02  0.7546771E-02  0.1297425E+00
         21   -1    0    0  504  501  0.00000000000E+00  0.00000000000E+00  0.41234485126E+03  0.41234485126E+03  0.00000000000E+00 0. -1.
         21   -1    0    0  503  502 -0.00000000000E+00 -0.00000000000E+00 -0.16306813130E+03  0.16306813130E+03  0.00000000000E+00 0. -1.
         21    1    1    2  503  505  0.25735529965E+02 -0.26808177485E+02 -0.88007545871E+01  0.38189647340E+02  0.00000000000E+00 0. -1.
         21    1    1    2  504  506 -0.87831809370E+02 -0.35272914268E+02  0.49587344046E+02  0.10685274871E+03  0.00000000000E+00 0. -1.
         21    1    1    2  505  501  0.20897261732E+02 -0.31016869443E+02  0.29464049013E+03  0.29700464670E+03  0.00000000000E+00 0. -1.
         21    1    1    2  506  502  0.41199017673E+02  0.93097961196E+02 -0.86150359631E+02  0.13336593981E+03  0.00000000000E+00 0. -1.
<scales pt_clust_3="37.16175" pt_clust_4="14000.00000" pt_clust_5="37.70988" pt_clust_6="92.27901"></scales>
<clustering>
<clus scale="   37.162">  2  3  1 -1</clus>
<clus scale="   37.710">  1  5  2 -1</clus>
<clus scale="   92.279">  2  6  1 -1</clus>
<clus scale="   37.710">  1  3  2 -1</clus>
</clustering>
</event>
<event>
 6    0  0.8777103E+002  0.7214287E+02  0.7546771E-02  0.1352954E+00
         21   -1    0    0  503  501  0.00000000000E+00  0.00000000000E+00  0.86703910357E+03  0.86703910357E+03  0.00000000000E+00 0.  1.
         21   -1    0    0  506  502 -0.00000000000E+00 -0.00000000000E+00 -0.51256228749E+02  0.51256228749E+02  0.00000000000E+00 0. -1.
         21    1    1    2  503  504 -0.33699488439E+02  0.57149661824E+02  0.23890567618E+03  0.24794689245E+03  0.00000000000E+00 0.  1.
         21    1    1    2  504  502 -0.68096977170E+02  0.38358574301E+01  0.14829152535E+03  0.16322465682E+03  0.00000000000E+00 0.  1.
         21    1    1    2  505  501  0.29117560629E+02 -0.53474819396E+02  0.42975651920E+03  0.43404844711E+03  0.00000000000E+00 0.  1.
         21    1    1    2  506  505  0.72678904981E+02 -0.75106998576E+01 -0.11708459099E+01  0.73075335933E+02  0.00000000000E+00 0. -1.
<scales pt_clust_3="32.32400" pt_clust_4="14000.00000" pt_clust_5="60.88833" pt_clust_6="72.14287"></scales>
<clustering>
<clus scale="   60.888">  1  5  2 -1</clus>
<clus scale="   32.324">  1  3  2 -1</clus>
<clus scale="   72.143">  2  6  1 -1</clus>
<clus scale="   60.888">  1  3  2 -1</clus>
</clustering>
</event>
<event>
 6    0  0.8777103E+002  0.8923776E+02  0.7546771E-02  0.1304708E+00
         21   -1    0    0  505  501  0.00000000000E+00  0.00000000000E+00  0.33133172981E+03  0.33133172981E+03  0.00000000000E+00 0. -1.
         21   -1    0    0  504  502 -0.00000000000E+00 -0.00000000000E+00 -0.14839609320E+03  0.14839609320E+03  0.00000000000E+00 0.  1.
         21    1    1    2  503  501  0.53516002825E+02  0.73387754770E+02  0.22537175531E+03  0.24298591153E+03  0.00000000000E+00 0. -1.
         21    1    1    2  504  503  0.11922974034E+02 -0.97288941494E+02 -0.56275573639E+02  0.11302316415E+03  0.00000000000E+00 0.  1.
         21    1    1    2  505  506 -0.72962299206E+02 -0.56749270498E+01  0.40107682332E+02  0.83452549898E+02  0.00000000000E+00 0.  1.
         21    1    1    2  506  502  0.75233223476E+01  0.29576113774E+02 -0.26268227390E+02  0.40266197428E+02  0.00000000000E+00 0.  1.
<scales pt_clust_3="14000.00000" pt_clust_4="89.23776" pt_clust_5="71.54615" pt_clust_6="30.51798"></scales>
<clustering>
<clus scale="   30.518">  2  6  1 -1</clus>
<clus scale="   71.546">  2  5  1 -1</clus>
<clus scale="   89.238">  2  4  1 -1</clus>
<clus scale="   89.238">  1  3  2 -1</clus>
</clustering>
</event>
<event>
 6    0  0.8777103E+002  0.1144837E+03  0.7546771E-02  0.1252485E+00
         21   -1    0    0  503  501  0.00000000000E+00  0.00000000000E+00  0.20102352845E+04  0.20102352845E+04  0.00000000000E+00 0. -1.
         21   -1    0    0  504  502 -0.00000000000E+00 -0.00000000000E+00 -0.25677856458E+03  0.25677856458E+03  0.00000000000E+00 0. -1.
         21    1    1    2  503  505 -0.99210248317E+02  0.57995833114E+02  0.17724943523E+04  0.17762157580E+04  0.00000000000E+00 0. -1.
         21    1    1    2  504  501 -0.26855424793E+02 -0.60012851556E+02  0.17737319181E+03  0.18916660743E+03  0.00000000000E+00 0. -1.
         21    1    1    2  505  506  0.10513899923E+03 -0.20786813865E+02 -0.45293145877E+01  0.10726982558E+03  0.00000000000E+00 0.  1.
         21    1    1    2  506  502  0.20926673877E+02  0.22803832308E+02 -0.19188150954E+03  0.19436165813E+03  0.00000000000E+00 0. -1.
<scales pt_clust_3="114.48373" pt_clust_4="63.03426" pt_clust_5="14000.00000" pt_clust_6="30.95061"></scales>
<clustering>
<clus scale="   30.951">  2  6  1 -1</clus>
<clus scale="   63.034">  2  4  1 -1</clus>
<clus scale="  114.484">  1  3  2 -1</clus>
<clus scale="  114.484">  1  3  2 -1</clus>
</clustering>
</event>
<event>
 6    0  0.8777103E+002  0.1508094E+03  0.7546771E-02  0.1199482E+00
         21   -1    0    0  503  501  0.00000000000E+00  0.00000000000E+00  0.17615275946E+04  0.17615275946E+04  0.00000000000E+00 0. -1.
         21   -1    0    0  506  502 -0.00000000000E+00 -0.00000000000E+00 -0.93848074921E+02  0.93848074921E+02  0.00000000000E+00 0.  1.
         21    1    1    2  503  504 -0.21401353476E+02  0.17144648122E+03  0.43912912477E+03  0.47189649508E+03  0.00000000000E+00 0. -1.
         21    1    1    2  504  505 -0.60836598704E+02 -0.13070960547E+03  0.14232977935E+03  0.20259283994E+03  0.00000000000E+00 0.  1.
         21    1    1    2  505  502  0.57491932490E+02 -0.19065852853E+02 -0.27612331115E+02  0.66567784071E+02  0.00000000000E+00 0.  1.
         21    1    1    2  506  501  0.24746019690E+02 -0.21671022895E+02  0.11138329467E+04  0.11143185505E+04  0.00000000000E+00 0. -1.
<scales pt_clust_3="14000.00000" pt_clust_4="150.80936" pt_clust_5="61.48388" pt_clust_6="32.89375"></scales>
<clustering>
<clus scale="   32.894">  1  6  2 -1</clus>
<clus scale="   61.484">  2  5  1 -1</clus>
<clus scale="  150.809">  2  4  1 -1</clus>
<clus scale="   32.894">  1  3  2 -1</clus>
</clustering>
</event>
<event>
 6    0  0.8777103E+002  0.6375684E+02  0.7546771E-02  0.1382710E+00
         21   -1    0    0  506  501  0.00000000000E+00  0.00000000000E+00  0.60869688196E+03  0.60869688196E+03  0.00000000000E+00 0.  1.
         21   -1    0    0  503  502 -0.00000000000E+00 -0.00000000000E+00 -0.13871729363E+04  0.13871729363E+04  0.00000000000E+00 0.  1.
         21    1    1    2  503  504 -0.45946598252E+02  0.43833731665E+02 -0.13464611861E+04  0.13479577929E+04  0.00000000000E+00 0.  1.
         21    1    1    2  504  501  0.62763792063E+01  0.36102901452E+02  0.29468932055E+01  0.36762706766E+02  0.00000000000E+00 0. -1.
         21    1    1    2  505  502  0.82320851195E+02 -0.79248297394E+02  0.12620972387E+03  0.17025248774E+03  0.00000000000E+00 0.  1.
         21    1    1    2  506  505 -0.42650632150E+02 -0.68833572393E+00  0.43882851461E+03  0.44089683086E+03  0.00000000000E+00 0.  1.
<scales pt_clust_3="63.75684" pt_clust_4="36.64441" pt_clust_5="14000.00000" pt_clust_6="46.17128"></scales>
<clustering>
<clus scale="   36.644">  1  4  2 -1</clus>
<clus scale="   46.171">  1  6  2 -1</clus>
<clus scale="   63.757">  2  3  1 -1</clus>
<clus scale="   36.644">  1  3  2 -1</clus>
</clustering>
</event>
<event>
 6    0  0.8777103E+002  0.1185644E+03  0.7546771E-02  0.1245484E+00
         21   -1    0    0  505  501  0.00000000000E+00  0.00000000000E+00  0.81575585568E+03  0.81575585568E+03  0.00000000000E+00 0. -1.
         21   -1    0    0  506  502 -0.00000000000E+00 -0.00000000000E+00 -0.99685443571E+03  0.99685443571E+03  0.00000000000E+00 0.  1.
         21    1    1    2  503  501 -0.92858878334E+01 -0.38698244563E+02  0.53398876869E+01  0.40153408892E+02  0.00000000000E+00 0. -1.
         21    1    1    2  504  502 -0.10556844942E+02  0.13531794162E+03 -0.69316547689E+03  0.70632908099E+03  0.00000000000E+00 0.  1.
         21    1    1    2  505  504 -0.37428109179E+02 -0.11337158765E+02  0.77648621548E+03  0.77747040931E+03  0.00000000000E+00 0. -1.
         21    1    1    2  506  503  0.57270841954E+02 -0.85282538296E+02 -0.26975920631E+03  0.28865739219E+03  0.00000000000E+00 0.  1.
<scales pt_clust_3="55.06804" pt_clust_4="14000.00000" pt_clust_5="39.10747" pt_clust_6="118.56442"></scales>
<clustering>
<clus scale="   39.107">  1  5  2 -1</clus>
<clus scale="   55.068">  1  3  2 -1</clus>
<clus scale="  118.564">  1  6  2 -1</clus>
<clus scale="   39.107">  1  3  2 -1</clus>
</clustering>
</event>
<event>
 6    0  0.8777103E+002  0.2698112E+03  0.7546771E-02  0.1101388E+00
         21   -1    0    0  506  501  0.00000000000E+00  0.00000000000E+00  0.76280625111E+03  0.76280625111E+03  0.00000000000E+00 0.  1.
         21   -1    0    0  505  502 -0.00000000000E+00 -0.00000000000E+00 -0.26225264817E+03  0.26225264817E+03  0.00000000000E+00 0.  1.
         21    1    1    2  503  504 -0.17941714614E+03 -0.24185562026E+02  0.35041591040E+02  0.18440001855E+03  0.00000000000E+00 0.  1.
         21    1    1    2  504  501 -0.14155084277E+03  0.16607481241E+03  0.17524531296E+03  0.27987212102E+03  0.00000000000E+00 0.  1.
         21    1    1    2  505  503 -0.40275445310E+02 -0.15490264074E+02 -0.37291783417E+02  0.57032770286E+02  0.00000000000E+00 0. -1.
         21    1    1    2  506  502  0.36124343422E+03 -0.12639898631E+03  0.32755848235E+03  0.50375398943E+03  0.00000000000E+00 0.  1.
<scales pt_clust_3="195.64730" pt_clust_4="269.81121" pt_clust_5="43.15159" pt_clust_6="14000.00000"></scales>
<clustering>
<clus scale="   43.152">  2  5  1 -1</clus>
<clus scale="  195.647">  2  3  1 -1</clus>
<clus scale="  269.811">  1  4  2 -1</clus>
<clus scale="  269.811">  1  3  2 -1</clus>
</clustering>
</event>
<event>
 6    0  0.8777103E+002  0.1169298E+03  0.7546771E-02  0.1248250E+00
         21   -1    0    0  506  501  0.00000000000E+00  0.00000000000E+00  0.33803964756E+03  0.33803964756E+03  0.00000000000E+00 0. -1.
         21   -1    0    0  504  502 -0.00000000000E+00 -0.00000000000E+00 -0.46854392607E+03  0.46854392607E+03  0.00000000000E+00 0.  1.
         21    1    1    2  503  505  0.82396843543E+02 -0.90421156985E+01 -0.78370123940E+02  0.11407399357E+03  0.00000000000E+00 0. -1.
         21    1    1    2  504  503  0.50621982880E+02 -0.28199948931E+02 -0.34832696148E+03  0.35311399627E+03  0.00000000000E+00 0.  1.
         21    1    1    2  505  501 -0.34186707673E+02  0.49092014788E+02  0.15911445883E+03  0.16998872876E+03  0.00000000000E+00 0. -1.
         21    1    1    2  506  502 -0.98832118750E+02 -0.11849950158E+02  0.13707834809E+03  0.16940685503E+03  0.00000000000E+00 0. -1.
<scales pt_clust_3="14000.00000" pt_clust_4="57.94672" pt_clust_5="57.43184" pt_clust_6="116.92984"></scales>
<clustering>
<clus scale="   57.947">  2  4  1 -1</clus>
<clus scale="   57.432">  1  5  2 -1</clus>
<clus scale="  116.930">  1  6  2 -1</clus>
<clus scale="   57.432">  1  3  2 -1</clus>
</clustering>
</event>
<event>
 6    0  0.1036790E+003  0.1570666E+03  0.7546771E-02  0.1192049E+00
         21   -1    0    0  503  501  0.00000000000E+00  0.00000000000E+00  0.13419803661E+04  0.13419803661E+04  0.00000000000E+00 0. -1.
         21   -1    0    0  505  502 -0.00000000000E+00 -0.00000000000E+00 -0.10003981076E+04  0.10003981076E+04  0.00000000000E+00 0. -1.
         21    1    1    2  503  506 -0.12930836757E+03 -0.21615968186E+01  0.32985858046E+03  0.35430496684E+03  0.00000000000E+00 0. -1.
         21    1    1    2  504  501 -0.29359902908E+02 -0.12285767394E+02  0.98981823124E+03  0.99032978086E+03  0.00000000000E+00 0. -1.
         21    1    1    2  505  504  0.36328333636E+02 -0.21678088400E+02 -0.53451911115E+03  0.53619060746E+03  0.00000000000E+00 0. -1.
         21    1    1    2  506  502  0.12233993684E+03  0.36125452612E+02 -0.44357544204E+03  0.46155311857E+03  0.00000000000E+00 0. -1.
<scales pt_clust_3="14000.00000" pt_clust_4="31.82678" pt_clust_5="42.25981" pt_clust_6="157.06662"></scales>
<clustering>
<clus scale="   31.827">  1  4  2 -1</clus>
<clus scale="   42.260">  2  5  1 -1</clus>
<clus scale="  157.067">  2  6  1 -1</clus>
<clus scale="   31.827">  1  3  2 -1</clus>
</clustering>
</event>
<event>
 6    0  0.8777103E+002  0.7418256E+02  0.7546771E-02  0.1346421E+00
         21   -1    0    0  503  501  0.00000000000E+00  0.00000000000E+00  0.44490454035E+03  0.44490454035E+03  0.00000000000E+00 0. -1.
         21   -1    0    0  504  502 -0.00000000000E+00 -0.00000000000E+00 -0.96606995327E+03  0.96606995327E+03  0.00000000000E+00 0.  1.
         21    1    1    2  503  506 -0.71567759573E+01 -0.49655483701E+02  0.25044689057E+03  0.25542226117E+03  0.00000000000E+00 0. -1.
         21    1    1    2  504  505 -0.43173031925E+02  0.11201498810E+03 -0.90905046340E+03  0.91694275353E+03  0.00000000000E+00 0.  1.
         21    1    1    2  505  501  0.33471760181E+02 -0.21004036467E+02  0.17552285985E+03  0.17991609880E+03  0.00000000000E+00 0. -1.
         21    1    1    2  506  502  0.16858047701E+02 -0.41355467937E+02 -0.38084699939E+02  0.58693380121E+02  0.00000000000E+00 0.  1.
<scales pt_clust_3="14000.00000" pt_clust_4="74.18256" pt_clust_5="39.51618" pt_clust_6="45.90549"></scales>
<clustering>
<clus scale="   39.516">  1  5  2 -1</clus>
<clus scale="   45.905">  2  6  1 -1</clus>
<clus scale="   74.183">  2  4  1 -1</clus>
<clus scale="   39.516">  1  3  2 -1</clus>
</clustering>
</event>
<event>
 6    0  0.8777103E+002  0.5986397E+02  0.7546771E-02  0.1398403E+00
         21   -1    0    0  505  501  0.00000000000E+00  0.00000000000E+00  0.37599311142E+03  0.37599311142E+03  0.00000000000E+00 0. -1.
         21   -1    0    0  504  502 -0.00000000000E+00 -0.00000000000E+00 -0.16326275095E+03  0.16326275095E+03  0.00000000000E+00 0. -1.
         21    1    1    2  503  501 -0.37447559235E+02  0.49198176548E+02  0.93827147978E+02  0.11236687219E+03  0.00000000000E+00 0. -1.
         21    1    1    2  504  503 -0.54053845421E+02  0.96523988664E+01  0.20397422069E+02  0.58575095695E+02  0.00000000000E+00 0. -1.
         21    1    1    2  505  506  0.59839907653E+02  0.13535694024E+02  0.21721675617E+03  0.22571475078E+03  0.00000000000E+00 0. -1.
         21    1    1    2  506  502  0.31661497003E+02 -0.72386269439E+02 -0.11871096574E+03  0.14259914370E+03  0.00000000000E+00 0. -1.
<scales pt_clust_3="59.58638" pt_clust_4="54.90890" pt_clust_5="59.86397" pt_clust_6="14000.00000"></scales>
<clustering>
<clus scale="   54.909">  2  4  1 -1</clus>
<clus scale="   59.864">  1  5  2 -1</clus>
<clus scale="   59.586">  1  3  2 -1</clus>
<clus scale="   59.864">  1  3  2 -1</clus>
</clustering>
</event>
<event>
 6    0  0.8777103E+002  0.9464714E+02  0.7546771E-02  0.1291973E+00
         21   -1    0    0  504  501  0.00000000000E+00  0.00000000000E+00  0.29003037127E+03  0.29003037127E+03  0.00000000000E+00 0. -1.
         21   -1    0    0  506  502 -0.00000000000E+00 -0.00000000000E+00 -0.51579322876E+03  0.51579322876E+03  0.00000000000E+00 0. -1.
         21    1    1    2  503  501  0.52806057251E+02 -0.80790128957E+02  0.25907936350E+03  0.27647358140E+03  0.00000000000E+00 0. -1.
         21    1    1    2  504  505 -0.45922139433E+02  0.53929589483E+02 -0.10218551815E+03  0.12433472415E+03  0.00000000000E+00 0. -1.
         21    1    1    2  505  502 -0.18724900410E+02 -0.25409844490E+02 -0.32410490114E+03  0.32563824873E+03  0.00000000000E+00 0. -1.
         21    1    1    2  506  503  0.11840982592E+02  0.52270383964E+02 -0.58551801703E+02  0.79377045745E+02  0.00000000000E+00 0. -1.
<scales pt_clust_3="94.64714" pt_clust_4="14000.00000" pt_clust_5="31.56394" pt_clust_6="43.38995"></scales>
<clustering>
<clus scale="   31.564">  2  5  1 -1</clus>
<clus scale="   43.390">  2  6  1 -1</clus>
<clus scale="   94.647">  1  3  2 -1</clus>
<clus scale="   94.647">  1  3  2 -1</clus>
</clustering>
</event>
<event>
 6    0  0.8777103E+002  0.1613047E+03  0.7546771E-02  0.1187232E+00
         21   -1    0    0  506  501  0.00000000000E+00  0.00000000000E+00  0.51492600271E+03  0.51492600271E+03  0.00000000000E+00 0. -1.
         21   -1    0    0  505  502 -0.00000000000E+00 -0.00000000000E+00 -0.72829396905E+03  0.72829396905E+03  0.00000000000E+00 0.  1.
         21    1    1    2  503  502 -0.11660474255E+03 -0.74549420042E+02 -0.22489393163E+03  0.26406734462E+03  0.00000000000E+00 0.  1.
         21    1    1    2  504  503  0.15332573948E+03  0.51354593522E+02 -0.15649648763E+02  0.16245303373E+03  0.00000000000E+00 0. -1.
         21    1    1    2  505  501 -0.37789535157E+02 -0.13621722939E+02 -0.39293227059E+03  0.39498021416E+03  0.00000000000E+00 0.  1.
         21    1    1    2  506  504  0.10685382283E+01  0.36816549459E+02  0.42010788465E+03  0.42171937925E+03  0.00000000000E+00 0. -1.
<scales pt_clust_3="14000.00000" pt_clust_4="161.30470" pt_clust_5="40.02445" pt_clust_6="36.83205"></scales>
<clustering>
<clus scale="   36.832">  1  6  2 -1</clus>
<clus scale="   40.024">  2  5  1 -1</clus>
<clus scale="  161.305">  1  4  2 -1</clus>
<clus scale="   36.832">  1  3  2 -1</clus>
</clustering>
</event>
<event>
 6    0  0.8777103E+002  0.9090576E+02  0.7546771E-02  0.1300673E+00
         21   -1    0    0  504  501  0.00000000000E+00  0.00000000000E+00  0.46330115122E+03  0.46330115122E+03  0.00000000000E+00 0.  1.
         21   -1    0    0  503  502 -0.00000000000E+00 -0.00000000000E+00 -0.35419420950E+03  0.35419420950E+03  0.00000000000E+00 0.  1.
         21    1    1    2  503  505  0.53686158212E+02  0.13654835820E+01 -0.16253545954E+03  0.17117781321E+03  0.00000000000E+00 0. -1.
         21    1    1    2  504  506  0.45303724710E+02  0.70408596206E+02  0.19973290777E+03  0.21657107918E+03  0.00000000000E+00 0. -1.
         21    1    1    2  505  501 -0.35116223314E+02  0.20732951417E+02  0.23120766404E+03  0.23477646459E+03  0.00000000000E+00 0.  1.
         21    1    1    2  506  502 -0.63873659609E+02 -0.92507031205E+02 -0.15929817055E+03  0.19497000373E+03  0.00000000000E+00 0.  1.
<scales pt_clust_3="53.05631" pt_clust_4="90.90576" pt_clust_5="40.77995" pt_clust_6="14000.00000"></scales>
<clustering>
<clus scale="   40.780">  1  5  2 -1</clus>
<clus scale="   53.056">  2  3  1 -1</clus>
<clus scale="   90.906">  1  4  2 -1</clus>
<clus scale="   40.780">  1  3  2 -1</clus>
</clustering>
</event>
<event>
 6    0  0.8777103E+002  0.1832522E+03  0.7546771E-02  0.1164692E+00
         21   -1    0    0  506  501  0.00000000000E+00  0.00000000000E+00  0.26256740463E+03  0.26256740463E+03  0.00000000000E+00 0.  1.
         21   -1    0    0  503  502 -0.00000000000E+00 -0.00000000000E+00 -0.28210747139E+03  0.28210747139E+03  0.00000000000E+00 0.  1.
         21    1    1    2  503  504 -0.46517314726E+02  0.11835816381E+03  0.14402079170E+03  0.19213147570E+03  0.00000000000E+00 0.  1.
         21    1    1    2  504  501 -0.16768979186E+02  0.47168445638E+02  0.60873520005E+01  0.50429324616E+02  0.00000000000E+00 0.  1.
         21    1    1    2  505  502  0.65783563917E+02 -0.65160765603E+01 -0.11738032425E+03  0.13471479895E+03  0.00000000000E+00 0.  1.
         21    1    1    2  506  505 -0.24972700045E+01 -0.15901053289E+03 -0.52267886211E+02  0.16739927675E+03  0.00000000000E+00 0.  1.
<scales pt_clust_3="43.91476" pt_clust_4="43.91476" pt_clust_5="66.10550" pt_clust_6="169.35851"></scales>
<clustering>
<clus scale="   43.915">  3  4 -1 -1</clus>
<clus scale="   66.105">  2  5  1 -1</clus>
<clus scale="  169.359">  2  6  1 -1</clus>
<clus scale="  183.252">  1  3  2 -1</clus>
</clustering>
</event>
<event>
 6    0  0.8777103E+002  0.8700835E+02  0.7546771E-02  0.1310263E+00
         21   -1    0    0  505  501  0.00000000000E+00  0.00000000000E+00  0.41438550704E+03  0.41438550704E+03  0.00000000000E+00 0.  1.
         21   -1    0    0  506  502 -0.00000000000E+00 -0.00000000000E+00 -0.19876107422E+03  0.19876107422E+03  0.00000000000E+00 0.  1.
         21    1    1    2  503  504  0.62400833738E+02 -0.63706867319E+02  0.13797907153E+03  0.16428832331E+03  0.00000000000E+00 0.  1.
         21    1    1    2  504  502 -0.87670889163E+02  0.10396903407E+02 -0.15196788535E+03  0.17575129754E+03  0.00000000000E+00 0.  1.
         21    1    1    2  505  503  0.57247258262E+01 -0.32821043847E+02  0.15175115682E+03  0.15536539834E+03  0.00000000000E+00 0.  1.
         21    1    1    2  506  501  0.19545329599E+02  0.86131007759E+02  0.77862089825E+02  0.11774156207E+03  0.00000000000E+00 0.  1.
<scales pt_clust_3="14000.00000" pt_clust_4="87.00835" pt_clust_5="33.31656" pt_clust_6="76.94509"></scales>
<clustering>
<clus scale="   33.317">  1  5  2 -1</clus>
<clus scale="   76.945">  1  6  2 -1</clus>
<clus scale="   87.008">  2  4  1 -1</clus>
<clus scale="   33.317">  1  3  2 -1</clus>
</clustering>
</event>
<event>
 6    0  0.8777103E+002  0.1415163E+03  0.7546771E-02  0.1211303E+00
         21   -1    0    0  505  501  0.00000000000E+00  0.00000000000E+00  0.99033520970E+02  0.99033520970E+02  0.00000000000E+00 0.  1.
         21   -1    0    0  503  502 -0.00000000000E+00 -0.00000000000E+00 -0.64587019803E+03  0.64587019803E+03  0.00000000000E+00 0.  1.
         21    1    1    2  503  504 -0.35345696038E+02 -0.18021542177E+01 -0.15856591354E+03  0.16246758115E+03  0.00000000000E+00 0.  1.
         21    1    1    2  504  501 -0.13458946737E+03  0.45358638709E+02 -0.46908197738E+02  0.14957309199E+03  0.00000000000E+00 0.  1.
         21    1    1    2  505  506  0.15522775115E+03  0.56291000830E+02 -0.20558506988E+03  0.26368457001E+03  0.00000000000E+00 0.  1.
         21    1    1    2  506  502  0.14707412261E+02 -0.99847485321E+02 -0.13577749590E+03  0.16917847586E+03  0.00000000000E+00 0.  1.
<scales pt_clust_3="35.39161" pt_clust_4="141.51633" pt_clust_5="14000.00000" pt_clust_6="100.47828"></scales>
<clustering>
<clus scale="   35.392">  2  3  1 -1</clus>
<clus scale="  100.478">  2  6  1 -1</clus>
<clus scale="  141.516">  1  4  2 -1</clus>
<clus scale="  141.516">  1  3  2 -1</clus>
</clustering>
</event>
<event>
 6    0  0.8777103E+002  0.9413903E+02  0.7546771E-02  0.1293127E+00
         21   -1    0    0  506  501  0.00000000000E+00  0.00000000000E+00  0.41873739556E+03  0.41873739556E+03  0.00000000000E+00 0.  1.
         21   -1    0    0  505  502 -0.00000000000E+00 -0.00000000000E+00 -0.94105609108E+03  0.94105609108E+03  0.00000000000E+00 0. -1.
         21    1    1    2  503  501  0.58598292645E+02 -0.72776016807E+02  0.29358911307E+03  0.30809848399E+03  0.00000000000E+00 0.  1.
         21    1    1    2  504  502  0.56498556369E+02  0.27840831933E+01 -0.84786257032E+03  0.84974747787E+03  0.00000000000E+00 0. -1.
         21    1    1    2  505  503  0.15927534936E+02  0.57180064791E+02 -0.16592234673E+02  0.61632365118E+02  0.00000000000E+00 0. -1.
         21    1    1    2  506  504 -0.13102438395E+03  0.12811868823E+02  0.48546996402E+02  0.14031515967E+03  0.00000000000E+00 0.  1.
<scales pt_clust_3="14000.00000" pt_clust_4="56.56711" pt_clust_5="70.68582" pt_clust_6="94.13903"></scales>
<clustering>
<clus scale="   56.567">  2  4  1 -1</clus>
<clus scale="   70.686">  2  5  1 -1</clus>
<clus scale="   94.139">  2  6  1 -1</clus>
<clus scale="   94.139">  1  3  2 -1</clus>
</clustering>
</event>
<event>
 6    0  0.8777103E+002  0.8236672E+02  0.7546771E-02  0.1322466E+00
         21   -1    0    0  503  501  0.00000000000E+00  0.00000000000E+00  0.12231507747E+03  0.12231507747E+03  0.00000000000E+00 0.  1.
         21   -1    0    0  501  502 -0.00000000000E+00 -0.00000000000E+00 -0.29454325470E+03  0.29454325470E+03  0.00000000000E+00 0. -1.
         21    1    1    2  503  505  0.29760512186E+02  0.15325540319E+02  0.46981196822E+02  0.57687027367E+02  0.00000000000E+00 0. -1.
         21    1    1    2  504  506 -0.84838911909E+02  0.49853614289E+02 -0.85058011093E+01  0.98769289175E+02  0.00000000000E+00 0.  1.
         21    1    1    2  505  504  0.46820000589E+02  0.20588378969E+02 -0.27787665194E+02  0.58207801372E+02  0.00000000000E+00 0.  1.
         21    1    1    2  506  502  0.82583991339E+01 -0.85767533577E+02 -0.18291590775E+03  0.20219421426E+03  0.00000000000E+00 0. -1.
<scales pt_clust_3="33.47477" pt_clust_4="82.36672" pt_clust_5="58.41044" pt_clust_6="14000.00000"></scales>
<clustering>
<clus scale="   33.475">  1  3  2 -1</clus>
<clus scale="   58.410">  1  5  2 -1</clus>
<clus scale="   82.367">  1  4  2 -1</clus>
<clus scale="   33.475">  1  3  2 -1</clus>
</clustering>
</event>
<event>
 6    0  0.8777103E+002  0.8613977E+02  0.7546771E-02  0.1312479E+00
         21   -1    0    0  504  501  0.00000000000E+00  0.00000000000E+00  0.11672412095E+03  0.11672412095E+03  0.00000000000E+00 0.  1.
         21   -1    0    0  501  502 -0.00000000000E+00 -0.00000000000E+00 -0.40820856519E+03  0.40820856519E+03  0.00000000000E+00 0.  1.
         21    1    1    2  503  502  0.91939907764E+02 -0.34160554725E+02 -0.32894114987E+03  0.34325234190E+03  0.00000000000E+00 0.  1.
         21    1    1    2  504  506  0.23454613445E+02  0.19796403154E+02  0.16120661039E+02  0.34668316689E+02  0.00000000000E+00 0. -1.
         21    1    1    2  505  503 -0.50028848793E+02  0.27572967657E+02 -0.28425171456E+02  0.63805521934E+02  0.00000000000E+00 0.  1.
         21    1    1    2  506  505 -0.65365672416E+02 -0.13208816087E+02  0.49761216051E+02  0.83206505609E+02  0.00000000000E+00 0.  1.
<scales pt_clust_3="86.13977" pt_clust_4="30.69229" pt_clust_5="14000.00000" pt_clust_6="48.30673"></scales>
<clustering>
<clus scale="   30.692">  1  4  2 -1</clus>
<clus scale="   48.307">  1  6  2 -1</clus>
<clus scale="   86.140">  2  3  1 -1</clus>
<clus scale="   30.692">  1  3  2 -1</clus>
</clustering>
</event>
<event>
 6    0  0.8777103E+002  0.1109960E+03  0.7546771E-02  0.1258737E+00
         21   -1    0    0  504  501  0.00000000000E+00  0.00000000000E+00  0.11435091725E+04  0.11435091725E+04  0.00000000000E+00 0.  1.
         21   -1    0    0  505  502 -0.00000000000E+00 -0.00000000000E+00 -0.46874477419E+03  0.46874477419E+03  0.00000000000E+00 0.  1.
         21    1    1    2  503  501  0.55057078682E+02  0.98544671959E+02  0.74579971509E+03  0.75429407349E+03  0.00000000000E+00 0.  1.
         21    1    1    2  504  502 -0.13272137047E+03 -0.33370475607E+02  0.37348625878E+03  0.39776945121E+03  0.00000000000E+00 0.  1.
         21    1    1    2  505  506  0.34229292948E+02 -0.90437853764E+01 -0.26156118214E+03  0.26394637060E+03  0.00000000000E+00 0.  1.
         21    1    1    2  506  503  0.43434998844E+02 -0.56130410976E+02 -0.18296039340E+03  0.19624405141E+03  0.00000000000E+00 0.  1.
<scales pt_clust_3="14000.00000" pt_clust_4="110.99597" pt_clust_5="35.40388" pt_clust_6="98.84612"></scales>
<clustering>
<clus scale="   35.404">  2  5  1 -1</clus>
<clus scale="   98.846">  2  6  1 -1</clus>
<clus scale="  110.996">  2  4  1 -1</clus>
<clus scale="  110.996">  1  3  2 -1</clus>
</clustering>
</event>
<event>
 6    0  0.8777103E+002  0.1830054E+03  0.7546771E-02  0.1164926E+00
         21   -1    0    0  504  501  0.00000000000E+00  0.00000000000E+00  0.12812739458E+04  0.12812739458E+04  0.00000000000E+00 0. -1.
         21   -1    0    0  505  502 -0.00000000000E+00 -0.00000000000E+00 -0.96635849081E+02  0.96635849081E+02  0.00000000000E+00 0.  1.
         21    1    1    2  503  506  0.10313704184E+03  0.15899912155E+02  0.30842323497E+02  0.10881776291E+03  0.00000000000E+00 0.  1.
         21    1    1    2  504  503 -0.12930153344E+03 -0.77814651041E+02  0.53940130620E+03  0.56011407374E+03  0.00000000000E+00 0. -1.
         21    1    1    2  505  501 -0.30324094566E+02  0.10038663673E+02  0.62991846604E+03  0.63072783301E+03  0.00000000000E+00 0. -1.
         21    1    1    2  506  502  0.56488586163E+02  0.51876075213E+02 -0.15523999044E+02  0.78250125192E+02  0.00000000000E+00 0.  1.
<scales pt_clust_3="59.27049" pt_clust_4="169.72084" pt_clust_5="31.94253" pt_clust_6="59.27049"></scales>
<clustering>
<clus scale="   31.943">  1  5  2 -1</clus>
<clus scale="   59.270">  3  6 -1 -1</clus>
<clus scale="  169.721">  1  4  2 -1</clus>
<clus scale="   31.943">  1  3  2 -1</clus>
</clustering>
</event>
<event>
 6    0  0.8777103E+002  0.1106077E+03  0.7546771E-02  0.1259449E+00
         21   -1    0    0  505  501  0.00000000000E+00  0.00000000000E+00  0.11226692903E+04  0.11226692903E+04  0.00000000000E+00 0. -1.
         21   -1    0    0  504  502 -0.00000000000E+00 -0.00000000000E+00 -0.48549621443E+02  0.48549621443E+02  0.00000000000E+00 0. -1.
         21    1    1    2  503  502  0.10083575459E+03  0.10053409570E+02  0.85550457913E+02  0.13261900805E+03  0.00000000000E+00 0. -1.
         21    1    1    2  504  501 -0.12832198689E+03 -0.16963307889E+02  0.20211457484E+03  0.24000955709E+03  0.00000000000E+00 0. -1.
         21    1    1    2  505  506 -0.30035232437E+02 -0.21651685831E+02  0.60452909117E+03  0.60566189640E+03  0.00000000000E+00 0. -1.
         21    1    1    2  506  503  0.57521464736E+02  0.28561584149E+02  0.18192554489E+03  0.19292845015E+03  0.00000000000E+00 0. -1.
<scales pt_clust_3="110.60768" pt_clust_4="14000.00000" pt_clust_5="37.02581" pt_clust_6="51.04024"></scales>
<clustering>
<clus scale="   37.026">  1  5  2 -1</clus>
<clus scale="   51.040">  1  6  2 -1</clus>
<clus scale="  110.608">  2  3  1 -1</clus>
<clus scale="   37.026">  1  3  2 -1</clus>
</clustering>
</event>
<event>
 6    0  0.8777103E+002  0.2439294E+03  0.7546771E-02  0.1117203E+00
         21   -1    0    0  504  501  0.00000000000E+00  0.00000000000E+00  0.23541328998E+03  0.23541328998E+03  0.00000000000E+00 0.  1.
         21   -1    0    0  505  502 -0.00000000000E+00 -0.00000000000E+00 -0.45432985594E+03  0.45432985594E+03  0.00000000000E+00 0.  1.
         21    1    1    2  503  502  0.10155951764E+03  0.31174243944E+02 -0.37165524401E+02  0.11254974594E+03  0.00000000000E+00 0.  1.
         21    1    1    2  504  503 -0.22529043737E+03  0.13365316399E+03 -0.53414369207E+02  0.26734255974E+03  0.00000000000E+00 0.  1.
         21    1    1    2  505  506 -0.36393328497E+02  0.13788546842E+01 -0.58168763644E+02  0.68629298869E+02  0.00000000000E+00 0.  1.
         21    1    1    2  506  501  0.16012424823E+03 -0.16620626261E+03 -0.70167908706E+02  0.24122154136E+03  0.00000000000E+00 0.  1.
<scales pt_clust_3="99.67833" pt_clust_4="243.92942" pt_clust_5="36.41944" pt_clust_6="14000.00000"></scales>
<clustering>
<clus scale="   36.419">  2  5  1 -1</clus>
<clus scale="   99.678">  2  3  1 -1</clus>
<clus scale="  243.929">  2  4  1 -1</clus>
<clus scale="  243.929">  1  3  2 -1</clus>
</clustering>
</event>
<event>
 6    0  0.8777103E+002  0.1951274E+03  0.7546771E-02  0.1153916E+00
         21   -1    0    0  506  501  0.00000000000E+00  0.00000000000E+00  0.25704791025E+04  0.25704791025E+04  0.00000000000E+00 0.  1.
         21   -1    0    0  503  502 -0.00000000000E+00 -0.00000000000E+00 -0.30700725782E+03  0.30700725782E+03  0.00000000000E+00 0. -1.
         21    1    1    2  503  501 -0.10662548370E+03  0.10416224404E+03 -0.25155956717E+03  0.29240551071E+03  0.00000000000E+00 0. -1.
         21    1    1    2  504  502 -0.76901052486E+02 -0.26007329514E+02  0.28550647654E+02  0.86054009456E+02  0.00000000000E+00 0.  1.
         21    1    1    2  505  504  0.14978261021E+03 -0.64472664997E+02  0.10955624008E+04  0.11076319465E+04  0.00000000000E+00 0. -1.
         21    1    1    2  506  505  0.33743925971E+02 -0.13682249528E+02  0.13909183634E+04  0.13913948937E+04  0.00000000000E+00 0.  1.
<scales pt_clust_3="195.12739" pt_clust_4="79.84792" pt_clust_5="14000.00000" pt_clust_6="36.41231"></scales>
<clustering>
<clus scale="   36.412">  1  6  2 -1</clus>
<clus scale="   79.848">  2  4  1 -1</clus>
<clus scale="  195.127">  2  3  1 -1</clus>
<clus scale="   36.412">  1  3  2 -1</clus>
</clustering>
</event>
<event>
 6    0  0.8777103E+002  0.1946073E+03  0.7546771E-02  0.1154370E+00
         21   -1    0    0  506  501  0.00000000000E+00  0.00000000000E+00  0.23736943723E+03  0.23736943723E+03  0.00000000000E+00 0.  1.
         21   -1    0    0  505  502 -0.00000000000E+00 -0.00000000000E+00 -0.47136802060E+03  0.47136802060E+03  0.00000000000E+00 0.  1.
         21    1    1    2  503  504  0.77433213560E+02 -0.41771319350E+02 -0.13058018421E+03  0.15745453372E+03  0.00000000000E+00 0.  1.
         21    1    1    2  504  501  0.36464233652E+02 -0.68012741240E+02 -0.69318443539E+02  0.10373244392E+03  0.00000000000E+00 0.  1.
         21    1    1    2  505  503  0.35871571676E+02 -0.98000067667E+01 -0.19425922589E+03  0.19778639142E+03  0.00000000000E+00 0.  1.
         21    1    1    2  506  502 -0.14976901889E+03  0.11958406736E+03  0.16015927026E+03  0.24976408876E+03  0.00000000000E+00 0.  1.
<scales pt_clust_3="50.86984" pt_clust_4="50.86984" pt_clust_5="37.18615" pt_clust_6="186.11287"></scales>
<clustering>
<clus scale="   37.186">  2  5  1 -1</clus>
<clus scale="   50.870">  3  4 -1 -1</clus>
<clus scale="  186.113">  1  6  2 -1</clus>
<clus scale="  186.113">  1  3  2 -1</clus>
</clustering>
</event>
<event>
 6    0  0.8777103E+002  0.1704863E+03  0.7546771E-02  0.1177342E+00
         21   -1    0    0  503  501  0.00000000000E+00  0.00000000000E+00  0.76549506447E+02  0.76549506447E+02  0.00000000000E+00 0.  1.
         21   -1    0    0  504  502 -0.00000000000E+00 -0.00000000000E+00 -0.16092039789E+04  0.16092039789E+04  0.00000000000E+00 0.  1.
         21    1    1    2  503  506  0.17061978975E+03 -0.12319526217E+03 -0.16813426381E+03  0.26936465236E+03  0.00000000000E+00 0.  1.
         21    1    1    2  504  505 -0.14517098704E+03 -0.47853919759E+02 -0.57609042713E+03  0.59602415501E+03  0.00000000000E+00 0.  1.
         21    1    1    2  505  501  0.22525288452E+02  0.10701735346E+03 -0.21335626525E+03  0.23975195199E+03  0.00000000000E+00 0.  1.
         21    1    1    2  506  502 -0.47974091162E+02  0.64031828471E+02 -0.57507351626E+03  0.58061272600E+03  0.00000000000E+00 0.  1.
<scales pt_clust_3="14000.00000" pt_clust_4="170.48631" pt_clust_5="121.67482" pt_clust_6="80.00993"></scales>
<clustering>
<clus scale="   80.010">  2  6  1 -1</clus>
<clus scale="  121.675">  1  5  2 -1</clus>
<clus scale="  170.486">  2  4  1 -1</clus>
<clus scale="  121.675">  1  3  2 -1</clus>
</clustering>
</event>
<event>
 6    0  0.8777103E+002  0.1312812E+03  0.7546771E-02  0.1225567E+00
         21   -1    0    0  505  501  0.00000000000E+00  0.00000000000E+00  0.18265443255E+03  0.18265443255E+03  0.00000000000E+00 0. -1.
         21   -1    0    0  503  502 -0.00000000000E+00 -0.00000000000E+00 -0.66102170843E+03  0.66102170843E+03  0.00000000000E+00 0. -1.
         21    1    1    2  503  504  0.10413960088E+03 -0.79477816455E+02 -0.45148627986E+03  0.47010811595E+03  0.00000000000E+00 0. -1.
         21    1    1    2  504  506 -0.21189729033E+02  0.17666781423E+03 -0.86329404904E+02  0.19777079500E+03  0.00000000000E+00 0. -1.
         21    1    1    2  505  502 -0.36997017922E+02 -0.10176204141E+03  0.10952313326E+02  0.10883127113E+03  0.00000000000E+00 0. -1.
         21    1    1    2  506  501 -0.45952853923E+02  0.45720436379E+01  0.48496095566E+02  0.66965958904E+02  0.00000000000E+00 0. -1.
<scales pt_clust_3="131.28122" pt_clust_4="14000.00000" pt_clust_5="115.75196" pt_clust_6="46.17974"></scales>
<clustering>
<clus scale="   46.180">  1  6  2 -1</clus>
<clus scale="  115.752">  1  5  2 -1</clus>
<clus scale="  131.281">  2  3  1 -1</clus>
<clus scale="   46.180">  1  3  2 -1</clus>
</clustering>
</event>
<event>
 6    0  0.8777103E+002  0.1073918E+03  0.7546771E-02  0.1265478E+00
         21   -1    0    0  506  501  0.00000000000E+00  0.00000000000E+00  0.44599374304E+03  0.44599374304E+03  0.00000000000E+00 0.  1.
         21   -1    0    0  503  502 -0.00000000000E+00 -0.00000000000E+00 -0.24075010756E+03  0.24075010756E+03  0.00000000000E+00 0.  1.
         21    1    1    2  503  501 -0.86073660224E+02 -0.18203917978E+02  0.36647007448E+02  0.95305093090E+02  0.00000000000E+00 0.  1.
         21    1    1    2  504  502  0.80546999562E+02  0.83162081769E+02 -0.17723906916E+03  0.21170129574E+03  0.00000000000E+00 0.  1.
         21    1    1    2  505  504 -0.13718999356E+02 -0.89425962338E+02  0.33464214861E+03  0.34665628699E+03  0.00000000000E+00 0.  1.
         21    1    1    2  506  505  0.19245660018E+02  0.24467798547E+02  0.11193548574E+02  0.33081174782E+02  0.00000000000E+00 0.  1.
<scales pt_clust_3="107.39180" pt_clust_4="14000.00000" pt_clust_5="69.78334" pt_clust_6="31.12987"></scales>
<clustering>
<clus scale="   31.130">  1  6  2 -1</clus>
<clus scale="   69.783">  1  5  2 -1</clus>
<clus scale="  107.392">  1  3  2 -1</clus>
<clus scale="   31.130">  1  3  2 -1</clus>
</clustering>
</event>
<event>
 6    0  0.8777103E+002  0.1175327E+03  0.7546771E-02  0.1247224E+00
         21   -1    0    0  506  501  0.00000000000E+00  0.00000000000E+00  0.19392209424E+03  0.19392209424E+03  0.00000000000E+00 0.  1.
         21   -1    0    0  501  502 -0.00000000000E+00 -0.00000000000E+00 -0.15175528950E+04  0.15175528950E+04  0.00000000000E+00 0.  1.
         21    1    1    2  503  505 -0.16899781962E+02  0.11120102434E+03 -0.53605210422E+03  0.54772541377E+03  0.00000000000E+00 0.  1.
         21    1    1    2  504  503 -0.67465855970E+02 -0.74354257603E+02 -0.57269171658E+02  0.11558527314E+03  0.00000000000E+00 0. -1.
         21    1    1    2  505  502  0.38093430049E+02  0.20185429205E+02 -0.88019641395E+03  0.88125154643E+03  0.00000000000E+00 0.  1.
         21    1    1    2  506  504  0.46272207884E+02 -0.57032195946E+02  0.14988688902E+03  0.16691275595E+03  0.00000000000E+00 0.  1.
<scales pt_clust_3="117.53273" pt_clust_4="14000.00000" pt_clust_5="43.11103" pt_clust_6="73.55588"></scales>
<clustering>
<clus scale="   43.111">  2  5  1 -1</clus>
<clus scale="   73.556">  1  6  2 -1</clus>
<clus scale="  117.533">  2  3  1 -1</clus>
<clus scale="   73.556">  1  3  2 -1</clus>
</clustering>
</event>
<event>
 6    0  0.8777103E+002  0.1521796E+03  0.7546771E-02  0.1197820E+00
         21   -1    0    0  504  501  0.00000000000E+00  0.00000000000E+00  0.29919760668E+03  0.29919760668E+03  0.00000000000E+00 0. -1.
         21   -1    0    0  505  502 -0.00000000000E+00 -0.00000000000E+00 -0.39219430428E+03  0.39219430428E+03  0.00000000000E+00 0.  1.
         21    1    1    2  503  502 -0.47662578104E+02 -0.62441695314E+01 -0.15515027539E+03  0.16242634934E+03  0.00000000000E+00 0.  1.
         21    1    1    2  504  503 -0.12874364108E+03  0.45732896776E+02 -0.57678909945E+02  0.14830131361E+03  0.00000000000E+00 0.  1.
         21    1    1    2  505  506  0.20277506847E+02 -0.82950824613E+02 -0.84317936799E+02  0.12000637922E+03  0.00000000000E+00 0.  1.
         21    1    1    2  506  501  0.15612871233E+03  0.43462097368E+02  0.20415042454E+03  0.26065786879E+03  0.00000000000E+00 0. -1.
<scales pt_clust_3="48.06986" pt_clust_4="152.17960" pt_clust_5="85.68590" pt_clust_6="14000.00000"></scales>
<clustering>
<clus scale="   48.070">  2  3  1 -1</clus>
<clus scale="   85.686">  2  5  1 -1</clus>
<clus scale="  152.180">  2  4  1 -1</clus>
<clus scale="  152.180">  1  3  2 -1</clus>
</clustering>
</event>
<event>
 6    0  0.8777103E+002  0.8733963E+02  0.7546771E-02  0.1309425E+00
         21   -1    0    0  504  501  0.00000000000E+00  0.00000000000E+00  0.13931897663E+04  0.13931897663E+04  0.00000000000E+00 0. -1.
         21   -1    0    0  503  502 -0.00000000000E+00 -0.00000000000E+00 -0.30560057946E+02  0.30560057946E+02  0.00000000000E+00 0. -1.
         21    1    1    2  503  501  0.13409195725E+03  0.16339826735E+02  0.91930357953E+03  0.92917528717E+03  0.00000000000E+00 0. -1.
         21    1    1    2  504  506 -0.42239249882E+02 -0.35892360774E+02  0.26872472693E+03  0.27438184097E+03  0.00000000000E+00 0. -1.
         21    1    1    2  505  502 -0.37625665101E+02 -0.23384463244E+02  0.15889531571E+02  0.47063797223E+02  0.00000000000E+00 0.  1.
         21    1    1    2  506  505 -0.54227042263E+02  0.42936997283E+02  0.15871187031E+03  0.17312889888E+03  0.00000000000E+00 0. -1.
<scales pt_clust_3="14000.00000" pt_clust_4="63.71841" pt_clust_5="44.30038" pt_clust_6="87.33963"></scales>
<clustering>
<clus scale="   44.300">  2  5  1 -1</clus>
<clus scale="   63.718">  1  4  2 -1</clus>
<clus scale="   87.340">  2  6  1 -1</clus>
<clus scale="   63.718">  1  3  2 -1</clus>
</clustering>
</event>
<event>
 6    0  0.8777103E+002  0.8028868E+02  0.7546771E-02  0.1328234E+00
         21   -1    0    0  505  501  0.00000000000E+00  0.00000000000E+00  0.18927128230E+02  0.18927128230E+02  0.00000000000E+00 0.  1.
         21   -1    0    0  506  502 -0.00000000000E+00 -0.00000000000E+00 -0.17665567388E+04  0.17665567388E+04  0.00000000000E+00 0.  1.
         21    1    1    2  503  502 -0.65128900928E+02 -0.49421514853E+01 -0.99898175455E+03  0.10011147509E+04  0.00000000000E+00 0.  1.
         21    1    1    2  504  503  0.18855067503E+02  0.78100174942E+02 -0.34866159083E+03  0.35779890416E+03  0.00000000000E+00 0.  1.
         21    1    1    2  505  504 -0.11424935997E+02 -0.87247178213E+02 -0.21601236731E+03  0.23324652645E+03  0.00000000000E+00 0.  1.
         21    1    1    2  506  501  0.57698769422E+02  0.14089154756E+02 -0.18397389792E+03  0.19332368554E+03  0.00000000000E+00 0.  1.
<scales pt_clust_3="60.93544" pt_clust_4="80.28868" pt_clust_5="14000.00000" pt_clust_6="59.39404"></scales>
<clustering>
<clus scale="   59.394">  1  6  2 -1</clus>
<clus scale="   60.935">  2  3  1 -1</clus>
<clus scale="   80.289">  2  4  1 -1</clus>
<clus scale="   59.394">  1  3  2 -1</clus>
</clustering>
</event>
<event>
 6    0  0.8777103E+002  0.7256191E+02  0.7546771E-02  0.1351592E+00
         21   -1    0    0  504  501  0.00000000000E+00  0.00000000000E+00  0.21153090162E+04  0.21153090162E+04  0.00000000000E+00 0. -1.
         21   -1    0    0  503  502 -0.00000000000E+00 -0.00000000000E+00 -0.23055577172E+02  0.23055577172E+02  0.00000000000E+00 0.  1.
         21    1    1    2  503  506 -0.36755944588E+02  0.61075187583E+02  0.94677826958E+02  0.11851189357E+03  0.00000000000E+00 0.  1.
         21    1    1    2  504  505 -0.31415937301E+02  0.41886056398E+02  0.67602284630E+03  0.67804741100E+03  0.00000000000E+00 0.  1.
         21    1    1    2  505  502  0.46300254850E+01 -0.80101420714E+02  0.16695084805E+03  0.18523029018E+03  0.00000000000E+00 0. -1.
         21    1    1    2  506  501  0.63541856404E+02 -0.22859823267E+02  0.11546019177E+04  0.11565749986E+04  0.00000000000E+00 0. -1.
<scales pt_clust_3="72.56191" pt_clust_4="52.35841" pt_clust_5="14000.00000" pt_clust_6="39.79244"></scales>
<clustering>
<clus scale="   52.358">  1  4  2 -1</clus>
<clus scale="   39.792">  1  6  2 -1</clus>
<clus scale="   72.562">  2  3  1 -1</clus>
<clus scale="   52.358">  1  3  2 -1</clus>
</clustering>
</event>
<event>
 6    0  0.8777103E+002  0.7925545E+02  0.7546771E-02  0.1331178E+00
         21   -1    0    0  503  501  0.00000000000E+00  0.00000000000E+00  0.37345536454E+02  0.37345536454E+02  0.00000000000E+00 0. -1.
         21   -1    0    0  505  502 -0.00000000000E+00 -0.00000000000E+00 -0.97316095562E+03  0.97316095562E+03  0.00000000000E+00 0.  1.
         21    1    1    2  503  504  0.13590801398E+02  0.29070811910E+02 -0.64411923568E+01  0.32730886739E+02  0.00000000000E+00 0. -1.
         21    1    1    2  504  502 -0.47614894606E+02 -0.81589773598E+02 -0.21740614841E+03  0.23704325072E+03  0.00000000000E+00 0. -1.
         21    1    1    2  505  506 -0.43791026051E+01  0.78492786507E+02 -0.67973567854E+03  0.68426667810E+03  0.00000000000E+00 0.  1.
         21    1    1    2  506  501  0.38403195813E+02 -0.25973824818E+02 -0.32232399859E+02  0.56465676522E+02  0.00000000000E+00 0. -1.
<scales pt_clust_3="32.09084" pt_clust_4="14000.00000" pt_clust_5="79.25545" pt_clust_6="46.62757"></scales>
<clustering>
<clus scale="   32.091">  1  3  2 -1</clus>
<clus scale="   46.628">  1  6  2 -1</clus>
<clus scale="   79.255">  2  5  1 -1</clus>
<clus scale="   32.091">  1  3  2 -1</clus>
</clustering>
</event>
<event>
 6    0  0.8777103E+002  0.8764433E+02  0.7546771E-02  0.1308659E+00
         21   -1    0    0  504  501  0.00000000000E+00  0.00000000000E+00  0.43694027613E+02  0.43694027613E+02  0.00000000000E+00 0.  1.
         21   -1    0    0  505  502 -0.00000000000E+00 -0.00000000000E+00 -0.88849064203E+03  0.88849064203E+03  0.00000000000E+00 0.  1.
         21    1    1    2  503  501 -0.75091772018E+02  0.11444001509E+03 -0.12725184982E+03  0.18689121050E+03  0.00000000000E+00 0.  1.
         21    1    1    2  504  502 -0.66216979297E+01 -0.56745637879E+02 -0.11075685899E+03  0.12462341720E+03  0.00000000000E+00 0. -1.
         21    1    1    2  505  506  0.12943795843E+02 -0.59363667894E+02 -0.32290557470E+03  0.32857205768E+03  0.00000000000E+00 0.  1.
         21    1    1    2  506  503  0.68769674105E+02  0.16692906811E+01 -0.28388233091E+03  0.29209798426E+03  0.00000000000E+00 0.  1.
<scales pt_clust_3="87.64433" pt_clust_4="57.13068" pt_clust_5="64.93859" pt_clust_6="14000.00000"></scales>
<clustering>
<clus scale="   57.131">  1  4  2 -1</clus>
<clus scale="   64.939">  2  5  1 -1</clus>
<clus scale="   87.644">  1  3  2 -1</clus>
<clus scale="   57.131">  1  3  2 -1</clus>
</clustering>
</event>
<event>
 6    0  0.8777103E+002  0.7440330E+02  0.7546771E-02  0.1345729E+00
         21   -1    0    0  506  501  0.00000000000E+00  0.00000000000E+00  0.88411046798E+03  0.88411046798E+03  0.00000000000E+00 0. -1.
         21   -1    0    0  505  502 -0.00000000000E+00 -0.00000000000E+00 -0.73347858627E+02  0.73347858627E+02  0.00000000000E+00 0. -1.
         21    1    1    2  503  502 -0.23094175904E+02  0.68950179027E+02 -0.34780983535E+02  0.80605117482E+02  0.00000000000E+00 0. -1.
         21    1    1    2  504  501 -0.31591163557E+01 -0.34604433474E+02  0.29477376292E+03  0.29681478760E+03  0.00000000000E+00 0. -1.
         21    1    1    2  505  504  0.56133500267E+02 -0.92658161928E+02  0.42033268216E+03  0.43406919784E+03  0.00000000000E+00 0. -1.
         21    1    1    2  506  503 -0.29880208007E+02  0.58312416376E+02  0.13043714781E+03  0.14596922368E+03  0.00000000000E+00 0. -1.
<scales pt_clust_3="74.40330" pt_clust_4="34.74834" pt_clust_5="14000.00000" pt_clust_6="58.78859"></scales>
<clustering>
<clus scale="   34.748">  1  4  2 -1</clus>
<clus scale="   58.789">  1  6  2 -1</clus>
<clus scale="   74.403">  2  3  1 -1</clus>
<clus scale="   34.748">  1  3  2 -1</clus>
</clustering>
</event>
<event>
 6    0  0.8777103E+002  0.7659785E+02  0.7546771E-02  0.1338993E+00
         21   -1    0    0  503  501  0.00000000000E+00  0.00000000000E+00  0.41482408795E+03  0.41482408795E+03  0.00000000000E+00 0. -1.
         21   -1    0    0  505  502 -0.00000000000E+00 -0.00000000000E+00 -0.88161536278E+02  0.88161536278E+02  0.00000000000E+00 0. -1.
         21    1    1    2  503  506 -0.21441387692E+02  0.55004185629E+02  0.26983465438E+03  0.27621718673E+03  0.00000000000E+00 0. -1.
         21    1    1    2  504  502 -0.65705845628E+02  0.32513999619E+02  0.19140289350E+01  0.73335406371E+02  0.00000000000E+00 0. -1.
         21    1    1    2  505  501  0.32783767985E+02  0.69392800848E+01  0.62974922687E+01  0.34096736797E+02  0.00000000000E+00 0. -1.
         21    1    1    2  506  504  0.54363465335E+02 -0.94457465333E+02  0.48616376095E+02  0.11933629433E+03  0.00000000000E+00 0. -1.
<scales pt_clust_3="58.81886" pt_clust_4="76.59785" pt_clust_5="33.51013" pt_clust_6="14000.00000"></scales>
<clustering>
<clus scale="   33.510">  2  5  1 -1</clus>
<clus scale="   58.819">  1  3  2 -1</clus>
<clus scale="   76.598">  2  4  1 -1</clus>
<clus scale="   58.819">  1  3  2 -1</clus>
</clustering>
</event>
<event>
 6    0  0.8777103E+002  0.1241408E+03  0.7546771E-02  0.1236418E+00
         21   -1    0    0  506  501  0.00000000000E+00  0.00000000000E+00  0.10096859904E+03  0.10096859904E+03  0.00000000000E+00 0. -1.
         21   -1    0    0  504  502 -0.00000000000E+00 -0.00000000000E+00 -0.30192223113E+03  0.30192223113E+03  0.00000000000E+00 0.  1.
         21    1    1    2  503  505 -0.58995112912E+02  0.86540291169E+02 -0.60916669077E+02  0.12116305507E+03  0.00000000000E+00 0. -1.
         21    1    1    2  504  503 -0.33010229870E+02 -0.43993962514E+01 -0.56718706961E+02  0.65772651481E+02  0.00000000000E+00 0.  1.
         21    1    1    2  505  501 -0.33482145134E+02  0.40596000895E+01  0.12613931229E+02  0.36008966337E+02  0.00000000000E+00 0. -1.
         21    1    1    2  506  502  0.12548748792E+03 -0.86200495007E+02 -0.95932187282E+02  0.17994615728E+03  0.00000000000E+00 0.  1.
<scales pt_clust_3="124.14083" pt_clust_4="33.30210" pt_clust_5="35.29667" pt_clust_6="14000.00000"></scales>
<clustering>
<clus scale="   33.302">  2  4  1 -1</clus>
<clus scale="   35.297">  1  5  2 -1</clus>
<clus scale="  124.141">  1  3  2 -1</clus>
<clus scale="   35.297">  1  3  2 -1</clus>
</clustering>
</event>
<event>
 6    0  0.8777103E+002  0.9188965E+02  0.7546771E-02  0.1298339E+00
         21   -1    0    0  504  501  0.00000000000E+00  0.00000000000E+00  0.10294031013E+04  0.10294031013E+04  0.00000000000E+00 0.  1.
         21   -1    0    0  505  502 -0.00000000000E+00 -0.00000000000E+00 -0.67381569623E+02  0.67381569623E+02  0.00000000000E+00 0.  1.
         21    1    1    2  503  501 -0.22162300855E+02 -0.60842710921E+02  0.45216088316E+03  0.45677397837E+03  0.00000000000E+00 0.  1.
         21    1    1    2  504  506 -0.11436921058E+03  0.47017169949E+02  0.35531045730E+03  0.37621330607E+03  0.00000000000E+00 0.  1.
         21    1    1    2  505  503  0.74231796450E+02  0.36085763626E+02  0.17588215130E+03  0.19428605994E+03  0.00000000000E+00 0.  1.
         21    1    1    2  506  502  0.62299714985E+02 -0.22260222654E+02 -0.21331960069E+02  0.69511326561E+02  0.00000000000E+00 0.  1.
<scales pt_clust_3="64.75340" pt_clust_4="91.88965" pt_clust_5="14000.00000" pt_clust_6="66.19612"></scales>
<clustering>
<clus scale="   64.753">  1  3  2 -1</clus>
<clus scale="   66.196">  2  6  1 -1</clus>
<clus scale="   91.890">  2  4  1 -1</clus>
<clus scale="   64.753">  1  3  2 -1</clus>
</clustering>
</event>
<event>
 6    0  0.8777103E+002  0.1054606E+03  0.7546771E-02  0.1269215E+00
         21   -1    0    0  503  501  0.00000000000E+00  0.00000000000E+00  0.41147116010E+03  0.41147116010E+03  0.00000000000E+00 0. -1.
         21   -1    0    0  506  502 -0.00000000000E+00 -0.00000000000E+00 -0.23160457551E+03  0.23160457551E+03  0.00000000000E+00 0. -1.
         21    1    1    2  503  505  0.80563888410E+02 -0.71132645588E+01  0.35459426001E+03  0.36370073946E+03  0.00000000000E+00 0. -1.
         21    1    1    2  504  502 -0.48195326572E+02  0.44766607297E+02 -0.72958318704E+02  0.98233165990E+02  0.00000000000E+00 0.  1.
         21    1    1    2  505  504 -0.64666736953E+02 -0.36797212281E+02 -0.12208895623E+03  0.14297389598E+03  0.00000000000E+00 0. -1.
         21    1    1    2  506  501  0.32298175115E+02 -0.85613045719E+00  0.20319599513E+02  0.38167934179E+02  0.00000000000E+00 0. -1.
<scales pt_clust_3="14000.00000" pt_clust_4="64.98087" pt_clust_5="105.46057" pt_clust_6="32.30952"></scales>
<clustering>
<clus scale="   32.310">  1  6  2 -1</clus>
<clus scale="   64.981">  2  4  1 -1</clus>
<clus scale="  105.461">  2  5  1 -1</clus>
<clus scale="   32.310">  1  3  2 -1</clus>
</clustering>
</event>
<event>
 6    0  0.8777103E+002  0.8605999E+02  0.7546771E-02  0.1312684E+00
         21   -1    0    0  506  501  0.00000000000E+00  0.00000000000E+00  0.13771334989E+03  0.13771334989E+03  0.00000000000E+00 0.  1.
         21   -1    0    0  504  502 -0.00000000000E+00 -0.00000000000E+00 -0.44872088665E+03  0.44872088665E+03  0.00000000000E+00 0. -1.
         21    1    1    2  503  501 -0.82791864938E+02  0.50250806209E+02  0.67529775002E+02  0.11806738303E+03  0.00000000000E+00 0.  1.
         21    1    1    2  504  505  0.34137081956E+02 -0.64851535491E+01 -0.19145827946E+03  0.19458589454E+03  0.00000000000E+00 0. -1.
         21    1    1    2  505  503 -0.27027429014E+02 -0.37083859115E+02 -0.19222885704E+03  0.19763002809E+03  0.00000000000E+00 0. -1.
         21    1    1    2  506  502  0.75682211996E+02 -0.66817935450E+01  0.51498247370E+01  0.76150930871E+02  0.00000000000E+00 0. -1.
<scales pt_clust_3="14000.00000" pt_clust_4="34.74763" pt_clust_5="42.03973" pt_clust_6="86.05999"></scales>
<clustering>
<clus scale="   34.748">  2  4  1 -1</clus>
<clus scale="   42.040">  2  5  1 -1</clus>
<clus scale="   86.060">  2  6  1 -1</clus>
<clus scale="   86.060">  1  3  2 -1</clus>
</clustering>
</event>
<event>
 6    0  0.8777103E+002  0.1786423E+03  0.7546771E-02  0.1169124E+00
         21   -1    0    0  505  501  0.00000000000E+00  0.00000000000E+00  0.15650377928E+04  0.15650377928E+04  0.00000000000E+00 0. -1.
         21   -1    0    0  504  502 -0.00000000000E+00 -0.00000000000E+00 -0.15144379890E+03  0.15144379890E+03  0.00000000000E+00 0.  1.
         21    1    1    2  503  501  0.34694736545E+02 -0.24485138365E+02  0.79471643194E+03  0.79585014540E+03  0.00000000000E+00 0.  1.
         21    1    1    2  504  503 -0.72283275309E+02  0.54328044092E+02  0.48951815570E+02  0.10282357955E+03  0.00000000000E+00 0. -1.
         21    1    1    2  505  506 -0.17136869100E+03 -0.80109376537E+02  0.57242783202E+03  0.60287508103E+03  0.00000000000E+00 0. -1.
         21    1    1    2  506  502  0.20895722976E+03  0.50266470809E+02 -0.25020855958E+01  0.21493278575E+03  0.00000000000E+00 0.  1.
<scales pt_clust_3="42.46465" pt_clust_4="86.23901" pt_clust_5="14000.00000" pt_clust_6="178.64231"></scales>
<clustering>
<clus scale="   42.465">  1  3  2 -1</clus>
<clus scale="   86.239">  2  4  1 -1</clus>
<clus scale="  178.642">  2  6  1 -1</clus>
<clus scale="   42.465">  1  3  2 -1</clus>
</clustering>
</event>
<event>
 6    0  0.8777103E+002  0.6464437E+02  0.7546771E-02  0.1379314E+00
         21   -1    0    0  504  501  0.00000000000E+00  0.00000000000E+00  0.37381904886E+03  0.37381904886E+03  0.00000000000E+00 0.  1.
         21   -1    0    0  505  502 -0.00000000000E+00 -0.00000000000E+00 -0.78519150755E+02  0.78519150755E+02  0.00000000000E+00 0.  1.
         21    1    1    2  503  506 -0.43534236374E+02 -0.61600207262E+02  0.12454868909E+02  0.76452200956E+02  0.00000000000E+00 0.  1.
         21    1    1    2  504  502 -0.12016712341E+02 -0.38127662177E+02  0.78937937516E+02  0.88483433352E+02  0.00000000000E+00 0. -1.
         21    1    1    2  505  503 -0.86997199319E+01  0.64706939745E+02 -0.55564309669E+01  0.65525163892E+02  0.00000000000E+00 0.  1.
         21    1    1    2  506  501  0.64250668648E+02  0.35020929694E+02  0.20946352265E+03  0.22187740141E+03  0.00000000000E+00 0.  1.
<scales pt_clust_3="64.64437" pt_clust_4="39.97649" pt_clust_5="14000.00000" pt_clust_6="55.71871"></scales>
<clustering>
<clus scale="   39.976">  1  4  2 -1</clus>
<clus scale="   55.719">  1  6  2 -1</clus>
<clus scale="   64.644">  1  3  2 -1</clus>
<clus scale="   39.976">  1  3  2 -1</clus>
</clustering>
</event>
<event>
 6    0  0.8777103E+002  0.9125185E+02  0.7546771E-02  0.1299848E+00
         21   -1    0    0  503  501  0.00000000000E+00  0.00000000000E+00  0.19269476604E+03  0.19269476604E+03  0.00000000000E+00 0.  1.
         21   -1    0    0  501  502 -0.00000000000E+00 -0.00000000000E+00 -0.80438172191E+03  0.80438172191E+03  0.00000000000E+00 0.  1.
         21    1    1    2  503  506 -0.40518586743E+02 -0.21883745773E+02  0.16804573953E+03  0.17424128321E+03  0.00000000000E+00 0.  1.
         21    1    1    2  504  505 -0.54540741899E+02  0.39337755428E+02 -0.10619603001E+03  0.12569704976E+03  0.00000000000E+00 0.  1.
         21    1    1    2  505  502  0.78022324146E+02 -0.65783878825E+02 -0.59273708884E+03  0.60145844268E+03  0.00000000000E+00 0.  1.
         21    1    1    2  506  504  0.17037004496E+02  0.48329869170E+02 -0.80799576543E+02  0.95679712300E+02  0.00000000000E+00 0.  1.
<scales pt_clust_3="46.05056" pt_clust_4="91.25185" pt_clust_5="14000.00000" pt_clust_6="40.88885"></scales>
<clustering>
<clus scale="   46.051">  1  3  2 -1</clus>
<clus scale="   40.889">  1  6  2 -1</clus>
<clus scale="   91.252">  1  4  2 -1</clus>
<clus scale="   46.051">  1  3  2 -1</clus>
</clustering>
</event>
<event>
 6    0  0.8777103E+002  0.1335727E+03  0.7546771E-02  0.1222249E+00
         21   -1    0    0  504  501  0.00000000000E+00  0.00000000000E+00  0.29529449290E+03  0.29529449290E+03  0.00000000000E+00 0.  1.
         21   -1    0    0  505  502 -0.00000000000E+00 -0.00000000000E+00 -0.34407524072E+03  0.34407524072E+03  0.00000000000E+00 0.  1.
         21    1    1    2  503  502 -0.22200975647E+02 -0.25826469366E+02 -0.77127710346E+01  0.34919574405E+02  0.00000000000E+00 0.  1.
         21    1    1    2  504  503 -0.40795524010E+02 -0.12654403911E+03  0.23630861224E+03  0.27114466404E+03  0.00000000000E+00 0.  1.
         21    1    1    2  505  506 -0.15375426478E+02  0.29833433969E+02 -0.90294829190E+02  0.96330647772E+02  0.00000000000E+00 0.  1.
         21    1    1    2  506  501  0.78371926135E+02  0.12253707451E+03 -0.18708175985E+03  0.23697484741E+03  0.00000000000E+00 0.  1.
<scales pt_clust_3="33.09185" pt_clust_4="133.57266" pt_clust_5="33.56244" pt_clust_6="14000.00000"></scales>
<clustering>
<clus scale="   33.562">  2  5  1 -1</clus>
<clus scale="   33.092">  2  3  1 -1</clus>
<clus scale="  133.573">  1  4  2 -1</clus>
<clus scale="  133.573">  1  3  2 -1</clus>
</clustering>
</event>
<event>
 6    0  0.8777103E+002  0.8476049E+02  0.7546771E-02  0.1316060E+00
         21   -1    0    0  503  501  0.00000000000E+00  0.00000000000E+00  0.42426694177E+02  0.42426694177E+02  0.00000000000E+00 0.  1.
         21   -1    0    0  504  502 -0.00000000000E+00 -0.00000000000E+00 -0.64408450859E+03  0.64408450859E+03  0.00000000000E+00 0.  1.
         21    1    1    2  503  505  0.76242356912E+01 -0.41761935616E+02 -0.47966123983E+02  0.64054174620E+02  0.00000000000E+00 0.  1.
         21    1    1    2  504  506  0.54598507969E+02  0.51291769604E+02 -0.20951863094E+03  0.22250820077E+03  0.00000000000E+00 0.  1.
         21    1    1    2  505  502 -0.67774635454E+02 -0.66650739662E+02 -0.32626409613E+03  0.33982934354E+03  0.00000000000E+00 0.  1.
         21    1    1    2  506  501  0.55518917931E+01  0.57120905674E+02 -0.17908963362E+02  0.60119483831E+02  0.00000000000E+00 0.  1.
<scales pt_clust_3="42.45219" pt_clust_4="14000.00000" pt_clust_5="84.76049" pt_clust_6="33.10680"></scales>
<clustering>
<clus scale="   42.452">  1  3  2 -1</clus>
<clus scale="   33.107">  1  6  2 -1</clus>
<clus scale="   84.760">  1  5  2 -1</clus>
<clus scale="   42.452">  1  3  2 -1</clus>
</clustering>
</event>
<event>
 6    0  0.8777103E+002  0.1084422E+03  0.7546771E-02  0.1263482E+00
         21   -1    0    0  503  501  0.00000000000E+00  0.00000000000E+00  0.59010977130E+03  0.59010977130E+03  0.00000000000E+00 0.  1.
         21   -1    0    0  504  502 -0.00000000000E+00 -0.00000000000E+00 -0.58459474023E+03  0.58459474023E+03  0.00000000000E+00 0. -1.
         21    1    1    2  503  506 -0.44319629313E+02  0.22841690667E+02  0.55582202931E+03  0.55805385102E+03  0.00000000000E+00 0.  1.
         21    1    1    2  504  501  0.80030603629E+02 -0.12123004455E+03 -0.25559822162E+03  0.29399331985E+03  0.00000000000E+00 0. -1.
         21    1    1    2  505  502 -0.37220903162E+02  0.93668465147E+01 -0.12842337520E+03  0.13403617699E+03  0.00000000000E+00 0. -1.
         21    1    1    2  506  505  0.15099288459E+01  0.89021507372E+02 -0.16628540142E+03  0.18862116368E+03  0.00000000000E+00 0. -1.
<scales pt_clust_3="49.95153" pt_clust_4="14000.00000" pt_clust_5="38.38142" pt_clust_6="108.44223"></scales>
<clustering>
<clus scale="   38.381">  2  5  1 -1</clus>
<clus scale="   49.952">  1  3  2 -1</clus>
<clus scale="  108.442">  2  6  1 -1</clus>
<clus scale="   49.952">  1  3  2 -1</clus>
</clustering>
</event>
<event>
 6    0  0.8777103E+002  0.1144270E+03  0.7546771E-02  0.1252585E+00
         21   -1    0    0  503  501  0.00000000000E+00  0.00000000000E+00  0.12360120050E+03  0.12360120050E+03  0.00000000000E+00 0.  1.
         21   -1    0    0  505  502 -0.00000000000E+00 -0.00000000000E+00 -0.38475930441E+03  0.38475930441E+03  0.00000000000E+00 0.  1.
         21    1    1    2  503  502  0.30226366405E+02  0.35339917054E+02 -0.13589441400E+03  0.14363089751E+03  0.00000000000E+00 0.  1.
         21    1    1    2  504  501  0.77784824848E+01 -0.31000288198E+02  0.37478770931E+02  0.49256278063E+02  0.00000000000E+00 0.  1.
         21    1    1    2  505  506 -0.13972956436E+03 -0.19294419068E+02 -0.15905174600E+03  0.21258900176E+03  0.00000000000E+00 0.  1.
         21    1    1    2  506  504  0.10172471547E+03  0.14954790212E+02 -0.36907148487E+01  0.10288432759E+03  0.00000000000E+00 0.  1.
<scales pt_clust_3="45.62840" pt_clust_4="31.96127" pt_clust_5="114.42705" pt_clust_6="14000.00000"></scales>
<clustering>
<clus scale="   31.961">  1  4  2 -1</clus>
<clus scale="   45.628">  2  3  1 -1</clus>
<clus scale="  114.427">  2  5  1 -1</clus>
<clus scale="   31.961">  1  3  2 -1</clus>
</clustering>
</event>
<event>
 6    0  0.8777103E+002  0.1349772E+03  0.7546771E-02  0.1220252E+00
         21   -1    0    0  503  501  0.00000000000E+00  0.00000000000E+00  0.17529713562E+03  0.17529713562E+03  0.00000000000E+00 0. -1.
         21   -1    0    0  504  502 -0.00000000000E+00 -0.00000000000E+00 -0.24598542909E+03  0.24598542909E+03  0.00000000000E+00 0. -1.
         21    1    1    2  503  506 -0.35998839803E+02  0.26015612934E+02  0.97014930869E+02  0.10669876004E+03  0.00000000000E+00 0. -1.
         21    1    1    2  504  501  0.72861310473E+02 -0.12812742734E+03 -0.10187980335E+03  0.17917840978E+03  0.00000000000E+00 0. -1.
         21    1    1    2  505  502  0.29943132634E+01  0.51341244438E+02 -0.42692689436E+02  0.66839771272E+02  0.00000000000E+00 0.  1.
         21    1    1    2  506  505 -0.39856783934E+02  0.50770569965E+02 -0.23130731553E+02  0.68565623619E+02  0.00000000000E+00 0. -1.
<scales pt_clust_3="44.41541" pt_clust_4="126.50144" pt_clust_5="42.02176" pt_clust_6="42.02176"></scales>
<clustering>
<clus scale="   42.022">  5  6 -1 -1</clus>
<clus scale="   44.415">  1  3  2 -1</clus>
<clus scale="  126.501">  1  4  2 -1</clus>
<clus scale="   44.415">  1  3  2 -1</clus>
</clustering>
</event>
<event>
 6    0  0.3256049E+003  0.1763992E+03  0.7546771E-02  0.1171334E+00
         21   -1    0    0  506  501  0.00000000000E+00  0.00000000000E+00  0.60517932278E+03  0.60517932278E+03  0.00000000000E+00 0. -1.
         21   -1    0    0  505  502 -0.00000000000E+00 -0.00000000000E+00 -0.27948221145E+04  0.27948221145E+04  0.00000000000E+00 0.  1.
         21    1    1    2  503  502 -0.36391690786E+02  0.24918822397E+02 -0.20661016342E+04  0.20665723471E+04  0.00000000000E+00 0.  1.
         21    1    1    2  504  503 -0.34627529987E+02  0.38121238819E+02  0.26019375668E+03  0.26524156103E+03  0.00000000000E+00 0.  1.
         21    1    1    2  505  501  0.10410928699E+03 -0.17592029933E+03 -0.70080018501E+03  0.73000520181E+03  0.00000000000E+00 0. -1.
         21    1    1    2  506  504 -0.33090066215E+02  0.11288023812E+03  0.31706527077E+03  0.33818232741E+03  0.00000000000E+00 0. -1.
<scales pt_clust_3="44.10559" pt_clust_4="39.17486" pt_clust_5="166.16680" pt_clust_6="39.17486"></scales>
<clustering>
<clus scale="   39.175">  4  6 -1 -1</clus>
<clus scale="   44.106">  2  3  1 -1</clus>
<clus scale="  166.167">  2  5  1 -1</clus>
<clus scale="  176.399">  1  3  2 -1</clus>
</clustering>
</event>
<event>
 6    0  0.8777103E+002  0.1684614E+03  0.7546771E-02  0.1179462E+00
         21   -1    0    0  504  501  0.00000000000E+00  0.00000000000E+00  0.20246344743E+03  0.20246344743E+03  0.00000000000E+00 0. -1.
         21   -1    0    0  503  502 -0.00000000000E+00 -0.00000000000E+00 -0.25998935931E+04  0.25998935931E+04  0.00000000000E+00 0. -1.
         21    1    1    2  503  506  0.38505075755E+02  0.29149554889E+02 -0.20350148939E+04  0.20355878649E+04  0.00000000000E+00 0. -1.
         21    1    1    2  504  502 -0.87945353493E+02 -0.18285595612E+03  0.26119937347E+02  0.20457990375E+03  0.00000000000E+00 0. -1.
         21    1    1    2  505  501 -0.91356803113E+02  0.12648955129E+03 -0.88002860370E+01  0.15627897202E+03  0.00000000000E+00 0. -1.
         21    1    1    2  506  505  0.14079708085E+03  0.27216849939E+02 -0.37973490308E+03  0.40591029984E+03  0.00000000000E+00 0.  1.
<scales pt_clust_3="48.29428" pt_clust_4="168.46143" pt_clust_5="156.34914" pt_clust_6="14000.00000"></scales>
<clustering>
<clus scale="   48.294">  2  3  1 -1</clus>
<clus scale="  156.349">  1  5  2 -1</clus>
<clus scale="  168.461">  1  4  2 -1</clus>
<clus scale="  156.349">  1  3  2 -1</clus>
</clustering>
</event>
<event>
 6    0  0.8777103E+002  0.8871903E+02  0.7546771E-02  0.1305984E+00
         21   -1    0    0  504  501  0.00000000000E+00  0.00000000000E+00  0.71476807932E+03  0.71476807932E+03  0.00000000000E+00 0.  1.
         21   -1    0    0  506  502 -0.00000000000E+00 -0.00000000000E+00 -0.34465631048E+03  0.34465631048E+03  0.00000000000E+00 0.  1.
         21    1    1    2  503  501 -0.56696464985E+02  0.71946829639E+02  0.59955591925E+03  0.60651309611E+03  0.00000000000E+00 0.  1.
         21    1    1    2  504  502  0.33336161640E+02  0.49995898939E+02 -0.24895934412E+03  0.25610865781E+03  0.00000000000E+00 0.  1.
         21    1    1    2  505  503 -0.20703411878E+02 -0.97477989022E+02  0.72835380073E+02  0.12343250057E+03  0.00000000000E+00 0.  1.
         21    1    1    2  506  505  0.44063715223E+02 -0.24464739556E+02 -0.53320186368E+02  0.73370135308E+02  0.00000000000E+00 0.  1.
<scales pt_clust_3="88.71903" pt_clust_4="78.09727" pt_clust_5="14000.00000" pt_clust_6="50.39975"></scales>
<clustering>
<clus scale="   50.400">  2  6  1 -1</clus>
<clus scale="   78.097">  2  4  1 -1</clus>
<clus scale="   88.719">  1  3  2 -1</clus>
<clus scale="   88.719">  1  3  2 -1</clus>
</clustering>
</event>
<event>
 6    0  0.8777103E+002  0.1272861E+03  0.7546771E-02  0.1231539E+00
         21   -1    0    0  504  501  0.00000000000E+00  0.00000000000E+00  0.55589589426E+03  0.55589589426E+03  0.00000000000E+00 0. -1.
         21   -1    0    0  505  502 -0.00000000000E+00 -0.00000000000E+00 -0.30450012884E+03  0.30450012884E+03  0.00000000000E+00 0.  1.
         21    1    1    2  503  501 -0.21888134370E+02 -0.21907605401E+02  0.22813000282E+03  0.23022235292E+03  0.00000000000E+00 0. -1.
         21    1    1    2  504  506 -0.11713957229E+03  0.30687520684E+02  0.28213583281E+03  0.30702448025E+03  0.00000000000E+00 0. -1.
         21    1    1    2  505  503  0.90710586155E+02  0.39658302231E+01 -0.41005151375E+02  0.99627108205E+02  0.00000000000E+00 0.  1.
         21    1    1    2  506  502  0.48317120500E+02 -0.12745745506E+02 -0.21786491882E+03  0.22352208172E+03  0.00000000000E+00 0.  1.
<scales pt_clust_3="30.96827" pt_clust_4="127.28612" pt_clust_5="14000.00000" pt_clust_6="49.83566"></scales>
<clustering>
<clus scale="   30.968">  1  3  2 -1</clus>
<clus scale="   49.836">  2  6  1 -1</clus>
<clus scale="  127.286">  1  4  2 -1</clus>
<clus scale="   30.968">  1  3  2 -1</clus>
</clustering>
</event>
<event>
 6    0  0.8777103E+002  0.9409856E+02  0.7546771E-02  0.1293219E+00
         21   -1    0    0  504  501  0.00000000000E+00  0.00000000000E+00  0.33650251714E+02  0.33650251714E+02  0.00000000000E+00 0. -1.
         21   -1    0    0  506  502 -0.00000000000E+00 -0.00000000000E+00 -0.25843056496E+04  0.25843056496E+04  0.00000000000E+00 0. -1.
         21    1    1    2  503  502  0.11141512106E+03  0.57381271062E+02 -0.22015894771E+04  0.22051535468E+04  0.00000000000E+00 0. -1.
         21    1    1    2  504  503 -0.48208299834E-01 -0.55354665172E+02 -0.78777376529E+02  0.96280924036E+02  0.00000000000E+00 0. -1.
         21    1    1    2  505  501 -0.77867110811E+02  0.84087165234E+00 -0.47511258948E+02  0.91221235126E+02  0.00000000000E+00 0. -1.
         21    1    1    2  506  505 -0.33499801948E+02 -0.28674775422E+01 -0.22277728535E+03  0.22530019536E+03  0.00000000000E+00 0.  1.
<scales pt_clust_3="14000.00000" pt_clust_4="55.47602" pt_clust_5="94.09856" pt_clust_6="33.62230"></scales>
<clustering>
<clus scale="   33.622">  2  6  1 -1</clus>
<clus scale="   55.476">  1  4  2 -1</clus>
<clus scale="   94.099">  1  5  2 -1</clus>
<clus scale="   55.476">  1  3  2 -1</clus>
</clustering>
</event>
<event>
 6    0  0.8777103E+002  0.1061630E+03  0.7546771E-02  0.1267845E+00
         21   -1    0    0  506  501  0.00000000000E+00  0.00000000000E+00  0.80286727078E+03  0.80286727078E+03  0.00000000000E+00 0.  1.
         21   -1    0    0  504  502 -0.00000000000E+00 -0.00000000000E+00 -0.14465677265E+03  0.14465677265E+03  0.00000000000E+00 0. -1.
         21    1    1    2  503  502  0.39656142578E+02 -0.30104722304E+02 -0.11023806430E+03  0.12096005444E+03  0.00000000000E+00 0. -1.
         21    1    1    2  504  505  0.22124640455E+02  0.23560220731E+02  0.16563249899E+02  0.36317006531E+02  0.00000000000E+00 0. -1.
         21    1    1    2  505  501 -0.25203337837E+02 -0.99776578313E+02  0.17936732908E+03  0.20679268014E+03  0.00000000000E+00 0.  1.
         21    1    1    2  506  503 -0.36577445195E+02  0.10632107989E+03  0.57251798344E+03  0.58345430232E+03  0.00000000000E+00 0.  1.
<scales pt_clust_3="59.46167" pt_clust_4="32.32002" pt_clust_5="14000.00000" pt_clust_6="106.16298"></scales>
<clustering>
<clus scale="   32.320">  2  4  1 -1</clus>
<clus scale="   59.462">  2  3  1 -1</clus>
<clus scale="  106.163">  1  6  2 -1</clus>
<clus scale="  106.163">  1  3  2 -1</clus>
</clustering>
</event>
<event>
 6    0  0.8777103E+002  0.1593124E+03  0.7546771E-02  0.1189475E+00
         21   -1    0    0  506  501  0.00000000000E+00  0.00000000000E+00  0.37940410436E+03  0.37940410436E+03  0.00000000000E+00 0. -1.
         21   -1    0    0  505  502 -0.00000000000E+00 -0.00000000000E+00 -0.36220417600E+03  0.36220417600E+03  0.00000000000E+00 0. -1.
         21    1    1    2  503  502 -0.10323163545E+02  0.34870213741E+02 -0.23603714961E+03  0.23882218387E+03  0.00000000000E+00 0. -1.
         21    1    1    2  504  501  0.13545987415E+03 -0.13447448689E+02  0.42584286797E+02  0.14263110763E+03  0.00000000000E+00 0. -1.
         21    1    1    2  505  504  0.47172032777E+02 -0.11782376398E+02 -0.35023077910E+02  0.59921958047E+02  0.00000000000E+00 0. -1.
         21    1    1    2  506  503 -0.17230874338E+03 -0.96403886540E+01  0.24567586909E+03  0.30023303082E+03  0.00000000000E+00 0. -1.
<scales pt_clust_3="36.36619" pt_clust_4="14000.00000" pt_clust_5="43.26989" pt_clust_6="159.31239"></scales>
<clustering>
<clus scale="   36.366">  2  3  1 -1</clus>
<clus scale="   43.270">  2  5  1 -1</clus>
<clus scale="  159.312">  1  6  2 -1</clus>
<clus scale="  159.312">  1  3  2 -1</clus>
</clustering>
</event>
<event>
 6    0  0.8777103E+002  0.1099109E+03  0.7546771E-02  0.1260735E+00
         21   -1    0    0  503  501  0.00000000000E+00  0.00000000000E+00  0.64960784062E+02  0.64960784062E+02  0.00000000000E+00 0. -1.
         21   -1    0    0  505  502 -0.00000000000E+00 -0.00000000000E+00 -0.28269629331E+04  0.28269629331E+04  0.00000000000E+00 0.  1.
         21    1    1    2  503  504  0.52331639598E+02  0.99413133463E+02  0.78123159283E+01  0.11261706748E+03  0.00000000000E+00 0. -1.
         21    1    1    2  504  502 -0.30050189621E+02 -0.51351999342E+02 -0.90271607237E+03  0.90467472002E+03  0.00000000000E+00 0.  1.
         21    1    1    2  505  506  0.63956088246E+01  0.33408104895E+02 -0.13455979317E+04  0.13460277854E+04  0.00000000000E+00 0.  1.
         21    1    1    2  506  501 -0.28677058802E+02 -0.81469239016E+02 -0.52150046094E+03  0.52860414430E+03  0.00000000000E+00 0.  1.
<scales pt_clust_3="14000.00000" pt_clust_4="40.53121" pt_clust_5="34.01478" pt_clust_6="109.91088"></scales>
<clustering>
<clus scale="   34.015">  2  5  1 -1</clus>
<clus scale="   40.531">  2  4  1 -1</clus>
<clus scale="  109.911">  2  6  1 -1</clus>
<clus scale="  109.911">  1  3  2 -1</clus>
</clustering>
</event>
<event>
 6    0  0.8777103E+002  0.7055354E+02  0.7546771E-02  0.1358221E+00
         21   -1    0    0  503  501  0.00000000000E+00  0.00000000000E+00  0.93862667400E+03  0.93862667400E+03  0.00000000000E+00 0. -1.
         21   -1    0    0  504  502 -0.00000000000E+00 -0.00000000000E+00 -0.31898616950E+02  0.31898616950E+02  0.00000000000E+00 0. -1.
         21    1    1    2  503  502  0.64864716838E+02 -0.95714279368E+01  0.13149267903E+03  0.14693321055E+03  0.00000000000E+00 0. -1.
         21    1    1    2  504  506 -0.16966175846E+02 -0.28622489051E+02  0.72249297607E+01  0.34048459765E+02  0.00000000000E+00 0. -1.
         21    1    1    2  505  501 -0.12339694581E+02 -0.62418589441E+02  0.44089731511E+03  0.44546469091E+03  0.00000000000E+00 0. -1.
         21    1    1    2  506  505 -0.35558846411E+02  0.10061250643E+03  0.32711313315E+03  0.34407892973E+03  0.00000000000E+00 0. -1.
<scales pt_clust_3="61.65850" pt_clust_4="33.27308" pt_clust_5="70.55354" pt_clust_6="14000.00000"></scales>
<clustering>
<clus scale="   33.273">  2  4  1 -1</clus>
<clus scale="   61.659">  2  3  1 -1</clus>
<clus scale="   70.554">  1  5  2 -1</clus>
<clus scale="   70.554">  1  3  2 -1</clus>
</clustering>
</event>
<event>
 6    0  0.8777103E+002  0.1578215E+03  0.7546771E-02  0.1191178E+00
         21   -1    0    0  505  501  0.00000000000E+00  0.00000000000E+00  0.21067653073E+03  0.21067653073E+03  0.00000000000E+00 0.  1.
         21   -1    0    0  504  502 -0.00000000000E+00 -0.00000000000E+00 -0.73701895039E+03  0.73701895039E+03  0.00000000000E+00 0. -1.
         21    1    1    2  503  501 -0.34936446803E+02 -0.12489304383E+03  0.49009624537E+02  0.13863899527E+03  0.00000000000E+00 0.  1.
         21    1    1    2  504  503  0.24715924424E+02  0.26545214071E+02 -0.30415774260E+03  0.30631267962E+03  0.00000000000E+00 0. -1.
         21    1    1    2  505  506  0.34018085148E+00 -0.39621230220E+02  0.99491480813E+02  0.10709114044E+03  0.00000000000E+00 0.  1.
         21    1    1    2  506  502  0.98803415276E+01  0.13796905998E+03 -0.37068578241E+03  0.39565266579E+03  0.00000000000E+00 0. -1.
<scales pt_clust_3="157.82153" pt_clust_4="36.27017" pt_clust_5="39.39157" pt_clust_6="14000.00000"></scales>
<clustering>
<clus scale="   36.270">  2  4  1 -1</clus>
<clus scale="   39.392">  1  5  2 -1</clus>
<clus scale="  157.822">  1  3  2 -1</clus>
<clus scale="   39.392">  1  3  2 -1</clus>
</clustering>
</event>
<event>
 6    0  0.8777103E+002  0.1153142E+03  0.7546771E-02  0.1251034E+00
         21   -1    0    0  505  501  0.00000000000E+00  0.00000000000E+00  0.45384249832E+03  0.45384249832E+03  0.00000000000E+00 0. -1.
         21   -1    0    0  504  502 -0.00000000000E+00 -0.00000000000E+00 -0.10433376399E+04  0.10433376399E+04  0.00000000000E+00 0. -1.
         21    1    1    2  503  502 -0.48289854348E+02 -0.35995522451E+02 -0.51668717650E+02  0.79355176599E+02  0.00000000000E+00 0. -1.
         21    1    1    2  504  506 -0.47841051838E+02  0.63683148371E+02 -0.78285651937E+03  0.78689811255E+03  0.00000000000E+00 0. -1.
         21    1    1    2  505  503  0.16114461894E+03 -0.78431458053E+02 -0.14608316106E+03  0.23121282787E+03  0.00000000000E+00 0. -1.
         21    1    1    2  506  501 -0.65013712752E+02  0.50743832134E+02  0.39111325649E+03  0.39971402121E+03  0.00000000000E+00 0. -1.
<scales pt_clust_3="60.22946" pt_clust_4="14000.00000" pt_clust_5="115.31417" pt_clust_6="82.54295"></scales>
<clustering>
<clus scale="   60.229">  2  3  1 -1</clus>
<clus scale="   82.543">  1  6  2 -1</clus>
<clus scale="  115.314">  1  5  2 -1</clus>
<clus scale="   82.543">  1  3  2 -1</clus>
</clustering>
</event>
<event>
 6    0  0.8777103E+002  0.7822027E+02  0.7546771E-02  0.1334179E+00
         21   -1    0    0  503  501  0.00000000000E+00  0.00000000000E+00  0.10268072711E+04  0.10268072711E+04  0.00000000000E+00 0.  1.
         21   -1    0    0  506  502 -0.00000000000E+00 -0.00000000000E+00 -0.10490017233E+04  0.10490017233E+04  0.00000000000E+00 0. -1.
         21    1    1    2  503  505 -0.44225612033E+02 -0.19240549701E+02  0.92524364735E+02  0.10434012451E+03  0.00000000000E+00 0. -1.
         21    1    1    2  504  501  0.14051022634E+02  0.57942587705E+02  0.86596267904E+03  0.86801275117E+03  0.00000000000E+00 0.  1.
         21    1    1    2  505  502 -0.75929942800E+02 -0.16420098935E+02 -0.99146360025E+03  0.99450241150E+03  0.00000000000E+00 0. -1.
         21    1    1    2  506  504  0.10610453220E+03 -0.22281939068E+02  0.10782104273E+02  0.10895370730E+03  0.00000000000E+00 0. -1.
<scales pt_clust_3="48.22970" pt_clust_4="48.37891" pt_clust_5="14000.00000" pt_clust_6="78.22027"></scales>
<clustering>
<clus scale="   48.230">  1  3  2 -1</clus>
<clus scale="   48.379">  1  4  2 -1</clus>
<clus scale="   78.220">  1  6  2 -1</clus>
<clus scale="   48.230">  1  3  2 -1</clus>
</clustering>
</event>
<event>
 6    0  0.8777103E+002  0.9613168E+02  0.7546771E-02  0.1288647E+00
         21   -1    0    0  503  501  0.00000000000E+00  0.00000000000E+00  0.74990587281E+02  0.74990587281E+02  0.00000000000E+00 0.  1.
         21   -1    0    0  504  502 -0.00000000000E+00 -0.00000000000E+00 -0.71000340849E+03  0.71000340849E+03  0.00000000000E+00 0.  1.
         21    1    1    2  503  506 -0.51287065594E+02 -0.90213200699E+02  0.12040775125E+02  0.10446896641E+03  0.00000000000E+00 0.  1.
         21    1    1    2  504  501  0.85312491559E+01 -0.30801444514E+02 -0.71139258490E+02  0.77989135749E+02  0.00000000000E+00 0.  1.
         21    1    1    2  505  502  0.63985155737E+01  0.54475058466E+02 -0.46474174644E+03  0.46796726796E+03  0.00000000000E+00 0.  1.
         21    1    1    2  506  505  0.36357300864E+02  0.66539586748E+02 -0.11117259141E+03  0.13456862565E+03  0.00000000000E+00 0.  1.
<scales pt_clust_3="96.13168" pt_clust_4="31.96109" pt_clust_5="34.29197" pt_clust_6="14000.00000"></scales>
<clustering>
<clus scale="   31.961">  2  4  1 -1</clus>
<clus scale="   34.292">  2  5  1 -1</clus>
<clus scale="   96.132">  1  3  2 -1</clus>
<clus scale="   96.132">  1  3  2 -1</clus>
</clustering>
</event>
<event>
 6    0  0.8777103E+002  0.2050504E+03  0.7546771E-02  0.1145547E+00
         21   -1    0    0  503  501  0.00000000000E+00  0.00000000000E+00  0.85509492722E+02  0.85509492722E+02  0.00000000000E+00 0.  1.
         21   -1    0    0  506  502 -0.00000000000E+00 -0.00000000000E+00 -0.92284856807E+03  0.92284856807E+03  0.00000000000E+00 0.  1.
         21    1    1    2  503  505  0.69475758433E+02 -0.15191106414E+01 -0.97295800684E+02  0.11956446603E+03  0.00000000000E+00 0. -1.
         21    1    1    2  504  502 -0.18840436036E+03 -0.92419955925E+02 -0.23347626214E+03  0.31392485763E+03  0.00000000000E+00 0.  1.
         21    1    1    2  505  504  0.82448160520E+02  0.75193327200E+02 -0.60524895001E+02  0.12694486419E+03  0.00000000000E+00 0.  1.
         21    1    1    2  506  501  0.36480441405E+02  0.18745739366E+02 -0.44604211752E+03  0.44792387294E+03  0.00000000000E+00 0.  1.
<scales pt_clust_3="69.22269" pt_clust_4="186.26580" pt_clust_5="69.22269" pt_clust_6="41.01494"></scales>
<clustering>
<clus scale="   41.015">  2  6  1 -1</clus>
<clus scale="   69.223">  3  5 -1 -1</clus>
<clus scale="  186.266">  2  4  1 -1</clus>
<clus scale="  205.050">  1  3  2 -1</clus>
</clustering>
</event>
<event>
 6    0  0.8777103E+002  0.9065330E+02  0.7546771E-02  0.1301277E+00
         21   -1    0    0  505  501  0.00000000000E+00  0.00000000000E+00  0.75461855777E+02  0.75461855777E+02  0.00000000000E+00 0.  1.
         21   -1    0    0  506  502 -0.00000000000E+00 -0.00000000000E+00 -0.28818540816E+04  0.28818540816E+04  0.00000000000E+00 0.  1.
         21    1    1    2  503  502 -0.31504417884E+02 -0.30993794457E+02 -0.12196525804E+04  0.12204530145E+04  0.00000000000E+00 0.  1.
         21    1    1    2  504  501 -0.71729421836E+02 -0.41794406200E+02  0.99899001537E+01  0.83616269061E+02  0.00000000000E+00 0.  1.
         21    1    1    2  505  503 -0.22235234473E+02  0.52670493330E+02 -0.14787351714E+04  0.14798399554E+04  0.00000000000E+00 0.  1.
         21    1    1    2  506  504  0.12546907419E+03  0.20117707328E+02 -0.11799437420E+03  0.17340669846E+03  0.00000000000E+00 0.  1.
<scales pt_clust_3="44.19438" pt_clust_4="14000.00000" pt_clust_5="56.18786" pt_clust_6="90.65330"></scales>
<clustering>
<clus scale="   44.194">  2  3  1 -1</clus>
<clus scale="   56.188">  2  5  1 -1</clus>
<clus scale="   90.653">  2  6  1 -1</clus>
<clus scale="   90.653">  1  3  2 -1</clus>
</clustering>
</event>
<event>
 6    0  0.8777103E+002  0.6626050E+02  0.7546771E-02  0.1373292E+00
         21   -1    0    0  503  501  0.00000000000E+00  0.00000000000E+00  0.66105916149E+03  0.66105916149E+03  0.00000000000E+00 0. -1.
         21   -1    0    0  505  502 -0.00000000000E+00 -0.00000000000E+00 -0.39738222325E+03  0.39738222325E+03  0.00000000000E+00 0.  1.
         21    1    1    2  503  504  0.70238569820E+00  0.64938207820E+02  0.59292543429E+03  0.59647131935E+03  0.00000000000E+00 0. -1.
         21    1    1    2  504  506 -0.62062616017E+01  0.46377498706E+02 -0.59864353928E+02  0.75981122264E+02  0.00000000000E+00 0.  1.
         21    1    1    2  505  501  0.42006200179E+02 -0.11598755119E+03 -0.97332071881E+01  0.12374315418E+03  0.00000000000E+00 0.  1.
         21    1    1    2  506  502 -0.36502324276E+02  0.46718446633E+01 -0.25965093493E+03  0.26224578895E+03  0.00000000000E+00 0.  1.
<scales pt_clust_3="66.26050" pt_clust_4="54.46410" pt_clust_5="14000.00000" pt_clust_6="36.80008"></scales>
<clustering>
<clus scale="   36.800">  2  6  1 -1</clus>
<clus scale="   54.464">  2  4  1 -1</clus>
<clus scale="   66.260">  1  3  2 -1</clus>
<clus scale="   66.260">  1  3  2 -1</clus>
</clustering>
</event>
<event>
 6    0  0.8777103E+002  0.8351363E+02  0.7546771E-02  0.1319366E+00
         21   -1    0    0  504  501  0.00000000000E+00  0.00000000000E+00  0.63792253696E+02  0.63792253696E+02  0.00000000000E+00 0. -1.
         21   -1    0    0  505  502 -0.00000000000E+00 -0.00000000000E+00 -0.16181759727E+04  0.16181759727E+04  0.00000000000E+00 0. -1.
         21    1    1    2  503  502  0.76974108088E+02  0.45913422445E+02 -0.23233626905E+03  0.24902449195E+03  0.00000000000E+00 0. -1.
         21    1    1    2  504  503  0.19917012847E+01 -0.89185275402E+02  0.93097191539E+01  0.89691978979E+02  0.00000000000E+00 0. -1.
         21    1    1    2  505  506 -0.27385595884E+02  0.20105079081E+02 -0.11969889657E+04  0.11974709888E+04  0.00000000000E+00 0. -1.
         21    1    1    2  506  501 -0.51580213488E+02  0.23166773875E+02 -0.13436820343E+03  0.14578076666E+03  0.00000000000E+00 0. -1.
<scales pt_clust_3="14000.00000" pt_clust_4="83.51363" pt_clust_5="33.97330" pt_clust_6="67.63940"></scales>
<clustering>
<clus scale="   33.973">  2  5  1 -1</clus>
<clus scale="   67.639">  2  6  1 -1</clus>
<clus scale="   83.514">  1  4  2 -1</clus>
<clus scale="   83.514">  1  3  2 -1</clus>
</clustering>
</event>
<event>
 6    0  0.8777103E+002  0.1115577E+03  0.7546771E-02  0.1257712E+00
         21   -1    0    0  506  501  0.00000000000E+00  0.00000000000E+00  0.21461989203E+04  0.21461989203E+04  0.00000000000E+00 0.  1.
         21   -1    0    0  505  502 -0.00000000000E+00 -0.00000000000E+00 -0.29938234345E+03  0.29938234345E+03  0.00000000000E+00 0. -1.
         21    1    1    2  503  504  0.11667844934E+03 -0.19142243958E+02  0.13931076747E+02  0.11905612518E+03  0.00000000000E+00 0. -1.
         21    1    1    2  504  501 -0.14992320546E+03  0.22771948131E+02  0.67024431965E+03  0.68718482025E+03  0.00000000000E+00 0. -1.
         21    1    1    2  505  503 -0.18545495706E+02 -0.23784106222E+02 -0.23684178352E+03  0.23875437073E+03  0.00000000000E+00 0. -1.
         21    1    1    2  506  502  0.51790251826E+02  0.20154402049E+02  0.13994829640E+04  0.14005859476E+04  0.00000000000E+00 0.  1.
<scales pt_clust_3="111.55774" pt_clust_4="14000.00000" pt_clust_5="30.15989" pt_clust_6="55.34181"></scales>
<clustering>
<clus scale="   30.160">  2  5  1 -1</clus>
<clus scale="   55.342">  1  6  2 -1</clus>
<clus scale="  111.558">  2  3  1 -1</clus>
<clus scale="   55.342">  1  3  2 -1</clus>
</clustering>
</event>
<event>
 6    0  0.8777103E+002  0.6645529E+02  0.7546771E-02  0.1372579E+00
         21   -1    0    0  505  501  0.00000000000E+00  0.00000000000E+00  0.42100348349E+03  0.42100348349E+03  0.00000000000E+00 0.  1.
         21   -1    0    0  503  502 -0.00000000000E+00 -0.00000000000E+00 -0.13449401507E+04  0.13449401507E+04  0.00000000000E+00 0.  1.
         21    1    1    2  503  504  0.64504836893E+02 -0.40561264634E+02 -0.98324111400E+03  0.98618922040E+03  0.00000000000E+00 0.  1.
         21    1    1    2  504  501 -0.24290366791E+02  0.60900279458E+02  0.39131857383E+03  0.39677335115E+03  0.00000000000E+00 0.  1.
         21    1    1    2  505  506 -0.44469699701E+02 -0.69713665873E+02 -0.49968521043E+02  0.96614711593E+02  0.00000000000E+00 0. -1.
         21    1    1    2  506  502  0.42552295983E+01  0.49374651049E+02 -0.28204560605E+03  0.28636635109E+03  0.00000000000E+00 0. -1.
<scales pt_clust_3="14000.00000" pt_clust_4="65.67963" pt_clust_5="66.45529" pt_clust_6="49.55767"></scales>
<clustering>
<clus scale="   49.558">  2  6  1 -1</clus>
<clus scale="   65.680">  1  4  2 -1</clus>
<clus scale="   66.455">  1  5  2 -1</clus>
<clus scale="   65.680">  1  3  2 -1</clus>
</clustering>
</event>
<event>
 6    0  0.8777103E+002  0.7452919E+02  0.7546771E-02  0.1345335E+00
         21   -1    0    0  505  501  0.00000000000E+00  0.00000000000E+00  0.82357033270E+03  0.82357033270E+03  0.00000000000E+00 0. -1.
         21   -1    0    0  503  502 -0.00000000000E+00 -0.00000000000E+00 -0.38191278053E+02  0.38191278053E+02  0.00000000000E+00 0. -1.
         21    1    1    2  503  504 -0.58277591534E+02 -0.61139041071E+02  0.20130296093E+03  0.21830515820E+03  0.00000000000E+00 0. -1.
         21    1    1    2  504  501  0.76728165834E+02  0.56523195568E+01  0.21312022835E+03  0.22658197607E+03  0.00000000000E+00 0. -1.
         21    1    1    2  505  506 -0.68171109523E+02  0.37999865474E+02  0.35249043554E+03  0.36102741876E+03  0.00000000000E+00 0. -1.
         21    1    1    2  506  502  0.49720535223E+02  0.17486856040E+02  0.18465429824E+02  0.55847057717E+02  0.00000000000E+00 0. -1.
<scales pt_clust_3="64.83565" pt_clust_4="14000.00000" pt_clust_5="74.52919" pt_clust_6="52.70599"></scales>
<clustering>
<clus scale="   52.706">  2  6  1 -1</clus>
<clus scale="   64.836">  2  3  1 -1</clus>
<clus scale="   74.529">  1  5  2 -1</clus>
<clus scale="   74.529">  1  3  2 -1</clus>
</clustering>
</event>
<event>
 6    0  0.8777103E+002  0.7663870E+02  0.7546771E-02  0.1338870E+00
         21   -1    0    0  504  501  0.00000000000E+00  0.00000000000E+00  0.58486894413E+03  0.58486894413E+03  0.00000000000E+00 0.  1.
         21   -1    0    0  501  502 -0.00000000000E+00 -0.00000000000E+00 -0.30081046882E+03  0.30081046882E+03  0.00000000000E+00 0. -1.
         21    1    1    2  503  506  0.38457069798E+02  0.21046350844E+02 -0.16193594449E+03  0.16776514900E+03  0.00000000000E+00 0. -1.
         21    1    1    2  504  505 -0.20521448071E+01 -0.75894954181E+02  0.45831620275E+03  0.46456215630E+03  0.00000000000E+00 0.  1.
         21    1    1    2  505  503 -0.62467911285E+02  0.79968330623E+02  0.95665240332E+02  0.13945971480E+03  0.00000000000E+00 0. -1.
         21    1    1    2  506  502  0.26062986295E+02 -0.25119727286E+02 -0.10798702327E+03  0.11389239285E+03  0.00000000000E+00 0. -1.
<scales pt_clust_3="61.09037" pt_clust_4="14000.00000" pt_clust_5="76.63870" pt_clust_6="36.19779"></scales>
<clustering>
<clus scale="   36.198">  2  6  1 -1</clus>
<clus scale="   61.090">  2  3  1 -1</clus>
<clus scale="   76.639">  2  5  1 -1</clus>
<clus scale="   76.639">  1  3  2 -1</clus>
</clustering>
</event>
<event>
 6    0  0.8777103E+002  0.7249871E+02  0.7546771E-02  0.1351796E+00
         21   -1    0    0  506  501  0.00000000000E+00  0.00000000000E+00  0.18013026502E+04  0.18013026502E+04  0.00000000000E+00 0. -1.
         21   -1    0    0  505  502 -0.00000000000E+00 -0.00000000000E+00 -0.47749167385E+03  0.47749167385E+03  0.00000000000E+00 0. -1.
         21    1    1    2  503  501 -0.30601307852E+02 -0.65714605900E+02  0.17513894037E+04  0.17528889562E+04  0.00000000000E+00 0. -1.
         21    1    1    2  504  503  0.38454703427E+02 -0.57385444694E+02 -0.46073780947E+02  0.83034009714E+02  0.00000000000E+00 0. -1.
         21    1    1    2  505  504  0.10075673435E+02  0.34161813785E+02 -0.34211214356E+03  0.34396114240E+03  0.00000000000E+00 0. -1.
         21    1    1    2  506  502 -0.17929069010E+02  0.88938236809E+02 -0.39392502869E+02  0.98910215674E+02  0.00000000000E+00 0. -1.
<scales pt_clust_3="14000.00000" pt_clust_4="59.61450" pt_clust_5="35.61669" pt_clust_6="72.49871"></scales>
<clustering>
<clus scale="   35.617">  2  5  1 -1</clus>
<clus scale="   59.615">  2  4  1 -1</clus>
<clus scale="   72.499">  2  6  1 -1</clus>
<clus scale="   72.499">  1  3  2 -1</clus>
</clustering>
</event>
<event>
 6    0  0.8777103E+002  0.1186675E+03  0.7546771E-02  0.1245312E+00
         21   -1    0    0  504  501  0.00000000000E+00  0.00000000000E+00  0.19294551712E+03  0.19294551712E+03  0.00000000000E+00 0.  1.
         21   -1    0    0  506  502 -0.00000000000E+00 -0.00000000000E+00 -0.22438046707E+03  0.22438046707E+03  0.00000000000E+00 0. -1.
         21    1    1    2  503  505  0.27468758382E+02  0.15512656255E+03 -0.55617836447E+01  0.15763792860E+03  0.00000000000E+00 0. -1.
         21    1    1    2  504  503 -0.13764739262E+02 -0.34300270344E+02  0.58649504046E+02  0.69323451425E+02  0.00000000000E+00 0.  1.
         21    1    1    2  505  502 -0.45620819370E+02 -0.30676257439E+02 -0.76761110937E+02  0.94416948069E+02  0.00000000000E+00 0. -1.
         21    1    1    2  506  501  0.31916800249E+02 -0.90150034765E+02 -0.77615594214E+01  0.95947656099E+02  0.00000000000E+00 0.  1.
<scales pt_clust_3="14000.00000" pt_clust_4="36.95912" pt_clust_5="57.08524" pt_clust_6="118.66749"></scales>
<clustering>
<clus scale="   36.959">  1  4  2 -1</clus>
<clus scale="   57.085">  2  5  1 -1</clus>
<clus scale="  118.667">  2  6  1 -1</clus>
<clus scale="   36.959">  1  3  2 -1</clus>
</clustering>
</event>
<event>
 6    0  0.8777103E+002  0.1258821E+03  0.7546771E-02  0.1233697E+00
         21   -1    0    0  504  501  0.00000000000E+00  0.00000000000E+00  0.16726479100E+03  0.16726479100E+03  0.00000000000E+00 0. -1.
         21   -1    0    0  506  502 -0.00000000000E+00 -0.00000000000E+00 -0.51867911681E+03  0.51867911681E+03  0.00000000000E+00 0.  1.
         21    1    1    2  503  502  0.23160711612E+02 -0.28631987341E+02 -0.13333339905E+03  0.13832571910E+03  0.00000000000E+00 0.  1.
         21    1    1    2  504  503  0.12411293009E+03  0.54917690478E+02 -0.90760808714E+02  0.16327123611E+03  0.00000000000E+00 0. -1.
         21    1    1    2  505  501 -0.10985024538E+02 -0.36024866003E+02  0.10681424085E+03  0.11325962998E+03  0.00000000000E+00 0. -1.
         21    1    1    2  506  505 -0.13628861717E+03  0.97391628662E+01 -0.23413435890E+03  0.27108732261E+03  0.00000000000E+00 0.  1.
<scales pt_clust_3="36.82675" pt_clust_4="125.88214" pt_clust_5="37.83701" pt_clust_6="14000.00000"></scales>
<clustering>
<clus scale="   36.827">  2  3  1 -1</clus>
<clus scale="   37.837">  1  5  2 -1</clus>
<clus scale="  125.882">  1  4  2 -1</clus>
<clus scale="   37.837">  1  3  2 -1</clus>
</clustering>
</event>
<event>
 6    0  0.8777103E+002  0.1081369E+03  0.7546771E-02  0.1264060E+00
         21   -1    0    0  506  501  0.00000000000E+00  0.00000000000E+00  0.80525917500E+02  0.80525917500E+02  0.00000000000E+00 0.  1.
         21   -1    0    0  503  502 -0.00000000000E+00 -0.00000000000E+00 -0.83947588495E+03  0.83947588495E+03  0.00000000000E+00 0.  1.
         21    1    1    2  503  505 -0.27892564806E+02  0.26257518529E+02 -0.29572860600E+03  0.29819936428E+03  0.00000000000E+00 0.  1.
         21    1    1    2  504  501 -0.83278288292E+02  0.67542120838E+02  0.19020927907E+02  0.10889906835E+03  0.00000000000E+00 0.  1.
         21    1    1    2  505  504  0.40357244931E+02  0.40293572483E+01 -0.51510258562E+02  0.65561037784E+02  0.00000000000E+00 0.  1.
         21    1    1    2  506  502  0.70813608168E+02 -0.97828996615E+02 -0.43073203080E+03  0.44734233204E+03  0.00000000000E+00 0.  1.
<scales pt_clust_3="38.30734" pt_clust_4="108.13685" pt_clust_5="37.97295" pt_clust_6="14000.00000"></scales>
<clustering>
<clus scale="   38.307">  2  3  1 -1</clus>
<clus scale="   37.973">  2  5  1 -1</clus>
<clus scale="  108.137">  1  4  2 -1</clus>
<clus scale="  108.137">  1  3  2 -1</clus>
</clustering>
</event>
<event>
 6    0  0.8777103E+002  0.7559725E+02  0.7546771E-02  0.1342031E+00
         21   -1    0    0  505  501  0.00000000000E+00  0.00000000000E+00  0.13057517682E+03  0.13057517682E+03  0.00000000000E+00 0. -1.
         21   -1    0    0  504  502 -0.00000000000E+00 -0.00000000000E+00 -0.55317789727E+03  0.55317789727E+03  0.00000000000E+00 0.  1.
         21    1    1    2  503  502  0.30520124098E+02  0.51614419892E+02 -0.30700337634E+03  0.31280441078E+03  0.00000000000E+00 0.  1.
         21    1    1    2  504  506 -0.40330813257E+01 -0.31805993432E+02 -0.14834210470E+03  0.15176714727E+03  0.00000000000E+00 0.  1.
         21    1    1    2  505  503  0.15745547000E+02  0.70120830847E+02  0.81373723308E+02  0.10856581420E+03  0.00000000000E+00 0. -1.
         21    1    1    2  506  501 -0.42232589772E+02 -0.89929257307E+02 -0.48630962717E+02  0.11061570184E+03  0.00000000000E+00 0. -1.
<scales pt_clust_3="38.59643" pt_clust_4="32.06068" pt_clust_5="75.59725" pt_clust_6="14000.00000"></scales>
<clustering>
<clus scale="   32.061">  2  4  1 -1</clus>
<clus scale="   38.596">  2  3  1 -1</clus>
<clus scale="   75.597">  1  5  2 -1</clus>
<clus scale="   75.597">  1  3  2 -1</clus>
</clustering>
</event>
<event>
 6    0  0.8777103E+002  0.1211679E+03  0.7546771E-02  0.1241183E+00
         21   -1    0    0  505  501  0.00000000000E+00  0.00000000000E+00  0.88262368933E+03  0.88262368933E+03  0.00000000000E+00 0. -1.
         21   -1    0    0  506  502 -0.00000000000E+00 -0.00000000000E+00 -0.40553899972E+03  0.40553899972E+03  0.00000000000E+00 0. -1.
         21    1    1    2  503  504 -0.14186040227E+03  0.15201219032E+02  0.12713136258E+03  0.19109640014E+03  0.00000000000E+00 0. -1.
         21    1    1    2  504  501  0.22484490625E+02 -0.59234753928E+02  0.70035250435E+03  0.70321258432E+03  0.00000000000E+00 0. -1.
         21    1    1    2  505  502  0.58043967607E+02  0.86442919669E+02 -0.18190058228E+03  0.20959318303E+03  0.00000000000E+00 0. -1.
         21    1    1    2  506  503  0.61331944041E+02 -0.42409384772E+02 -0.16849859504E+03  0.18426052157E+03  0.00000000000E+00 0. -1.
<scales pt_clust_3="14000.00000" pt_clust_4="63.35857" pt_clust_5="121.16786" pt_clust_6="76.85658"></scales>
<clustering>
<clus scale="   63.359">  1  4  2 -1</clus>
<clus scale="   76.857">  2  6  1 -1</clus>
<clus scale="  121.168">  2  5  1 -1</clus>
<clus scale="   63.359">  1  3  2 -1</clus>
</clustering>
</event>
<event>
 6    0  0.8777103E+002  0.1844408E+03  0.7546771E-02  0.1163573E+00
         21   -1    0    0  506  501  0.00000000000E+00  0.00000000000E+00  0.63561322358E+03  0.63561322358E+03  0.00000000000E+00 0.  1.
         21   -1    0    0  504  502 -0.00000000000E+00 -0.00000000000E+00 -0.11612571044E+03  0.11612571044E+03  0.00000000000E+00 0. -1.
         21    1    1    2  503  502  0.73546742869E+01 -0.29358981269E+02 -0.42342145804E+02  0.52047077981E+02  0.00000000000E+00 0.  1.
         21    1    1    2  504  501  0.91696709536E+02  0.15690924590E+03  0.26162811644E+03  0.31855622628E+03  0.00000000000E+00 0.  1.
         21    1    1    2  505  503 -0.81412293036E+02 -0.16647690499E+03  0.20250736441E+03  0.27450273950E+03  0.00000000000E+00 0. -1.
         21    1    1    2  506  505 -0.17639090787E+02  0.38926640364E+02  0.97694178087E+02  0.10663289026E+03  0.00000000000E+00 0.  1.
<scales pt_clust_3="30.26617" pt_clust_4="184.44084" pt_clust_5="14000.00000" pt_clust_6="40.80747"></scales>
<clustering>
<clus scale="   30.266">  2  3  1 -1</clus>
<clus scale="   40.807">  1  6  2 -1</clus>
<clus scale="  184.441">  2  4  1 -1</clus>
<clus scale="   40.807">  1  3  2 -1</clus>
</clustering>
</event>
<event>
 6    0  0.8777103E+002  0.6869958E+02  0.7546771E-02  0.1364572E+00
         21   -1    0    0  504  501  0.00000000000E+00  0.00000000000E+00  0.88865746736E+03  0.88865746736E+03  0.00000000000E+00 0. -1.
         21   -1    0    0  506  502 -0.00000000000E+00 -0.00000000000E+00 -0.86585264035E+02  0.86585264035E+02  0.00000000000E+00 0. -1.
         21    1    1    2  503  505 -0.18057656539E+02 -0.84351378849E+02 -0.77766453649E+01  0.86612414160E+02  0.00000000000E+00 0. -1.
         21    1    1    2  504  502 -0.35490340888E+02  0.31442404912E+02  0.60031770773E+03  0.60218729590E+03  0.00000000000E+00 0. -1.
         21    1    1    2  505  501  0.81680890793E+02  0.17765559804E+02  0.22405582421E+03  0.23914095300E+03  0.00000000000E+00 0. -1.
         21    1    1    2  506  503 -0.28132893366E+02  0.35143414133E+02 -0.14524683252E+02  0.47302068345E+02  0.00000000000E+00 0. -1.
<scales pt_clust_3="14000.00000" pt_clust_4="48.16014" pt_clust_5="68.69958" pt_clust_6="45.01688"></scales>
<clustering>
<clus scale="   45.017">  2  6  1 -1</clus>
<clus scale="   48.160">  1  4  2 -1</clus>
<clus scale="   68.700">  1  5  2 -1</clus>
<clus scale="   48.160">  1  3  2 -1</clus>
</clustering>
</event>
<event>
 6    0  0.8777103E+002  0.8847382E+02  0.7546771E-02  0.1306590E+00
         21   -1    0    0  505  501  0.00000000000E+00  0.00000000000E+00  0.48477212216E+03  0.48477212216E+03  0.00000000000E+00 0. -1.
         21   -1    0    0  503  502 -0.00000000000E+00 -0.00000000000E+00 -0.14537781732E+03  0.14537781732E+03  0.00000000000E+00 0.  1.
         21    1    1    2  503  506 -0.10352815245E+03  0.16829360057E+02 -0.68261800876E+02  0.12514383392E+03  0.00000000000E+00 0.  1.
         21    1    1    2  504  502  0.72022315566E+02  0.19832994605E+02 -0.13833387068E+02  0.75973180875E+02  0.00000000000E+00 0.  1.
         21    1    1    2  505  504 -0.12830914083E+02 -0.32948734532E+02  0.20355212592E+03  0.20660038584E+03  0.00000000000E+00 0. -1.
         21    1    1    2  506  501  0.44336750964E+02 -0.37136201302E+01  0.21793736686E+03  0.22243253884E+03  0.00000000000E+00 0. -1.
<scales pt_clust_3="88.47382" pt_clust_4="14000.00000" pt_clust_5="35.35890" pt_clust_6="45.29158"></scales>
<clustering>
<clus scale="   35.359">  1  5  2 -1</clus>
<clus scale="   45.292">  1  6  2 -1</clus>
<clus scale="   88.474">  2  3  1 -1</clus>
<clus scale="   35.359">  1  3  2 -1</clus>
</clustering>
</event>
<event>
 6    0  0.8777103E+002  0.5701704E+02  0.7546771E-02  0.1410794E+00
         21   -1    0    0  506  501  0.00000000000E+00  0.00000000000E+00  0.45327139390E+03  0.45327139390E+03  0.00000000000E+00 0. -1.
         21   -1    0    0  505  502 -0.00000000000E+00 -0.00000000000E+00 -0.67247040237E+03  0.67247040237E+03  0.00000000000E+00 0.  1.
         21    1    1    2  503  501 -0.39455858928E+02  0.24604524051E+02  0.26992823361E+02  0.53765787640E+02  0.00000000000E+00 0. -1.
         21    1    1    2  504  502 -0.60110884662E+02 -0.46811046924E+02 -0.57243166698E+03  0.57747952858E+03  0.00000000000E+00 0.  1.
         21    1    1    2  505  503  0.44055919679E+01  0.40219483566E+02 -0.73116127288E+02  0.83564251737E+02  0.00000000000E+00 0.  1.
         21    1    1    2  506  504  0.95161151622E+02 -0.18012960693E+02  0.39935596243E+03  0.41093222831E+03  0.00000000000E+00 0. -1.
<scales pt_clust_3="46.90137" pt_clust_4="57.01704" pt_clust_5="40.46006" pt_clust_6="14000.00000"></scales>
<clustering>
<clus scale="   40.460">  2  5  1 -1</clus>
<clus scale="   46.901">  1  3  2 -1</clus>
<clus scale="   57.017">  2  4  1 -1</clus>
<clus scale="   46.901">  1  3  2 -1</clus>
</clustering>
</event>
<event>
 6    0  0.8777103E+002  0.1203963E+03  0.7546771E-02  0.1242445E+00
         21   -1    0    0  506  501  0.00000000000E+00  0.00000000000E+00  0.23572178956E+04  0.23572178956E+04  0.00000000000E+00 0. -1.
         21   -1    0    0  505  502 -0.00000000000E+00 -0.00000000000E+00 -0.30974867178E+02  0.30974867178E+02  0.00000000000E+00 0.  1.
         21    1    1    2  503  502 -0.29646570122E+02 -0.40414567223E+02  0.17960233592E+03  0.18646515876E+03  0.00000000000E+00 0.  1.
         21    1    1    2  504  503 -0.65065697177E+02 -0.64507661660E+02  0.74633548134E+03  0.75193845099E+03  0.00000000000E+00 0.  1.
         21    1    1    2  505  501 -0.81292582136E+01  0.95706914182E+02  0.78752397944E+02  0.12420885010E+03  0.00000000000E+00 0.  1.
         21    1    1    2  506  504  0.10284152551E+03  0.92153147007E+01  0.13215528132E+04  0.13255803029E+04  0.00000000000E+00 0. -1.
<scales pt_clust_3="42.23923" pt_clust_4="42.23923" pt_clust_5="96.05154" pt_clust_6="105.98994"></scales>
<clustering>
<clus scale="   42.239">  3  4 -1 -1</clus>
<clus scale="   96.052">  2  5  1 -1</clus>
<clus scale="  105.990">  1  6  2 -1</clus>
<clus scale="  105.990">  1  3  2 -1</clus>
</clustering>
</event>
<event>
 6    0  0.8777103E+002  0.7584473E+02  0.7546771E-02  0.1341275E+00
         21   -1    0    0  503  501  0.00000000000E+00  0.00000000000E+00  0.72316407096E+03  0.72316407096E+03  0.00000000000E+00 0. -1.
         21   -1    0    0  505  502 -0.00000000000E+00 -0.00000000000E+00 -0.12663941181E+03  0.12663941181E+03  0.00000000000E+00 0. -1.
         21    1    1    2  503  504  0.21039099590E+01  0.55941193755E+02  0.49055006710E+03  0.49373394853E+03  0.00000000000E+00 0. -1.
         21    1    1    2  504  502 -0.15791521688E+02  0.98626204873E+02 -0.77004549035E+01  0.10017882736E+03  0.00000000000E+00 0. -1.
         21    1    1    2  505  506  0.10092146515E+02 -0.65437855199E+02 -0.40611166369E+02  0.77673876871E+02  0.00000000000E+00 0. -1.
         21    1    1    2  506  501  0.35954652141E+01 -0.89129543429E+02  0.15428621332E+03  0.17821683002E+03  0.00000000000E+00 0. -1.
<scales pt_clust_3="55.98074" pt_clust_4="14000.00000" pt_clust_5="75.84473" pt_clust_6="49.13868"></scales>
<clustering>
<clus scale="   55.981">  1  3  2 -1</clus>
<clus scale="   49.139">  1  6  2 -1</clus>
<clus scale="   75.845">  2  5  1 -1</clus>
<clus scale="   55.981">  1  3  2 -1</clus>
</clustering>
</event>
<event>
 6    0  0.8777103E+002  0.1271512E+03  0.7546771E-02  0.1231745E+00
         21   -1    0    0  505  501  0.00000000000E+00  0.00000000000E+00  0.98204987458E+03  0.98204987458E+03  0.00000000000E+00 0.  1.
         21   -1    0    0  503  502 -0.00000000000E+00 -0.00000000000E+00 -0.74712869360E+02  0.74712869360E+02  0.00000000000E+00 0. -1.
         21    1    1    2  503  501  0.92085465139E+02 -0.64437231672E+02  0.12968863544E+03  0.17161302945E+03  0.00000000000E+00 0.  1.
         21    1    1    2  504  506 -0.83439158313E+01  0.42786416949E+02  0.44635557900E+02  0.62390956363E+02  0.00000000000E+00 0. -1.
         21    1    1    2  505  504 -0.61738961403E+02 -0.55684707824E+02  0.73755470551E+03  0.74222599635E+03  0.00000000000E+00 0.  1.
         21    1    1    2  506  502 -0.22002587904E+02  0.77335522547E+02 -0.45418936250E+01  0.80532761780E+02  0.00000000000E+00 0. -1.
<scales pt_clust_3="112.68513" pt_clust_4="43.37089" pt_clust_5="83.14136" pt_clust_6="43.37089"></scales>
<clustering>
<clus scale="   43.371">  4  6 -1 -1</clus>
<clus scale="   83.141">  1  5  2 -1</clus>
<clus scale="  112.685">  1  3  2 -1</clus>
<clus scale="   83.141">  1  3  2 -1</clus>
</clustering>
</event>
<event>
 6    0  0.8777103E+002  0.8390928E+02  0.7546771E-02  0.1318310E+00
         21   -1    0    0  506  501  0.00000000000E+00  0.00000000000E+00  0.22533928476E+02  0.22533928476E+02  0.00000000000E+00 0.  1.
         21   -1    0    0  503  502 -0.00000000000E+00 -0.00000000000E+00 -0.19930213406E+04  0.19930213406E+04  0.00000000000E+00 0.  1.
         21    1    1    2  503  505 -0.10844418291E+03 -0.22172372680E+01 -0.14889961539E+04  0.14929415941E+04  0.00000000000E+00 0.  1.
         21    1    1    2  504  501  0.59920312602E+02 -0.33314881705E+02 -0.95114944818E+02  0.11724836004E+03  0.00000000000E+00 0.  1.
         21    1    1    2  505  504  0.27869892722E+02  0.67180289134E+02 -0.15868449018E+03  0.17455855634E+03  0.00000000000E+00 0.  1.
         21    1    1    2  506  502  0.20653977587E+02 -0.31648170161E+02 -0.22769182320E+03  0.23080675860E+03  0.00000000000E+00 0.  1.
<scales pt_clust_3="83.90928" pt_clust_4="70.57945" pt_clust_5="14000.00000" pt_clust_6="37.79145"></scales>
<clustering>
<clus scale="   37.791">  2  6  1 -1</clus>
<clus scale="   70.579">  1  4  2 -1</clus>
<clus scale="   83.909">  2  3  1 -1</clus>
<clus scale="   70.579">  1  3  2 -1</clus>
</clustering>
</event>
<event>
 6    0  0.8777103E+002  0.1318582E+03  0.7546771E-02  0.1224724E+00
         21   -1    0    0  503  501  0.00000000000E+00  0.00000000000E+00  0.47348814354E+03  0.47348814354E+03  0.00000000000E+00 0.  1.
         21   -1    0    0  501  502 -0.00000000000E+00 -0.00000000000E+00 -0.10917203344E+03  0.10917203344E+03  0.00000000000E+00 0.  1.
         21    1    1    2  503  506  0.24822440348E+02 -0.38550388193E+02  0.16978349056E+03  0.17586562951E+03  0.00000000000E+00 0.  1.
         21    1    1    2  504  505 -0.34661017769E+02  0.12774996981E+03  0.74530651011E+02  0.15190871890E+03  0.00000000000E+00 0.  1.
         21    1    1    2  505  502 -0.18761909652E+02  0.29259505293E+02 -0.40495413192E+02  0.53366716157E+02  0.00000000000E+00 0.  1.
         21    1    1    2  506  504  0.28600487072E+02 -0.11845908691E+03  0.16049738172E+03  0.20151911242E+03  0.00000000000E+00 0.  1.
<scales pt_clust_3="44.15243" pt_clust_4="131.85821" pt_clust_5="34.75813" pt_clust_6="14000.00000"></scales>
<clustering>
<clus scale="   34.758">  2  5  1 -1</clus>
<clus scale="   44.152">  1  3  2 -1</clus>
<clus scale="  131.858">  2  4  1 -1</clus>
<clus scale="   44.152">  1  3  2 -1</clus>
</clustering>
</event>
<event>
 6    0  0.8777103E+002  0.2246705E+03  0.7546771E-02  0.1130448E+00
         21   -1    0    0  503  501  0.00000000000E+00  0.00000000000E+00  0.21609210769E+03  0.21609210769E+03  0.00000000000E+00 0. -1.
         21   -1    0    0  504  502 -0.00000000000E+00 -0.00000000000E+00 -0.50300283152E+03  0.50300283152E+03  0.00000000000E+00 0. -1.
         21    1    1    2  503  505 -0.45776885653E+02 -0.39831113434E+02  0.33981196523E+02  0.69546837272E+02  0.00000000000E+00 0. -1.
         21    1    1    2  504  501  0.17975690845E+03 -0.11675781560E+03  0.46202186803E+02  0.21927055366E+03  0.00000000000E+00 0. -1.
         21    1    1    2  505  506 -0.10116772674E+03  0.67961468722E+02 -0.26188072899E+03  0.28885149538E+03  0.00000000000E+00 0. -1.
         21    1    1    2  506  502 -0.32812296053E+02  0.88627460315E+02 -0.10521337817E+03  0.14142605290E+03  0.00000000000E+00 0. -1.
<scales pt_clust_3="60.67982" pt_clust_4="206.31739" pt_clust_5="76.98294" pt_clust_6="76.98294"></scales>
<clustering>
<clus scale="   60.680">  1  3  2 -1</clus>
<clus scale="   76.983">  5  6 -1 -1</clus>
<clus scale="  206.317">  1  4  2 -1</clus>
<clus scale="   60.680">  1  3  2 -1</clus>
</clustering>
</event>
<event>
 6    0  0.8777103E+002  0.1124326E+03  0.7546771E-02  0.1256130E+00
         21   -1    0    0  506  501  0.00000000000E+00  0.00000000000E+00  0.55523562309E+03  0.55523562309E+03  0.00000000000E+00 0.  1.
         21   -1    0    0  505  502 -0.00000000000E+00 -0.00000000000E+00 -0.19706743746E+03  0.19706743746E+03  0.00000000000E+00 0.  1.
         21    1    1    2  503  504  0.98743838160E+02 -0.12925501612E+01 -0.84469562012E+02  0.12995046428E+03  0.00000000000E+00 0.  1.
         21    1    1    2  504  501 -0.42836894733E+02 -0.65760782175E+01  0.25861842245E+03  0.26222458463E+03  0.00000000000E+00 0.  1.
         21    1    1    2  505  503  0.59796410444E+01 -0.58903987455E+02 -0.69181074416E+02  0.91057437381E+02  0.00000000000E+00 0. -1.
         21    1    1    2  506  502 -0.61886584472E+02  0.66772615834E+02  0.25320039961E+03  0.26907057425E+03  0.00000000000E+00 0.  1.
<scales pt_clust_3="14000.00000" pt_clust_4="43.33872" pt_clust_5="59.31069" pt_clust_6="112.43262"></scales>
<clustering>
<clus scale="   43.339">  1  4  2 -1</clus>
<clus scale="   59.311">  2  5  1 -1</clus>
<clus scale="  112.433">  1  6  2 -1</clus>
<clus scale="   43.339">  1  3  2 -1</clus>
</clustering>
</event>
<event>
 6    0  0.8777103E+002  0.1732685E+03  0.7546771E-02  0.1174482E+00
         21   -1    0    0  506  501  0.00000000000E+00  0.00000000000E+00  0.19915484201E+03  0.19915484201E+03  0.00000000000E+00 0. -1.
         21   -1    0    0  503  502 -0.00000000000E+00 -0.00000000000E+00 -0.11232239101E+04  0.11232239101E+04  0.00000000000E+00 0.  1.
         21    1    1    2  503  504 -0.19848190216E+02 -0.36785149678E+02 -0.31455850272E+03  0.31732341472E+03  0.00000000000E+00 0.  1.
         21    1    1    2  504  501  0.19056163065E+03 -0.12489597846E+03 -0.16593133731E+02  0.22844708928E+03  0.00000000000E+00 0. -1.
         21    1    1    2  505  502 -0.11887488377E+03  0.12843333570E+03 -0.66160262567E+03  0.68435692003E+03  0.00000000000E+00 0.  1.
         21    1    1    2  506  505 -0.51838556669E+02  0.33247792439E+02  0.68685194016E+02  0.92251328102E+02  0.00000000000E+00 0. -1.
<scales pt_clust_3="41.79830" pt_clust_4="14000.00000" pt_clust_5="173.26853" pt_clust_6="61.54151"></scales>
<clustering>
<clus scale="   41.798">  2  3  1 -1</clus>
<clus scale="   61.542">  1  6  2 -1</clus>
<clus scale="  173.269">  2  5  1 -1</clus>
<clus scale="   61.542">  1  3  2 -1</clus>
</clustering>
</event>
<event>
 6    0  0.8777103E+002  0.8242014E+02  0.7546771E-02  0.1322320E+00
         21   -1    0    0  506  501  0.00000000000E+00  0.00000000000E+00  0.23395163319E+03  0.23395163319E+03  0.00000000000E+00 0.  1.
         21   -1    0    0  504  502 -0.00000000000E+00 -0.00000000000E+00 -0.22746602222E+03  0.22746602222E+03  0.00000000000E+00 0.  1.
         21    1    1    2  503  501 -0.26396867329E+01 -0.62355888806E+02  0.26490759904E+02  0.67801070604E+02  0.00000000000E+00 0.  1.
         21    1    1    2  504  503 -0.11831099821E+02 -0.72222769754E+02 -0.45361249469E+02  0.86103114620E+02  0.00000000000E+00 0.  1.
         21    1    1    2  505  502 -0.45285183700E+02  0.87926355837E+02 -0.11274203610E+03  0.14997519334E+03  0.00000000000E+00 0.  1.
         21    1    1    2  506  505  0.59755970253E+02  0.46652302722E+02  0.13809813663E+03  0.15753827685E+03  0.00000000000E+00 0.  1.
<scales pt_clust_3="62.41174" pt_clust_4="82.42014" pt_clust_5="14000.00000" pt_clust_6="57.72989"></scales>
<clustering>
<clus scale="   62.412">  1  3  2 -1</clus>
<clus scale="   57.730">  1  6  2 -1</clus>
<clus scale="   82.420">  1  4  2 -1</clus>
<clus scale="   62.412">  1  3  2 -1</clus>
</clustering>
</event>
<event>
 6    0  0.8777103E+002  0.1620535E+03  0.7546771E-02  0.1186398E+00
         21   -1    0    0  504  501  0.00000000000E+00  0.00000000000E+00  0.10200824761E+03  0.10200824761E+03  0.00000000000E+00 0.  1.
         21   -1    0    0  505  502 -0.00000000000E+00 -0.00000000000E+00 -0.10734647705E+04  0.10734647705E+04  0.00000000000E+00 0.  1.
         21    1    1    2  503  506  0.17647800089E+03  0.19814947470E+02 -0.81649551730E+02  0.19545783749E+03  0.00000000000E+00 0.  1.
         21    1    1    2  504  503 -0.20272361262E+02  0.46944361953E+02  0.12675860525E+02  0.52682247393E+02  0.00000000000E+00 0. -1.
         21    1    1    2  505  501 -0.96693735126E+02 -0.10477703933E+03 -0.61242519846E+03  0.62880245713E+03  0.00000000000E+00 0.  1.
         21    1    1    2  506  502 -0.59511904498E+02  0.38017729909E+02 -0.29005763320E+03  0.29853047607E+03  0.00000000000E+00 0.  1.
<scales pt_clust_3="14000.00000" pt_clust_4="51.13455" pt_clust_5="162.05346" pt_clust_6="73.22795"></scales>
<clustering>
<clus scale="   51.135">  1  4  2 -1</clus>
<clus scale="   73.228">  2  6  1 -1</clus>
<clus scale="  162.053">  2  5  1 -1</clus>
<clus scale="   51.135">  1  3  2 -1</clus>
</clustering>
</event>
<event>
 6    0  0.8777103E+002  0.6305490E+02  0.7546771E-02  0.1385441E+00
         21   -1    0    0  506  501  0.00000000000E+00  0.00000000000E+00  0.13535615045E+03  0.13535615045E+03  0.00000000000E+00 0.  1.
         21   -1    0    0  503  502 -0.00000000000E+00 -0.00000000000E+00 -0.12612760344E+04  0.12612760344E+04  0.00000000000E+00 0. -1.
         21    1    1    2  503  505  0.66847707727E+01 -0.79869511329E+02 -0.10151029609E+04  0.10182621697E+04  0.00000000000E+00 0. -1.
         21    1    1    2  504  501  0.32470184820E+02 -0.39273708918E+02  0.28379546558E+02  0.58327830212E+02  0.00000000000E+00 0. -1.
         21    1    1    2  505  504 -0.72070463281E+02  0.84983342923E+02  0.52060292175E+02  0.12299022023E+03  0.00000000000E+00 0.  1.
         21    1    1    2  506  502  0.32915507688E+02  0.34159877324E+02 -0.19125676181E+03  0.19705196473E+03  0.00000000000E+00 0. -1.
<scales pt_clust_3="14000.00000" pt_clust_4="50.88736" pt_clust_5="63.05490" pt_clust_6="47.43762"></scales>
<clustering>
<clus scale="   47.438">  2  6  1 -1</clus>
<clus scale="   50.887">  1  4  2 -1</clus>
<clus scale="   63.055">  1  5  2 -1</clus>
<clus scale="   50.887">  1  3  2 -1</clus>
</clustering>
</event>
<event>
 6    0  0.8777103E+002  0.7143494E+02  0.7546771E-02  0.1355280E+00
         21   -1    0    0  506  501  0.00000000000E+00  0.00000000000E+00  0.90591880162E+03  0.90591880162E+03  0.00000000000E+00 0. -1.
         21   -1    0    0  505  502 -0.00000000000E+00 -0.00000000000E+00 -0.58779536366E+02  0.58779536366E+02  0.00000000000E+00 0. -1.
         21    1    1    2  503  502 -0.11797673784E+02  0.63145192049E+02  0.23248830345E+00  0.64238263024E+02  0.00000000000E+00 0. -1.
         21    1    1    2  504  501 -0.70327307296E+02  0.31557134325E+02  0.19883741980E+03  0.21325595511E+03  0.00000000000E+00 0. -1.
         21    1    1    2  505  504  0.31179955452E+02 -0.10206354578E+03  0.13754474426E+03  0.17409110739E+03  0.00000000000E+00 0. -1.
         21    1    1    2  506  503  0.50945025628E+02  0.73612194049E+01  0.51052461289E+03  0.51311301246E+03  0.00000000000E+00 0. -1.
<scales pt_clust_3="14000.00000" pt_clust_4="56.23649" pt_clust_5="71.43494" pt_clust_6="51.47410"></scales>
<clustering>
<clus scale="   51.474">  1  6  2 -1</clus>
<clus scale="   56.236">  1  4  2 -1</clus>
<clus scale="   71.435">  1  5  2 -1</clus>
<clus scale="   51.474">  1  3  2 -1</clus>
</clustering>
</event>
<event>
 6    0  0.8777103E+002  0.1202946E+03  0.7546771E-02  0.1242612E+00
         21   -1    0    0  503  501  0.00000000000E+00  0.00000000000E+00  0.73582371898E+03  0.73582371898E+03  0.00000000000E+00 0.  1.
         21   -1    0    0  504  502 -0.00000000000E+00 -0.00000000000E+00 -0.87803928889E+02  0.87803928889E+02  0.00000000000E+00 0.  1.
         21    1    1    2  503  505  0.29567132042E+02  0.55061945743E+02  0.13950586932E+03  0.15286569511E+03  0.00000000000E+00 0.  1.
         21    1    1    2  504  501 -0.69176069224E+02  0.15019993345E+03  0.13090465016E+03  0.21090608336E+03  0.00000000000E+00 0.  1.
         21    1    1    2  505  506  0.52552636233E+02 -0.11190861313E+03  0.33373153769E+03  0.35589613164E+03  0.00000000000E+00 0.  1.
         21    1    1    2  506  502 -0.12943699052E+02 -0.93353266061E+02  0.43877732915E+02  0.10395973776E+03  0.00000000000E+00 0.  1.
<scales pt_clust_3="62.49827" pt_clust_4="14000.00000" pt_clust_5="120.29456" pt_clust_6="86.94262"></scales>
<clustering>
<clus scale="   62.498">  1  3  2 -1</clus>
<clus scale="   86.943">  2  6  1 -1</clus>
<clus scale="  120.295">  1  5  2 -1</clus>
<clus scale="   62.498">  1  3  2 -1</clus>
</clustering>
</event>
<event>
 6    0  0.8777103E+002  0.8507466E+02  0.7546771E-02  0.1315237E+00
         21   -1    0    0  503  501  0.00000000000E+00  0.00000000000E+00  0.41706875072E+03  0.41706875072E+03  0.00000000000E+00 0.  1.
         21   -1    0    0  506  502 -0.00000000000E+00 -0.00000000000E+00 -0.23356860223E+03  0.23356860223E+03  0.00000000000E+00 0. -1.
         21    1    1    2  503  505 -0.32122192704E+02  0.17730035607E+01  0.33707944152E+03  0.33861117628E+03  0.00000000000E+00 0.  1.
         21    1    1    2  504  502  0.64212726673E+02  0.41171942889E+02 -0.80812087804E+02  0.11112603963E+03  0.00000000000E+00 0. -1.
         21    1    1    2  505  504  0.73623937852E+02 -0.21118876369E+02 -0.13558134524E+02  0.77783765502E+02  0.00000000000E+00 0.  1.
         21    1    1    2  506  501 -0.10571447182E+03 -0.21826070081E+02 -0.59209070701E+02  0.12311637154E+03  0.00000000000E+00 0.  1.
<scales pt_clust_3="32.17109" pt_clust_4="14000.00000" pt_clust_5="63.94479" pt_clust_6="85.07466"></scales>
<clustering>
<clus scale="   32.171">  1  3  2 -1</clus>
<clus scale="   63.945">  1  5  2 -1</clus>
<clus scale="   85.075">  1  6  2 -1</clus>
<clus scale="   32.171">  1  3  2 -1</clus>
</clustering>
</event>
<event>
 6    0  0.8777103E+002  0.8571295E+02  0.7546771E-02  0.1313579E+00
         21   -1    0    0  503  501  0.00000000000E+00  0.00000000000E+00  0.31055618816E+03  0.31055618816E+03  0.00000000000E+00 0. -1.
         21   -1    0    0  504  502 -0.00000000000E+00 -0.00000000000E+00 -0.27186140326E+03  0.27186140326E+03  0.00000000000E+00 0. -1.
         21    1    1    2  503  506  0.72732805680E+01 -0.60190280842E+02  0.25658674894E+03  0.26365229043E+03  0.00000000000E+00 0. -1.
         21    1    1    2  504  501  0.82530528048E+01  0.30147440793E+02 -0.71075236581E+02  0.77644512504E+02  0.00000000000E+00 0. -1.
         21    1    1    2  505  502  0.75962753353E+02  0.15998666964E+02 -0.12316137641E+03  0.14558510185E+03  0.00000000000E+00 0. -1.
         21    1    1    2  506  505 -0.91489086725E+02  0.14044173084E+02 -0.23655351045E+02  0.95535686634E+02  0.00000000000E+00 0. -1.
<scales pt_clust_3="60.11085" pt_clust_4="31.25670" pt_clust_5="85.71295" pt_clust_6="14000.00000"></scales>
<clustering>
<clus scale="   31.257">  2  4  1 -1</clus>
<clus scale="   60.111">  1  3  2 -1</clus>
<clus scale="   85.713">  2  5  1 -1</clus>
<clus scale="   60.111">  1  3  2 -1</clus>
</clustering>
</event>
<event>
 6    0  0.8777103E+002  0.1423520E+03  0.7546771E-02  0.1210199E+00
         21   -1    0    0  504  501  0.00000000000E+00  0.00000000000E+00  0.19128960861E+04  0.19128960861E+04  0.00000000000E+00 0. -1.
         21   -1    0    0  506  502 -0.00000000000E+00 -0.00000000000E+00 -0.31751467211E+02  0.31751467211E+02  0.00000000000E+00 0. -1.
         21    1    1    2  503  501  0.68554882768E+02  0.61442221173E+01  0.53242502561E+03  0.53685559633E+03  0.00000000000E+00 0. -1.
         21    1    1    2  504  502 -0.16547752863E+03  0.10399417710E+02  0.51207130984E+03  0.53824528491E+03  0.00000000000E+00 0. -1.
         21    1    1    2  505  503  0.61396580801E+02  0.12791960219E+02  0.81709224854E+03  0.81949552592E+03  0.00000000000E+00 0. -1.
         21    1    1    2  506  505  0.35526065063E+02 -0.29335600046E+02  0.19556034891E+02  0.50051146137E+02  0.00000000000E+00 0. -1.
<scales pt_clust_3="33.68801" pt_clust_4="137.90784" pt_clust_5="33.68801" pt_clust_6="46.07254"></scales>
<clustering>
<clus scale="   33.688">  3  5 -1 -1</clus>
<clus scale="   46.073">  2  6  1 -1</clus>
<clus scale="  137.908">  2  4  1 -1</clus>
<clus scale="  142.352">  1  3  2 -1</clus>
</clustering>
</event>
<event>
 6    0  0.8777103E+002  0.8493792E+02  0.7546771E-02  0.1315595E+00
         21   -1    0    0  505  501  0.00000000000E+00  0.00000000000E+00  0.11783125726E+03  0.11783125726E+03  0.00000000000E+00 0. -1.
         21   -1    0    0  504  502 -0.00000000000E+00 -0.00000000000E+00 -0.40672409143E+03  0.40672409143E+03  0.00000000000E+00 0. -1.
         21    1    1    2  503  502 -0.37616090987E+02  0.38787293210E+02 -0.23411330438E+03  0.24026748366E+03  0.00000000000E+00 0. -1.
         21    1    1    2  504  506  0.32750363235E+02  0.55518369053E+02 -0.82748133364E+02  0.10489103474E+03  0.00000000000E+00 0. -1.
         21    1    1    2  505  503 -0.29024541988E+02 -0.10622106483E+03 -0.27328091062E+02  0.11345555611E+03  0.00000000000E+00 0. -1.
         21    1    1    2  506  501  0.33890269741E+02  0.11915402568E+02  0.55296694638E+02  0.65941274171E+02  0.00000000000E+00 0.  1.
<scales pt_clust_3="53.25169" pt_clust_4="14000.00000" pt_clust_5="84.93792" pt_clust_6="35.92391"></scales>
<clustering>
<clus scale="   35.924">  1  6  2 -1</clus>
<clus scale="   53.252">  2  3  1 -1</clus>
<clus scale="   84.938">  1  5  2 -1</clus>
<clus scale="   35.924">  1  3  2 -1</clus>
</clustering>
</event>
<event>
 6    0  0.8777103E+002  0.8356525E+02  0.7546771E-02  0.1319228E+00
         21   -1    0    0  505  501  0.00000000000E+00  0.00000000000E+00  0.33586943774E+02  0.33586943774E+02  0.00000000000E+00 0. -1.
         21   -1    0    0  504  502 -0.00000000000E+00 -0.00000000000E+00 -0.81498364015E+03  0.81498364015E+03  0.00000000000E+00 0.  1.
         21    1    1    2  503  502 -0.89607014495E+02  0.26412227035E+02 -0.10613341830E+03  0.14139068309E+03  0.00000000000E+00 0. -1.
         21    1    1    2  504  506  0.81926745024E+02  0.15337031645E+02 -0.56636059326E+03  0.57246094861E+03  0.00000000000E+00 0.  1.
         21    1    1    2  505  503  0.33494073911E+02 -0.11776794555E+02 -0.30103294901E+02  0.46548407503E+02  0.00000000000E+00 0.  1.
         21    1    1    2  506  501 -0.25813804440E+02 -0.29972464125E+02 -0.78799389915E+02  0.88170544721E+02  0.00000000000E+00 0. -1.
<scales pt_clust_3="14000.00000" pt_clust_4="83.56525" pt_clust_5="35.50417" pt_clust_6="37.66551"></scales>
<clustering>
<clus scale="   35.504">  1  5  2 -1</clus>
<clus scale="   37.666">  1  6  2 -1</clus>
<clus scale="   83.565">  2  4  1 -1</clus>
<clus scale="   35.504">  1  3  2 -1</clus>
</clustering>
</event>
<event>
 6    0  0.8777103E+002  0.9380607E+02  0.7546771E-02  0.1293888E+00
         21   -1    0    0  504  501  0.00000000000E+00  0.00000000000E+00  0.12302494828E+04  0.12302494828E+04  0.00000000000E+00 0. -1.
         21   -1    0    0  506  502 -0.00000000000E+00 -0.00000000000E+00 -0.21919370244E+03  0.21919370244E+03  0.00000000000E+00 0.  1.
         21    1    1    2  503  502 -0.24335102768E+02  0.33016112273E+02 -0.90109625014E+02  0.99005077731E+02  0.00000000000E+00 0.  1.
         21    1    1    2  504  503  0.47569050635E+02  0.43331175812E+02  0.10804896554E+04  0.10824039453E+04  0.00000000000E+00 0. -1.
         21    1    1    2  505  501  0.49089010054E+02 -0.43116924361E+02  0.12247562302E+03  0.13881310568E+03  0.00000000000E+00 0.  1.
         21    1    1    2  506  505 -0.72322957920E+02 -0.33230363724E+02 -0.10179987301E+03  0.12922105657E+03  0.00000000000E+00 0.  1.
<scales pt_clust_3="41.01537" pt_clust_4="93.80607" pt_clust_5="62.71234" pt_clust_6="14000.00000"></scales>
<clustering>
<clus scale="   41.015">  2  3  1 -1</clus>
<clus scale="   62.712">  1  5  2 -1</clus>
<clus scale="   93.806">  1  4  2 -1</clus>
<clus scale="   62.712">  1  3  2 -1</clus>
</clustering>
</event>
<event>
 6    0  0.8777103E+002  0.1683495E+03  0.7546771E-02  0.1179580E+00
         21   -1    0    0  504  501  0.00000000000E+00  0.00000000000E+00  0.55752124544E+03  0.55752124544E+03  0.00000000000E+00 0.  1.
         21   -1    0    0  506  502 -0.00000000000E+00 -0.00000000000E+00 -0.47118317696E+03  0.47118317696E+03  0.00000000000E+00 0.  1.
         21    1    1    2  503  501 -0.12131606675E+03  0.19340989131E+02  0.30543589510E+03  0.32921535190E+03  0.00000000000E+00 0.  1.
         21    1    1    2  504  502 -0.22550738917E+02  0.76089079854E+02  0.11458568584E+03  0.13938422902E+03  0.00000000000E+00 0. -1.
         21    1    1    2  505  503  0.21675203367E+03 -0.55011992125E+02 -0.78289498023E+01  0.22376115801E+03  0.00000000000E+00 0.  1.
         21    1    1    2  506  505 -0.72885228005E+02 -0.40418076860E+02 -0.32585456267E+03  0.33634368347E+03  0.00000000000E+00 0.  1.
<scales pt_clust_3="14000.00000" pt_clust_4="79.36047" pt_clust_5="168.34952" pt_clust_6="83.13802"></scales>
<clustering>
<clus scale="   79.360">  1  4  2 -1</clus>
<clus scale="   83.138">  2  6  1 -1</clus>
<clus scale="  168.350">  2  5  1 -1</clus>
<clus scale="   79.360">  1  3  2 -1</clus>
</clustering>
</event>
<event>
 6    0  0.8777103E+002  0.1970515E+03  0.7546771E-02  0.1152251E+00
         21   -1    0    0  505  501  0.00000000000E+00  0.00000000000E+00  0.19080316139E+04  0.19080316139E+04  0.00000000000E+00 0. -1.
         21   -1    0    0  504  502 -0.00000000000E+00 -0.00000000000E+00 -0.11047100675E+03  0.11047100675E+03  0.00000000000E+00 0. -1.
         21    1    1    2  503  501  0.10103370302E+02 -0.42710242882E+02  0.22854487173E+03  0.23272086570E+03  0.00000000000E+00 0.  1.
         21    1    1    2  504  503 -0.36712160198E+02 -0.18066047022E+03  0.37738444673E+02  0.18817592411E+03  0.00000000000E+00 0. -1.
         21    1    1    2  505  506 -0.12196003670E+03 -0.39775615900E+02  0.73108078193E+03  0.74225026769E+03  0.00000000000E+00 0. -1.
         21    1    1    2  506  502  0.14856882660E+03  0.26314632901E+03  0.80019650885E+03  0.85535556319E+03  0.00000000000E+00 0. -1.
<scales pt_clust_3="43.88898" pt_clust_4="14000.00000" pt_clust_5="131.29249" pt_clust_6="197.05151"></scales>
<clustering>
<clus scale="   43.889">  1  3  2 -1</clus>
<clus scale="  131.292">  1  5  2 -1</clus>
<clus scale="  197.052">  1  6  2 -1</clus>
<clus scale="   43.889">  1  3  2 -1</clus>
</clustering>
</event>
<event>
 6    0  0.8777103E+002  0.2097804E+03  0.7546771E-02  0.1141740E+00
         21   -1    0    0  504  501  0.00000000000E+00  0.00000000000E+00  0.19594291206E+03  0.19594291206E+03  0.00000000000E+00 0.  1.
         21   -1    0    0  505  502 -0.00000000000E+00 -0.00000000000E+00 -0.66439541137E+03  0.66439541137E+03  0.00000000000E+00 0. -1.
         21    1    1    2  503  502 -0.50786522457E+02 -0.15836306654E+03 -0.41970903083E+03  0.45145742021E+03  0.00000000000E+00 0. -1.
         21    1    1    2  504  503 -0.39606210441E+02 -0.11267160278E+02 -0.14116486940E+03  0.14704802331E+03  0.00000000000E+00 0. -1.
         21    1    1    2  505  506  0.12139314037E+03  0.16145620547E+03  0.49001430530E+02  0.20785942608E+03  0.00000000000E+00 0.  1.
         21    1    1    2  506  501 -0.31000407474E+02  0.81740213388E+01  0.43419970391E+02  0.53973453819E+02  0.00000000000E+00 0.  1.
<scales pt_clust_3="40.92626" pt_clust_4="40.92626" pt_clust_5="193.19379" pt_clust_6="32.05994"></scales>
<clustering>
<clus scale="   32.060">  1  6  2 -1</clus>
<clus scale="   40.926">  3  4 -1 -1</clus>
<clus scale="  193.194">  1  5  2 -1</clus>
<clus scale="   32.060">  1  3  2 -1</clus>
</clustering>
</event>
<event>
 6    0  0.8777103E+002  0.1252844E+03  0.7546771E-02  0.1234626E+00
         21   -1    0    0  506  501  0.00000000000E+00  0.00000000000E+00  0.29712848230E+03  0.29712848230E+03  0.00000000000E+00 0. -1.
         21   -1    0    0  504  502 -0.00000000000E+00 -0.00000000000E+00 -0.78594325685E+03  0.78594325685E+03  0.00000000000E+00 0. -1.
         21    1    1    2  503  505 -0.62149061614E+01 -0.42959584824E+02 -0.26537700721E+01  0.43487854424E+02  0.00000000000E+00 0.  1.
         21    1    1    2  504  503 -0.11424050481E+03  0.56207431802E+02 -0.70038577409E+03  0.71186403257E+03  0.00000000000E+00 0. -1.
         21    1    1    2  505  501 -0.91417289908E+00 -0.35188445142E+02  0.20056321124E+03  0.20362874082E+03  0.00000000000E+00 0. -1.
         21    1    1    2  506  502  0.12136958387E+03  0.21940598164E+02  0.13661558364E+02  0.12409111134E+03  0.00000000000E+00 0. -1.
<scales pt_clust_3="50.92476" pt_clust_4="125.28438" pt_clust_5="35.20032" pt_clust_6="14000.00000"></scales>
<clustering>
<clus scale="   35.200">  1  5  2 -1</clus>
<clus scale="   50.925">  1  3  2 -1</clus>
<clus scale="  125.284">  2  4  1 -1</clus>
<clus scale="   35.200">  1  3  2 -1</clus>
</clustering>
</event>
<event>
 6    0  0.8777103E+002  0.1453970E+03  0.7546771E-02  0.1206246E+00
         21   -1    0    0  503  501  0.00000000000E+00  0.00000000000E+00  0.22423973374E+03  0.22423973374E+03  0.00000000000E+00 0.  1.
         21   -1    0    0  505  502 -0.00000000000E+00 -0.00000000000E+00 -0.75567861340E+03  0.75567861340E+03  0.00000000000E+00 0.  1.
         21    1    1    2  503  502 -0.41634316760E+02 -0.32728360492E+02 -0.17428161461E+03  0.18215005655E+03  0.00000000000E+00 0.  1.
         21    1    1    2  504  501 -0.20300195474E+02 -0.14651121949E+03  0.76135206167E+02  0.16635565813E+03  0.00000000000E+00 0.  1.
         21    1    1    2  505  506 -0.43150065215E+02  0.61873989024E+02 -0.46469492577E+03  0.47077775296E+03  0.00000000000E+00 0.  1.
         21    1    1    2  506  504  0.10508457745E+03  0.11736559096E+03  0.31402454554E+02  0.16063487950E+03  0.00000000000E+00 0.  1.
<scales pt_clust_3="52.95811" pt_clust_4="14000.00000" pt_clust_5="84.61763" pt_clust_6="145.39696"></scales>
<clustering>
<clus scale="   52.958">  2  3  1 -1</clus>
<clus scale="   84.618">  2  5  1 -1</clus>
<clus scale="  145.397">  2  6  1 -1</clus>
<clus scale="  145.397">  1  3  2 -1</clus>
</clustering>
</event>
<event>
 6    0  0.8777103E+002  0.1110308E+03  0.7546771E-02  0.1258673E+00
         21   -1    0    0  503  501  0.00000000000E+00  0.00000000000E+00  0.10219376397E+04  0.10219376397E+04  0.00000000000E+00 0. -1.
         21   -1    0    0  505  502 -0.00000000000E+00 -0.00000000000E+00 -0.32586334395E+02  0.32586334395E+02  0.00000000000E+00 0. -1.
         21    1    1    2  503  504 -0.51987979771E+02  0.11646773888E+03  0.56303911664E+03  0.57730453931E+03  0.00000000000E+00 0. -1.
         21    1    1    2  504  502  0.10966604164E+02 -0.82977018024E+02  0.12279205300E+03  0.14860464396E+03  0.00000000000E+00 0. -1.
         21    1    1    2  505  506 -0.36661832667E+02 -0.19318652238E+01  0.53306616901E+02  0.64725709599E+02  0.00000000000E+00 0. -1.
         21    1    1    2  506  501  0.77683208274E+02 -0.31558855634E+02  0.25021351876E+03  0.26388908122E+03  0.00000000000E+00 0. -1.
<scales pt_clust_3="111.03084" pt_clust_4="14000.00000" pt_clust_5="36.71270" pt_clust_6="75.49680"></scales>
<clustering>
<clus scale="   36.713">  2  5  1 -1</clus>
<clus scale="   75.497">  2  6  1 -1</clus>
<clus scale="  111.031">  1  3  2 -1</clus>
<clus scale="  111.031">  1  3  2 -1</clus>
</clustering>
</event>
<event>
 6    0  0.8777103E+002  0.1535965E+03  0.7546771E-02  0.1196122E+00
         21   -1    0    0  503  501  0.00000000000E+00  0.00000000000E+00  0.56763352480E+03  0.56763352480E+03  0.00000000000E+00 0.  1.
         21   -1    0    0  504  502 -0.00000000000E+00 -0.00000000000E+00 -0.49198607934E+03  0.49198607934E+03  0.00000000000E+00 0.  1.
         21    1    1    2  503  502 -0.69343420285E+01 -0.18601735917E+03  0.45587927936E+03  0.49241898863E+03  0.00000000000E+00 0.  1.
         21    1    1    2  504  506 -0.31873125120E+02  0.31269183835E+02 -0.22823738154E+03  0.23256388433E+03  0.00000000000E+00 0.  1.
         21    1    1    2  505  501  0.33863128415E+02  0.32862230326E+02  0.68186605074E+02  0.82921955835E+02  0.00000000000E+00 0.  1.
         21    1    1    2  506  505  0.49443387329E+01  0.12188594501E+03 -0.22018105744E+03  0.25171477535E+03  0.00000000000E+00 0.  1.
<scales pt_clust_3="153.59653" pt_clust_4="44.65040" pt_clust_5="47.17313" pt_clust_6="14000.00000"></scales>
<clustering>
<clus scale="   44.650">  2  4  1 -1</clus>
<clus scale="   47.173">  1  5  2 -1</clus>
<clus scale="  153.597">  1  3  2 -1</clus>
<clus scale="   47.173">  1  3  2 -1</clus>
</clustering>
</event>
<event>
 6    0  0.8777103E+002  0.1178891E+03  0.7546771E-02  0.1246621E+00
         21   -1    0    0  503  501  0.00000000000E+00  0.00000000000E+00  0.60748608918E+03  0.60748608918E+03  0.00000000000E+00 0. -1.
         21   -1    0    0  505  502 -0.00000000000E+00 -0.00000000000E+00 -0.17722909770E+03  0.17722909770E+03  0.00000000000E+00 0. -1.
         21    1    1    2  503  502  0.58433471513E+02 -0.61266612077E+02  0.17288239464E+03  0.19250036552E+03  0.00000000000E+00 0. -1.
         21    1    1    2  504  501 -0.17341527535E+03  0.24420130973E+02  0.29191781982E+03  0.34041917404E+03  0.00000000000E+00 0. -1.
         21    1    1    2  505  506  0.28314729088E+02  0.19614125506E+02 -0.12242053055E+03  0.12717399145E+03  0.00000000000E+00 0. -1.
         21    1    1    2  506  504  0.86667074750E+02  0.17232355599E+02  0.87877307567E+02  0.12462165586E+03  0.00000000000E+00 0. -1.
<scales pt_clust_3="85.90126" pt_clust_4="117.88911" pt_clust_5="34.44471" pt_clust_6="14000.00000"></scales>
<clustering>
<clus scale="   34.445">  2  5  1 -1</clus>
<clus scale="   85.901">  1  3  2 -1</clus>
<clus scale="  117.889">  1  4  2 -1</clus>
<clus scale="   85.901">  1  3  2 -1</clus>
</clustering>
</event>
<event>
 6    0  0.8777103E+002  0.1337074E+03  0.7546771E-02  0.1222056E+00
         21   -1    0    0  503  501  0.00000000000E+00  0.00000000000E+00  0.34913159757E+03  0.34913159757E+03  0.00000000000E+00 0. -1.
         21   -1    0    0  505  502 -0.00000000000E+00 -0.00000000000E+00 -0.10040804469E+03  0.10040804469E+03  0.00000000000E+00 0.  1.
         21    1    1    2  503  506 -0.71328365930E+02 -0.33168879750E+02 -0.13926061548E+01  0.78675598009E+02  0.00000000000E+00 0.  1.
         21    1    1    2  504  501  0.64825462710E+02  0.39362257907E+02  0.16844456535E+03  0.18473034282E+03  0.00000000000E+00 0. -1.
         21    1    1    2  505  504  0.56233453904E+02 -0.74920508172E+01  0.11363073246E+03  0.12700502165E+03  0.00000000000E+00 0. -1.
         21    1    1    2  506  502 -0.49730550684E+02  0.12986726609E+01 -0.31959138771E+02  0.59128679784E+02  0.00000000000E+00 0.  1.
<scales pt_clust_3="37.35701" pt_clust_4="132.71196" pt_clust_5="38.10886" pt_clust_6="37.35701"></scales>
<clustering>
<clus scale="   37.357">  3  6 -1 -1</clus>
<clus scale="   38.109">  4  5 -1 -1</clus>
<clus scale="  132.712">  1  4  2 -1</clus>
<clus scale="  132.712">  1  3  2 -1</clus>
</clustering>
</event>
<event>
 6    0  0.8777103E+002  0.1130134E+03  0.7546771E-02  0.1255089E+00
         21   -1    0    0  503  501  0.00000000000E+00  0.00000000000E+00  0.70821916908E+02  0.70821916908E+02  0.00000000000E+00 0. -1.
         21   -1    0    0  506  502 -0.00000000000E+00 -0.00000000000E+00 -0.95266887054E+03  0.95266887054E+03  0.00000000000E+00 0. -1.
         21    1    1    2  503  505  0.31058247107E+02  0.33643326291E+02  0.19102387271E+02  0.49612390758E+02  0.00000000000E+00 0.  1.
         21    1    1    2  504  502  0.10917930589E+03 -0.23091184952E+02 -0.60772023887E+03  0.61788122839E+03  0.00000000000E+00 0. -1.
         21    1    1    2  505  504 -0.31895020120E+02 -0.69005537577E+02 -0.14131666680E+03  0.16046637293E+03  0.00000000000E+00 0.  1.
         21    1    1    2  506  501 -0.10834253288E+03  0.58453396238E+02 -0.15191243522E+03  0.19553079537E+03  0.00000000000E+00 0. -1.
<scales pt_clust_3="45.78742" pt_clust_4="113.01338" pt_clust_5="64.68525" pt_clust_6="14000.00000"></scales>
<clustering>
<clus scale="   45.787">  1  3  2 -1</clus>
<clus scale="   64.685">  1  5  2 -1</clus>
<clus scale="  113.013">  2  4  1 -1</clus>
<clus scale="   45.787">  1  3  2 -1</clus>
</clustering>
</event>
<event>
 6    0  0.8777103E+002  0.7274754E+02  0.7546771E-02  0.1350992E+00
         21   -1    0    0  505  501  0.00000000000E+00  0.00000000000E+00  0.63140548395E+02  0.63140548395E+02  0.00000000000E+00 0. -1.
         21   -1    0    0  506  502 -0.00000000000E+00 -0.00000000000E+00 -0.56646423049E+03  0.56646423049E+03  0.00000000000E+00 0. -1.
         21    1    1    2  503  504 -0.60978076623E+02 -0.77669920704E+02 -0.12937444636E+03  0.16275346319E+03  0.00000000000E+00 0. -1.
         21    1    1    2  504  502  0.26047923303E+02  0.35557511600E+02 -0.34936679720E+03  0.35213632292E+03  0.00000000000E+00 0. -1.
         21    1    1    2  505  503 -0.32033298249E+02 -0.16062395982E+01 -0.65378939942E+01  0.32733106486E+02  0.00000000000E+00 0. -1.
         21    1    1    2  506  501  0.66963451569E+02  0.43718648702E+02 -0.18044544548E+02  0.81981886282E+02  0.00000000000E+00 0. -1.
<scales pt_clust_3="14000.00000" pt_clust_4="43.52332" pt_clust_5="32.07354" pt_clust_6="72.74754"></scales>
<clustering>
<clus scale="   32.074">  1  5  2 -1</clus>
<clus scale="   43.523">  2  4  1 -1</clus>
<clus scale="   72.748">  1  6  2 -1</clus>
<clus scale="   32.074">  1  3  2 -1</clus>
</clustering>
</event>
<event>
 6    0  0.8777103E+002  0.8275924E+02  0.7546771E-02  0.1321399E+00
         21   -1    0    0  503  501  0.00000000000E+00  0.00000000000E+00  0.65081233508E+03  0.65081233508E+03  0.00000000000E+00 0.  1.
         21   -1    0    0  504  502 -0.00000000000E+00 -0.00000000000E+00 -0.27471474023E+03  0.27471474023E+03  0.00000000000E+00 0. -1.
         21    1    1    2  503  506 -0.10092446263E+02 -0.61069117286E+02  0.50756325960E+02  0.80046856170E+02  0.00000000000E+00 0.  1.
         21    1    1    2  504  505  0.83982203333E+02  0.25471261356E+02 -0.11357505992E+03  0.14353079763E+03  0.00000000000E+00 0. -1.
         21    1    1    2  505  501 -0.82441930608E+02 -0.63888439564E+01  0.56384536971E+03  0.56987638150E+03  0.00000000000E+00 0.  1.
         21    1    1    2  506  502  0.85521735380E+01  0.41986699887E+02 -0.12492904090E+03  0.13207304002E+03  0.00000000000E+00 0. -1.
<scales pt_clust_3="57.60875" pt_clust_4="82.75924" pt_clust_5="14000.00000" pt_clust_6="42.84883"></scales>
<clustering>
<clus scale="   42.849">  2  6  1 -1</clus>
<clus scale="   57.609">  2  3  1 -1</clus>
<clus scale="   82.759">  2  4  1 -1</clus>
<clus scale="   82.759">  1  3  2 -1</clus>
</clustering>
</event>
<event>
 6    0  0.8777103E+002  0.1376130E+03  0.7546771E-02  0.1216577E+00
         21   -1    0    0  503  501  0.00000000000E+00  0.00000000000E+00  0.22502076243E+03  0.22502076243E+03  0.00000000000E+00 0.  1.
         21   -1    0    0  505  502 -0.00000000000E+00 -0.00000000000E+00 -0.55377724039E+03  0.55377724039E+03  0.00000000000E+00 0.  1.
         21    1    1    2  503  506  0.10658615212E+03 -0.26264898921E+02  0.20716101337E+02  0.11171217299E+03  0.00000000000E+00 0. -1.
         21    1    1    2  504  502  0.68560185742E+02  0.98495222330E+02  0.16817227820E+02  0.12118014294E+03  0.00000000000E+00 0.  1.
         21    1    1    2  505  501 -0.28838215378E+02  0.14711388482E+02 -0.37413602208E+03  0.37553406055E+03  0.00000000000E+00 0.  1.
         21    1    1    2  506  504 -0.14630812249E+03 -0.86941711891E+02  0.78462149600E+01  0.17037162634E+03  0.00000000000E+00 0.  1.
<scales pt_clust_3="101.77744" pt_clust_4="14000.00000" pt_clust_5="32.37387" pt_clust_6="137.61299"></scales>
<clustering>
<clus scale="   32.374">  2  5  1 -1</clus>
<clus scale="  101.777">  1  3  2 -1</clus>
<clus scale="  137.613">  1  6  2 -1</clus>
<clus scale="  101.777">  1  3  2 -1</clus>
</clustering>
</event>
<event>
 6    0  0.8777103E+002  0.7511787E+02  0.7546771E-02  0.1343506E+00
         21   -1    0    0  504  501  0.00000000000E+00  0.00000000000E+00  0.39165138612E+03  0.39165138612E+03  0.00000000000E+00 0.  1.
         21   -1    0    0  506  502 -0.00000000000E+00 -0.00000000000E+00 -0.91459955707E+03  0.91459955707E+03  0.00000000000E+00 0.  1.
         21    1    1    2  503  502  0.35687069088E+02 -0.23273342518E+02 -0.72859963541E+03  0.72984426016E+03  0.00000000000E+00 0.  1.
         21    1    1    2  504  505  0.24905692829E+02 -0.48693458207E+02  0.18426901637E+03  0.19221450726E+03  0.00000000000E+00 0.  1.
         21    1    1    2  505  503 -0.88342185634E+02  0.89145035800E+02  0.18156465183E+03  0.22071905664E+03  0.00000000000E+00 0.  1.
         21    1    1    2  506  501  0.27749423717E+02 -0.17178235075E+02 -0.16018220374E+03  0.16347311911E+03  0.00000000000E+00 0. -1.
<scales pt_clust_3="75.11787" pt_clust_4="54.84068" pt_clust_5="14000.00000" pt_clust_6="32.63621"></scales>
<clustering>
<clus scale="   32.636">  2  6  1 -1</clus>
<clus scale="   54.841">  1  4  2 -1</clus>
<clus scale="   75.118">  2  3  1 -1</clus>
<clus scale="   54.841">  1  3  2 -1</clus>
</clustering>
</event>
<event>
 6    0  0.8777103E+002  0.1606036E+03  0.7546771E-02  0.1188017E+00
         21   -1    0    0  506  501  0.00000000000E+00  0.00000000000E+00  0.35891949997E+03  0.35891949997E+03  0.00000000000E+00 0. -1.
         21   -1    0    0  503  502 -0.00000000000E+00 -0.00000000000E+00 -0.38289255605E+03  0.38289255605E+03  0.00000000000E+00 0. -1.
         21    1    1    2  503  501  0.64588533837E+02  0.18829917219E+03 -0.12514946743E+03  0.23513963117E+03  0.00000000000E+00 0. -1.
         21    1    1    2  504  502 -0.59385151402E+02 -0.21070061781E+02 -0.11271268616E+03  0.12913052827E+03  0.00000000000E+00 0. -1.
         21    1    1    2  505  504 -0.76965892035E+02 -0.11195295473E+03 -0.97975191191E+01  0.13621014643E+03  0.00000000000E+00 0. -1.
         21    1    1    2  506  505  0.71762509600E+02 -0.55276155671E+02  0.22368661663E+03  0.24133175015E+03  0.00000000000E+00 0. -1.
<scales pt_clust_3="14000.00000" pt_clust_4="63.01225" pt_clust_5="160.60360" pt_clust_6="89.44953"></scales>
<clustering>
<clus scale="   63.012">  2  4  1 -1</clus>
<clus scale="   89.450">  1  6  2 -1</clus>
<clus scale="  160.604">  1  5  2 -1</clus>
<clus scale="   89.450">  1  3  2 -1</clus>
</clustering>
</event>
<event>
 6    0  0.8777103E+002  0.1180132E+03  0.7546771E-02  0.1246411E+00
         21   -1    0    0  506  501  0.00000000000E+00  0.00000000000E+00  0.52837407705E+03  0.52837407705E+03  0.00000000000E+00 0.  1.
         21   -1    0    0  504  502 -0.00000000000E+00 -0.00000000000E+00 -0.99562994366E+02  0.99562994366E+02  0.00000000000E+00 0.  1.
         21    1    1    2  503  505 -0.45170615727E+02  0.21627418203E+02 -0.37641793796E+02  0.62650094840E+02  0.00000000000E+00 0.  1.
         21    1    1    2  504  503 -0.33640136353E+02  0.24598952924E+02  0.10450923672E+02  0.42964974857E+02  0.00000000000E+00 0.  1.
         21    1    1    2  505  501 -0.39140935015E+02 -0.11242341322E+03  0.22848084989E+03  0.25763255890E+03  0.00000000000E+00 0.  1.
         21    1    1    2  506  502  0.11795168710E+03  0.66197042097E+02  0.22752110292E+03  0.26468944283E+03  0.00000000000E+00 0.  1.
<scales pt_clust_3="102.05488" pt_clust_4="41.47514" pt_clust_5="14000.00000" pt_clust_6="118.01316"></scales>
<clustering>
<clus scale="   41.475">  3  4 -1 -1</clus>
<clus scale="  102.055">  2  3  1 -1</clus>
<clus scale="  118.013">  2  6  1 -1</clus>
<clus scale="  118.013">  1  3  2 -1</clus>
</clustering>
</event>
<event>
 6    0  0.8777103E+002  0.6482492E+02  0.7546771E-02  0.1378631E+00
         21   -1    0    0  503  501  0.00000000000E+00  0.00000000000E+00  0.27726664100E+03  0.27726664100E+03  0.00000000000E+00 0. -1.
         21   -1    0    0  505  502 -0.00000000000E+00 -0.00000000000E+00 -0.21260390152E+03  0.21260390152E+03  0.00000000000E+00 0. -1.
         21    1    1    2  503  504 -0.46481819497E+01 -0.47919021529E+02  0.14603250571E+03  0.15376388050E+03  0.00000000000E+00 0. -1.
         21    1    1    2  504  506  0.59183554234E+02  0.54289729275E+02  0.73905562858E+02  0.10914256740E+03  0.00000000000E+00 0. -1.
         21    1    1    2  505  501 -0.10972710676E+03 -0.98322309240E+01 -0.10645962968E+03  0.15320040299E+03  0.00000000000E+00 0. -1.
         21    1    1    2  506  502  0.55191734475E+02  0.34615231772E+01 -0.48815699402E+02  0.73763691646E+02  0.00000000000E+00 0. -1.
<scales pt_clust_3="48.14393" pt_clust_4="64.82492" pt_clust_5="14000.00000" pt_clust_6="54.75036"></scales>
<clustering>
<clus scale="   48.144">  1  3  2 -1</clus>
<clus scale="   54.750">  2  6  1 -1</clus>
<clus scale="   64.825">  1  4  2 -1</clus>
<clus scale="   48.144">  1  3  2 -1</clus>
</clustering>
</event>
<event>
 6    0  0.8777103E+002  0.1212856E+03  0.7546771E-02  0.1240991E+00
         21   -1    0    0  504  501  0.00000000000E+00  0.00000000000E+00  0.15109574289E+03  0.15109574289E+03  0.00000000000E+00 0. -1.
         21   -1    0    0  503  502 -0.00000000000E+00 -0.00000000000E+00 -0.52812842912E+03  0.52812842912E+03  0.00000000000E+00 0.  1.
         21    1    1    2  503  506 -0.30393809865E+02 -0.26879386825E+02 -0.64866358495E+02  0.76510976851E+02  0.00000000000E+00 0.  1.
         21    1    1    2  504  505  0.27282209714E+02 -0.34081717237E+02  0.11973787002E+03  0.12744818529E+03  0.00000000000E+00 0. -1.
         21    1    1    2  505  502  0.11476149452E+02  0.12913303665E+03 -0.28420725005E+03  0.31237926330E+03  0.00000000000E+00 0.  1.
         21    1    1    2  506  501 -0.83645493007E+01 -0.68171932584E+02 -0.14769694770E+03  0.16288574657E+03  0.00000000000E+00 0.  1.
<scales pt_clust_3="30.65426" pt_clust_4="43.65641" pt_clust_5="114.54048" pt_clust_6="30.65426"></scales>
<clustering>
<clus scale="   30.654">  3  6 -1 -1</clus>
<clus scale="   43.656">  1  4  2 -1</clus>
<clus scale="  114.540">  1  5  2 -1</clus>
<clus scale="   43.656">  1  3  2 -1</clus>
</clustering>
</event>
<event>
 6    0  0.8777103E+002  0.9304457E+02  0.7546771E-02  0.1295642E+00
         21   -1    0    0  506  501  0.00000000000E+00  0.00000000000E+00  0.17214568926E+04  0.17214568926E+04  0.00000000000E+00 0. -1.
         21   -1    0    0  503  502 -0.00000000000E+00 -0.00000000000E+00 -0.14212158319E+03  0.14212158319E+03  0.00000000000E+00 0. -1.
         21    1    1    2  503  505  0.92665024096E+02 -0.96717300439E+01 -0.10332688353E+03  0.13912869551E+03  0.00000000000E+00 0. -1.
         21    1    1    2  504  502  0.30687361315E+02 -0.38424198752E+02  0.10342501091E+03  0.11452015576E+03  0.00000000000E+00 0.  1.
         21    1    1    2  505  501 -0.82849390821E+02  0.72208872141E+02  0.18706434867E+03  0.21695901299E+03  0.00000000000E+00 0.  1.
         21    1    1    2  506  504 -0.40502994591E+02 -0.24112943346E+02  0.13921728334E+04  0.13929706115E+04  0.00000000000E+00 0. -1.
<scales pt_clust_3="14000.00000" pt_clust_4="49.52162" pt_clust_5="93.04457" pt_clust_6="47.13732"></scales>
<clustering>
<clus scale="   47.137">  1  6  2 -1</clus>
<clus scale="   49.522">  1  4  2 -1</clus>
<clus scale="   93.045">  1  5  2 -1</clus>
<clus scale="   47.137">  1  3  2 -1</clus>
</clustering>
</event>
<event>
 6    0  0.8777103E+002  0.1186124E+03  0.7546771E-02  0.1245404E+00
         21   -1    0    0  505  501  0.00000000000E+00  0.00000000000E+00  0.18314013806E+03  0.18314013806E+03  0.00000000000E+00 0. -1.
         21   -1    0    0  503  502 -0.00000000000E+00 -0.00000000000E+00 -0.58914985256E+03  0.58914985256E+03  0.00000000000E+00 0.  1.
         21    1    1    2  503  506 -0.32536800963E+02 -0.45874860277E+02 -0.60155794319E+02  0.82352084445E+02  0.00000000000E+00 0.  1.
         21    1    1    2  504  502 -0.99907544222E+01  0.28688358979E+02 -0.24113569710E+03  0.24304168682E+03  0.00000000000E+00 0.  1.
         21    1    1    2  505  504  0.12139475064E+03 -0.11547860348E+02  0.14148155527E+03  0.18678080480E+03  0.00000000000E+00 0. -1.
         21    1    1    2  506  501 -0.78867195257E+02  0.28734361646E+02 -0.24619977835E+03  0.26011541455E+03  0.00000000000E+00 0.  1.
<scales pt_clust_3="52.86893" pt_clust_4="30.37823" pt_clust_5="14000.00000" pt_clust_6="118.61241"></scales>
<clustering>
<clus scale="   30.378">  2  4  1 -1</clus>
<clus scale="   52.869">  2  3  1 -1</clus>
<clus scale="  118.612">  2  6  1 -1</clus>
<clus scale="  118.612">  1  3  2 -1</clus>
</clustering>
</event>
<event>
 6    0  0.8777103E+002  0.9826247E+02  0.7546771E-02  0.1283993E+00
         21   -1    0    0  506  501  0.00000000000E+00  0.00000000000E+00  0.77420701511E+03  0.77420701511E+03  0.00000000000E+00 0. -1.
         21   -1    0    0  505  502 -0.00000000000E+00 -0.00000000000E+00 -0.10106803219E+04  0.10106803219E+04  0.00000000000E+00 0.  1.
         21    1    1    2  503  502 -0.84656488747E+02  0.31427980711E+02  0.27955550589E+03  0.29377835170E+03  0.00000000000E+00 0. -1.
         21    1    1    2  504  501  0.10895372271E+03  0.25291770407E+02  0.20980349397E+03  0.23775637410E+03  0.00000000000E+00 0.  1.
         21    1    1    2  505  504 -0.92954213170E+00 -0.35629277545E+02 -0.98833092633E+03  0.98897337144E+03  0.00000000000E+00 0.  1.
         21    1    1    2  506  503 -0.23367691833E+02 -0.21090473573E+02  0.26249861967E+03  0.26437923978E+03  0.00000000000E+00 0. -1.
<scales pt_clust_3="14000.00000" pt_clust_4="98.26247" pt_clust_5="35.65505" pt_clust_6="31.47788"></scales>
<clustering>
<clus scale="   31.478">  1  6  2 -1</clus>
<clus scale="   35.655">  2  5  1 -1</clus>
<clus scale="   98.262">  2  4  1 -1</clus>
<clus scale="   31.478">  1  3  2 -1</clus>
</clustering>
</event>
<event>
 6    0  0.8777103E+002  0.9638278E+02  0.7546771E-02  0.1288092E+00
         21   -1    0    0  504  501  0.00000000000E+00  0.00000000000E+00  0.63858139316E+03  0.63858139316E+03  0.00000000000E+00 0.  1.
         21   -1    0    0  505  502 -0.00000000000E+00 -0.00000000000E+00 -0.13041338904E+03  0.13041338904E+03  0.00000000000E+00 0.  1.
         21    1    1    2  503  501  0.18786483865E+02 -0.29447033149E+02  0.35090789415E+03  0.35264204218E+03  0.00000000000E+00 0.  1.
         21    1    1    2  504  506  0.23725558243E+02 -0.20305546319E+02  0.35734009772E+02  0.47456683193E+02  0.00000000000E+00 0.  1.
         21    1    1    2  505  503 -0.98469099846E+02 -0.30277183926E+02  0.21204366139E+03  0.23574432300E+03  0.00000000000E+00 0.  1.
         21    1    1    2  506  502  0.55957057738E+02  0.80029763395E+02 -0.90517561187E+02  0.13315173383E+03  0.00000000000E+00 0.  1.
<scales pt_clust_3="52.80745" pt_clust_4="31.22847" pt_clust_5="14000.00000" pt_clust_6="96.38278"></scales>
<clustering>
<clus scale="   31.228">  1  4  2 -1</clus>
<clus scale="   52.807">  1  3  2 -1</clus>
<clus scale="   96.383">  2  6  1 -1</clus>
<clus scale="   31.228">  1  3  2 -1</clus>
</clustering>
</event>
<event>
 6    0  0.8777103E+002  0.8934770E+02  0.7546771E-02  0.1304439E+00
         21   -1    0    0  503  501  0.00000000000E+00  0.00000000000E+00  0.68518519204E+03  0.68518519204E+03  0.00000000000E+00 0.  1.
         21   -1    0    0  506  502 -0.00000000000E+00 -0.00000000000E+00 -0.23926022555E+03  0.23926022555E+03  0.00000000000E+00 0.  1.
         21    1    1    2  503  504 -0.58768184843E+02 -0.29153457858E+02  0.17011396175E+03  0.18232493970E+03  0.00000000000E+00 0.  1.
         21    1    1    2  504  502 -0.21386437813E+02 -0.46684174053E+02 -0.20948362225E+03  0.21568537229E+03  0.00000000000E+00 0.  1.
         21    1    1    2  505  501  0.10912819977E+03  0.45445022038E+02  0.46501284986E+03  0.47980325609E+03  0.00000000000E+00 0.  1.
         21    1    1    2  506  505 -0.28973577112E+02  0.30392609873E+02  0.20281777132E+02  0.46631849515E+02  0.00000000000E+00 0. -1.
<scales pt_clust_3="14000.00000" pt_clust_4="51.89130" pt_clust_5="89.34770" pt_clust_6="41.99022"></scales>
<clustering>
<clus scale="   41.990">  2  6  1 -1</clus>
<clus scale="   51.891">  2  4  1 -1</clus>
<clus scale="   89.348">  2  5  1 -1</clus>
<clus scale="   89.348">  1  3  2 -1</clus>
</clustering>
</event>
<event>
 6    0  0.8777103E+002  0.1867572E+03  0.7546771E-02  0.1161419E+00
         21   -1    0    0  505  501  0.00000000000E+00  0.00000000000E+00  0.26906529926E+03  0.26906529926E+03  0.00000000000E+00 0. -1.
         21   -1    0    0  506  502 -0.00000000000E+00 -0.00000000000E+00 -0.66404459941E+03  0.66404459941E+03  0.00000000000E+00 0.  1.
         21    1    1    2  503  501 -0.57119143041E+02  0.21138033248E+03  0.40195808839E+02  0.22262062912E+03  0.00000000000E+00 0. -1.
         21    1    1    2  504  502  0.16104840642E+02 -0.20267534969E+03 -0.38333945604E+03  0.43391911899E+03  0.00000000000E+00 0.  1.
         21    1    1    2  505  504  0.23522551955E+02 -0.38714106042E+02  0.10583315552E+03  0.11512058575E+03  0.00000000000E+00 0. -1.
         21    1    1    2  506  503  0.17491750444E+02  0.30009123251E+02 -0.15766880848E+03  0.16144956481E+03  0.00000000000E+00 0. -1.
<scales pt_clust_3="186.75721" pt_clust_4="14000.00000" pt_clust_5="45.14844" pt_clust_6="34.73484"></scales>
<clustering>
<clus scale="   34.735">  2  6  1 -1</clus>
<clus scale="   45.148">  1  5  2 -1</clus>
<clus scale="  186.757">  1  3  2 -1</clus>
<clus scale="   45.148">  1  3  2 -1</clus>
</clustering>
</event>
<event>
 6    0  0.8777103E+002  0.8894559E+02  0.7546771E-02  0.1305425E+00
         21   -1    0    0  504  501  0.00000000000E+00  0.00000000000E+00  0.46260484091E+03  0.46260484091E+03  0.00000000000E+00 0.  1.
         21   -1    0    0  505  502 -0.00000000000E+00 -0.00000000000E+00 -0.15588555174E+03  0.15588555174E+03  0.00000000000E+00 0.  1.
         21    1    1    2  503  506  0.79364380533E+01  0.49852664726E+02  0.21606885075E+02  0.54910224111E+02  0.00000000000E+00 0.  1.
         21    1    1    2  504  503  0.15407274508E+02  0.26509920099E+02  0.28803970142E+03  0.28966710128E+03  0.00000000000E+00 0.  1.
         21    1    1    2  505  501  0.68659053939E+02 -0.69062132519E+02  0.97302366206E+02  0.13766406323E+03  0.00000000000E+00 0.  1.
         21    1    1    2  506  502 -0.92002766501E+02 -0.73004523066E+01 -0.10022966353E+03  0.13624900403E+03  0.00000000000E+00 0.  1.
<scales pt_clust_3="56.83056" pt_clust_4="30.66203" pt_clust_5="88.94559" pt_clust_6="14000.00000"></scales>
<clustering>
<clus scale="   30.662">  1  4  2 -1</clus>
<clus scale="   56.831">  1  3  2 -1</clus>
<clus scale="   88.946">  1  5  2 -1</clus>
<clus scale="   30.662">  1  3  2 -1</clus>
</clustering>
</event>
<event>
 6    0  0.8777103E+002  0.1075697E+03  0.7546771E-02  0.1265138E+00
         21   -1    0    0  505  501  0.00000000000E+00  0.00000000000E+00  0.31093282731E+03  0.31093282731E+03  0.00000000000E+00 0. -1.
         21   -1    0    0  506  502 -0.00000000000E+00 -0.00000000000E+00 -0.77718907758E+03  0.77718907758E+03  0.00000000000E+00 0. -1.
         21    1    1    2  503  504  0.65519079123E+02 -0.11519733792E+03  0.92679010236E+02  0.16171757892E+03  0.00000000000E+00 0. -1.
         21    1    1    2  504  501 -0.32412632329E+02  0.75563099881E+01  0.17628893361E+03  0.17940307876E+03  0.00000000000E+00 0. -1.
         21    1    1    2  505  502 -0.37338391125E+00  0.63148542099E+02 -0.22180960522E+03  0.23062389024E+03  0.00000000000E+00 0. -1.
         21    1    1    2  506  503 -0.32733062882E+02  0.44492485838E+02 -0.51341458890E+03  0.51637735697E+03  0.00000000000E+00 0. -1.
<scales pt_clust_3="107.56970" pt_clust_4="33.28178" pt_clust_5="14000.00000" pt_clust_6="55.51824"></scales>
<clustering>
<clus scale="   33.282">  1  4  2 -1</clus>
<clus scale="   55.518">  2  6  1 -1</clus>
<clus scale="  107.570">  1  3  2 -1</clus>
<clus scale="   33.282">  1  3  2 -1</clus>
</clustering>
</event>
<event>
 6    0  0.8777103E+002  0.7948655E+02  0.7546771E-02  0.1330515E+00
         21   -1    0    0  503  501  0.00000000000E+00  0.00000000000E+00  0.61686238237E+03  0.61686238237E+03  0.00000000000E+00 0.  1.
         21   -1    0    0  506  502 -0.00000000000E+00 -0.00000000000E+00 -0.16351698028E+03  0.16351698028E+03  0.00000000000E+00 0.  1.
         21    1    1    2  503  505  0.27644646338E+02  0.28898097379E+02  0.42308825980E+03  0.42497411932E+03  0.00000000000E+00 0.  1.
         21    1    1    2  504  502  0.52949101311E+02 -0.57443365545E+02 -0.12138904839E+03  0.14435597890E+03  0.00000000000E+00 0.  1.
         21    1    1    2  505  504 -0.65989502235E+02  0.70637687862E+02  0.12862370394E+03  0.16089858473E+03  0.00000000000E+00 0. -1.
         21    1    1    2  506  501 -0.14604245414E+02 -0.42092419696E+02  0.23022486732E+02  0.50150679709E+02  0.00000000000E+00 0.  1.
<scales pt_clust_3="39.99158" pt_clust_4="14000.00000" pt_clust_5="79.48655" pt_clust_6="37.78686"></scales>
<clustering>
<clus scale="   39.992">  1  3  2 -1</clus>
<clus scale="   37.787">  1  6  2 -1</clus>
<clus scale="   79.487">  1  5  2 -1</clus>
<clus scale="   39.992">  1  3  2 -1</clus>
</clustering>
</event>
<event>
 6    0  0.8777103E+002  0.9409842E+02  0.7546771E-02  0.1293220E+00
         21   -1    0    0  503  501  0.00000000000E+00  0.00000000000E+00  0.17295671393E+04  0.17295671393E+04  0.00000000000E+00 0. -1.
         21   -1    0    0  504  502 -0.00000000000E+00 -0.00000000000E+00 -0.41531334675E+02  0.41531334675E+02  0.00000000000E+00 0.  1.
         21    1    1    2  503  502  0.62236298004E+02 -0.86791641412E+02  0.38914724790E+03  0.40353652419E+03  0.00000000000E+00 0. -1.
         21    1    1    2  504  505 -0.37032413736E+02 -0.16859829352E+02 -0.88893573671E+01  0.41649420012E+02  0.00000000000E+00 0.  1.
         21    1    1    2  505  506 -0.41438418091E+02  0.76346656672E+01  0.54654716547E+02  0.69011366126E+02  0.00000000000E+00 0.  1.
         21    1    1    2  506  501  0.16234533824E+02  0.96016805097E+02  0.12531231975E+04  0.12569011636E+04  0.00000000000E+00 0. -1.
<scales pt_clust_3="94.09842" pt_clust_4="40.68972" pt_clust_5="57.78553" pt_clust_6="14000.00000"></scales>
<clustering>
<clus scale="   40.690">  2  4  1 -1</clus>
<clus scale="   57.786">  2  5  1 -1</clus>
<clus scale="   94.098">  2  3  1 -1</clus>
<clus scale="   94.098">  1  3  2 -1</clus>
</clustering>
</event>
<event>
 6    0  0.8777103E+002  0.8802145E+02  0.7546771E-02  0.1307715E+00
         21   -1    0    0  506  501  0.00000000000E+00  0.00000000000E+00  0.80132783755E+02  0.80132783755E+02  0.00000000000E+00 0. -1.
         21   -1    0    0  503  502 -0.00000000000E+00 -0.00000000000E+00 -0.17898756642E+04  0.17898756642E+04  0.00000000000E+00 0.  1.
         21    1    1    2  503  505 -0.45959371065E+02 -0.40271150140E+02 -0.16700953465E+03  0.17783760566E+03  0.00000000000E+00 0.  1.
         21    1    1    2  504  502  0.84888013822E+02 -0.23214772395E+02 -0.15325864998E+04  0.15351111621E+04  0.00000000000E+00 0.  1.
         21    1    1    2  505  501  0.43882981992E+02  0.31250001287E+02  0.27575428746E+02  0.60520103763E+02  0.00000000000E+00 0. -1.
         21    1    1    2  506  504 -0.82811624749E+02  0.32235921247E+02 -0.37722274745E+02  0.96539576466E+02  0.00000000000E+00 0. -1.
<scales pt_clust_3="53.07105" pt_clust_4="14000.00000" pt_clust_5="53.87280" pt_clust_6="88.02145"></scales>
<clustering>
<clus scale="   53.873">  1  5  2 -1</clus>
<clus scale="   53.071">  1  3  2 -1</clus>
<clus scale="   88.021">  1  6  2 -1</clus>
<clus scale="   53.873">  1  3  2 -1</clus>
</clustering>
</event>
<event>
 6    0  0.8777103E+002  0.3015440E+03  0.7546771E-02  0.1084471E+00
         21   -1    0    0  503  501  0.00000000000E+00  0.00000000000E+00  0.64309446192E+03  0.64309446192E+03  0.00000000000E+00 0.  1.
         21   -1    0    0  504  502 -0.00000000000E+00 -0.00000000000E+00 -0.16718293794E+03  0.16718293794E+03  0.00000000000E+00 0.  1.
         21    1    1    2  503  505  0.10933478136E+02 -0.23658653676E+03  0.17672083923E+03  0.29550462829E+03  0.00000000000E+00 0.  1.
         21    1    1    2  504  506 -0.46483606262E+02  0.22122669897E+02 -0.38289238732E+01  0.51621689555E+02  0.00000000000E+00 0. -1.
         21    1    1    2  505  502  0.64995610616E+02 -0.48432421080E+02  0.41090869065E+02  0.90876775534E+02  0.00000000000E+00 0.  1.
         21    1    1    2  506  501 -0.29445482490E+02  0.26289628795E+03  0.26192873957E+03  0.37227430648E+03  0.00000000000E+00 0.  1.
<scales pt_clust_3="68.60526" pt_clust_4="51.47949" pt_clust_5="68.60526" pt_clust_6="275.82815"></scales>
<clustering>
<clus scale="   51.479">  2  4  1 -1</clus>
<clus scale="   68.605">  3  5 -1 -1</clus>
<clus scale="  275.828">  1  6  2 -1</clus>
<clus scale="  275.828">  1  3  2 -1</clus>
</clustering>
</event>
<event>
 6    0  0.8777103E+002  0.7854237E+02  0.7546771E-02  0.1333240E+00
         21   -1    0    0  506  501  0.00000000000E+00  0.00000000000E+00  0.81007885210E+03  0.81007885210E+03  0.00000000000E+00 0. -1.
         21   -1    0    0  504  502 -0.00000000000E+00 -0.00000000000E+00 -0.13751911587E+03  0.13751911587E+03  0.00000000000E+00 0. -1.
         21    1    1    2  503  501 -0.28441118491E+02  0.72765322343E+02  0.47147379344E+03  0.47790294753E+03  0.00000000000E+00 0. -1.
         21    1    1    2  504  503  0.88608814313E+01  0.29980311918E+02  0.26157096335E+02  0.40761845041E+02  0.00000000000E+00 0. -1.
         21    1    1    2  505  502 -0.51469355875E+02 -0.50205707708E+02 -0.10955462990E+03  0.13104169036E+03  0.00000000000E+00 0. -1.
         21    1    1    2  506  505  0.71049592935E+02 -0.52539926553E+02  0.28448347635E+03  0.29789148503E+03  0.00000000000E+00 0. -1.
<scales pt_clust_3="14000.00000" pt_clust_4="31.26235" pt_clust_5="48.78635" pt_clust_6="78.54237"></scales>
<clustering>
<clus scale="   31.262">  2  4  1 -1</clus>
<clus scale="   48.786">  2  5  1 -1</clus>
<clus scale="   78.542">  2  6  1 -1</clus>
<clus scale="   78.542">  1  3  2 -1</clus>
</clustering>
</event>
<event>
 6    0  0.8777103E+002  0.1124530E+03  0.7546771E-02  0.1256094E+00
         21   -1    0    0  503  501  0.00000000000E+00  0.00000000000E+00  0.11388080323E+04  0.11388080323E+04  0.00000000000E+00 0. -1.
         21   -1    0    0  505  502 -0.00000000000E+00 -0.00000000000E+00 -0.60895623804E+02  0.60895623804E+02  0.00000000000E+00 0. -1.
         21    1    1    2  503  506  0.92023262164E+02  0.69676100545E+02  0.61703667236E+03  0.62773983050E+03  0.00000000000E+00 0. -1.
         21    1    1    2  504  501 -0.12263196507E+03  0.55464101242E+02  0.24700655025E+03  0.28129539855E+03  0.00000000000E+00 0. -1.
         21    1    1    2  505  504  0.88578993189E+02 -0.49412156522E+02  0.10703926873E+03  0.14746255218E+03  0.00000000000E+00 0. -1.
         21    1    1    2  506  502 -0.57970290284E+02 -0.75728045265E+02  0.10682991718E+03  0.14320587488E+03  0.00000000000E+00 0. -1.
<scales pt_clust_3="103.95465" pt_clust_4="112.45297" pt_clust_5="14000.00000" pt_clust_6="95.36924"></scales>
<clustering>
<clus scale="   95.369">  2  6  1 -1</clus>
<clus scale="  103.955">  1  3  2 -1</clus>
<clus scale="  112.453">  1  4  2 -1</clus>
<clus scale="  103.955">  1  3  2 -1</clus>
</clustering>
</event>
<event>
 6    0  0.8777103E+002  0.1758331E+03  0.7546771E-02  0.1171898E+00
         21   -1    0    0  505  501  0.00000000000E+00  0.00000000000E+00  0.10626321601E+04  0.10626321601E+04  0.00000000000E+00 0. -1.
         21   -1    0    0  506  502 -0.00000000000E+00 -0.00000000000E+00 -0.11654981791E+04  0.11654981791E+04  0.00000000000E+00 0. -1.
         21    1    1    2  503  502  0.86837796438E+02 -0.91779551538E+02 -0.10160597268E+04  0.10238855685E+04  0.00000000000E+00 0. -1.
         21    1    1    2  504  501  0.93414797677E+02 -0.55179985914E+02  0.84285048597E+03  0.84980474049E+03  0.00000000000E+00 0. -1.
         21    1    1    2  505  503 -0.18350528566E+03  0.19974983193E+03  0.10538063935E+03  0.29099701781E+03  0.00000000000E+00 0. -1.
         21    1    1    2  506  504  0.32526915464E+01 -0.52790294481E+02 -0.35037417577E+02  0.63443012414E+02  0.00000000000E+00 0.  1.
<scales pt_clust_3="14000.00000" pt_clust_4="108.58740" pt_clust_5="175.83306" pt_clust_6="52.89041"></scales>
<clustering>
<clus scale="   52.890">  2  6  1 -1</clus>
<clus scale="  108.587">  1  4  2 -1</clus>
<clus scale="  175.833">  1  5  2 -1</clus>
<clus scale="  108.587">  1  3  2 -1</clus>
</clustering>
</event>
<event>
 6    0  0.8777103E+002  0.1163329E+03  0.7546771E-02  0.1249272E+00
         21   -1    0    0  504  501  0.00000000000E+00  0.00000000000E+00  0.24208748847E+04  0.24208748847E+04  0.00000000000E+00 0.  1.
         21   -1    0    0  503  502 -0.00000000000E+00 -0.00000000000E+00 -0.58458510994E+02  0.58458510994E+02  0.00000000000E+00 0.  1.
         21    1    1    2  503  505 -0.69348452031E+01  0.37461197562E+02 -0.39037786513E+01  0.38297165542E+02  0.00000000000E+00 0.  1.
         21    1    1    2  504  506  0.33912234950E+02  0.31182430730E+02  0.19183111798E+04  0.19188642908E+04  0.00000000000E+00 0.  1.
         21    1    1    2  505  501 -0.70658997375E+02  0.74475861627E+02  0.27439526211E+03  0.29297117221E+03  0.00000000000E+00 0. -1.
         21    1    1    2  506  502  0.43681607629E+02 -0.14311948992E+03  0.17361371044E+03  0.22920076722E+03  0.00000000000E+00 0.  1.
<scales pt_clust_3="38.09768" pt_clust_4="46.21987" pt_clust_5="14000.00000" pt_clust_6="116.33289"></scales>
<clustering>
<clus scale="   38.098">  2  3  1 -1</clus>
<clus scale="   46.220">  1  4  2 -1</clus>
<clus scale="  116.333">  2  6  1 -1</clus>
<clus scale="   46.220">  1  3  2 -1</clus>
</clustering>
</event>
<event>
 6    0  0.8777103E+002  0.7035384E+02  0.7546771E-02  0.1358894E+00
         21   -1    0    0  505  501  0.00000000000E+00  0.00000000000E+00  0.50607687721E+03  0.50607687721E+03  0.00000000000E+00 0.  1.
         21   -1    0    0  503  502 -0.00000000000E+00 -0.00000000000E+00 -0.14699569819E+03  0.14699569819E+03  0.00000000000E+00 0. -1.
         21    1    1    2  503  501  0.43663893034E+02  0.10239706026E+03 -0.92611952496E+02  0.14480561885E+03  0.00000000000E+00 0. -1.
         21    1    1    2  504  502 -0.37197621800E+02 -0.26830273701E+02  0.47825215846E+01  0.46112895888E+02  0.00000000000E+00 0.  1.
         21    1    1    2  505  506 -0.38023259242E+02 -0.30091814506E+02  0.32061847112E+03  0.32426453640E+03  0.00000000000E+00 0.  1.
         21    1    1    2  506  504  0.31556988009E+02 -0.45474972055E+02  0.12629213881E+03  0.13788952426E+03  0.00000000000E+00 0.  1.
<scales pt_clust_3="14000.00000" pt_clust_4="45.86422" pt_clust_5="49.15126" pt_clust_6="70.35384"></scales>
<clustering>
<clus scale="   45.864">  2  4  1 -1</clus>
<clus scale="   49.151">  1  5  2 -1</clus>
<clus scale="   70.354">  1  6  2 -1</clus>
<clus scale="   49.151">  1  3  2 -1</clus>
</clustering>
</event>
<event>
 6    0  0.8777103E+002  0.5867700E+02  0.7546771E-02  0.1403469E+00
         21   -1    0    0  506  501  0.00000000000E+00  0.00000000000E+00  0.59046191999E+02  0.59046191999E+02  0.00000000000E+00 0. -1.
         21   -1    0    0  505  502 -0.00000000000E+00 -0.00000000000E+00 -0.16753376433E+04  0.16753376433E+04  0.00000000000E+00 0. -1.
         21    1    1    2  503  502 -0.14533815317E+02  0.45376099375E+02 -0.28438090087E+03  0.28834479181E+03  0.00000000000E+00 0. -1.
         21    1    1    2  504  501 -0.42924190212E+02 -0.11452937910E+01  0.21035942088E+02  0.47815360113E+02  0.00000000000E+00 0. -1.
         21    1    1    2  505  504  0.43471750454E+02 -0.97104165953E+02 -0.13370391776E+04  0.13412653633E+04  0.00000000000E+00 0. -1.
         21    1    1    2  506  503  0.13986255075E+02  0.52873360369E+02 -0.15907314919E+02  0.56958320162E+02  0.00000000000E+00 0.  1.
<scales pt_clust_3="48.72621" pt_clust_4="42.93947" pt_clust_5="58.67700" pt_clust_6="14000.00000"></scales>
<clustering>
<clus scale="   42.939">  1  4  2 -1</clus>
<clus scale="   48.726">  2  3  1 -1</clus>
<clus scale="   58.677">  2  5  1 -1</clus>
<clus scale="   42.939">  1  3  2 -1</clus>
</clustering>
</event>
<event>
 6    0  0.8777103E+002  0.8325105E+02  0.7546771E-02  0.1320071E+00
         21   -1    0    0  503  501  0.00000000000E+00  0.00000000000E+00  0.77288217424E+02  0.77288217424E+02  0.00000000000E+00 0. -1.
         21   -1    0    0  504  502 -0.00000000000E+00 -0.00000000000E+00 -0.55710939764E+03  0.55710939764E+03  0.00000000000E+00 0.  1.
         21    1    1    2  503  505  0.51391819884E+02 -0.44648922273E+02  0.23375444449E+02  0.71979558308E+02  0.00000000000E+00 0. -1.
         21    1    1    2  504  506 -0.86954622767E+02 -0.18448637226E+02 -0.41015926177E+03  0.41968092482E+03  0.00000000000E+00 0.  1.
         21    1    1    2  505  502  0.59605129992E+02  0.37337143030E+02 -0.76154585757E+02  0.10366462609E+03  0.00000000000E+00 0. -1.
         21    1    1    2  506  501 -0.24042327109E+02  0.25760416469E+02 -0.16882777136E+02  0.39072505849E+02  0.00000000000E+00 0.  1.
<scales pt_clust_3="42.91851" pt_clust_4="14000.00000" pt_clust_5="83.25105" pt_clust_6="35.23681"></scales>
<clustering>
<clus scale="   35.237">  1  6  2 -1</clus>
<clus scale="   42.919">  1  3  2 -1</clus>
<clus scale="   83.251">  1  5  2 -1</clus>
<clus scale="   35.237">  1  3  2 -1</clus>
</clustering>
</event>
<event>
 6    0  0.8777103E+002  0.1087952E+03  0.7546771E-02  0.1262817E+00
         21   -1    0    0  504  501  0.00000000000E+00  0.00000000000E+00  0.16340483262E+03  0.16340483262E+03  0.00000000000E+00 0.  1.
         21   -1    0    0  506  502 -0.00000000000E+00 -0.00000000000E+00 -0.24691266277E+04  0.24691266277E+04  0.00000000000E+00 0.  1.
         21    1    1    2  503  502  0.20294787982E+02 -0.31281113368E+02 -0.14940902035E+04  0.14945554264E+04  0.00000000000E+00 0.  1.
         21    1    1    2  504  503 -0.10735454993E+02 -0.87831517642E+02 -0.42832889717E+03  0.43737314691E+03  0.00000000000E+00 0.  1.
         21    1    1    2  505  501 -0.40299728249E+02  0.10251689117E+03  0.13887552273E+03  0.17725741701E+03  0.00000000000E+00 0.  1.
         21    1    1    2  506  505  0.30740395260E+02  0.16595739843E+02 -0.52217821717E+03  0.52334547000E+03  0.00000000000E+00 0.  1.
<scales pt_clust_3="47.65037" pt_clust_4="14000.00000" pt_clust_5="108.79524" pt_clust_6="34.93409"></scales>
<clustering>
<clus scale="   34.934">  2  6  1 -1</clus>
<clus scale="   47.650">  2  3  1 -1</clus>
<clus scale="  108.795">  1  5  2 -1</clus>
<clus scale="  108.795">  1  3  2 -1</clus>
</clustering>
</event>
<event>
 6    0  0.8777103E+002  0.2283456E+03  0.7546771E-02  0.1127810E+00
         21   -1    0    0  506  501  0.00000000000E+00  0.00000000000E+00  0.22335170452E+03  0.22335170452E+03  0.00000000000E+00 0.  1.
         21   -1    0    0  503  502 -0.00000000000E+00 -0.00000000000E+00 -0.75606257542E+03  0.75606257542E+03  0.00000000000E+00 0.  1.
         21    1    1    2  503  504  0.54054242259E+02  0.42961368312E+01 -0.28916551436E+03  0.29420573175E+03  0.00000000000E+00 0. -1.
         21    1    1    2  504  505  0.12154991580E+03  0.21579916692E+02 -0.12321903441E+03  0.17442191742E+03  0.00000000000E+00 0. -1.
         21    1    1    2  505  501  0.70494160811E+02 -0.18857558848E+03 -0.53103248229E+02  0.20820695054E+03  0.00000000000E+00 0.  1.
         21    1    1    2  506  502 -0.24609831887E+03  0.16269953496E+03 -0.67223073902E+02  0.30257968023E+03  0.00000000000E+00 0.  1.
<scales pt_clust_3="54.22470" pt_clust_4="140.75753" pt_clust_5="14000.00000" pt_clust_6="228.34564"></scales>
<clustering>
<clus scale="   54.225">  2  3  1 -1</clus>
<clus scale="  140.758">  2  4  1 -1</clus>
<clus scale="  228.346">  2  6  1 -1</clus>
<clus scale="  228.346">  1  3  2 -1</clus>
</clustering>
</event>
<event>
 6    0  0.8777103E+002  0.7892520E+02  0.7546771E-02  0.1332130E+00
         21   -1    0    0  503  501  0.00000000000E+00  0.00000000000E+00  0.36550696935E+02  0.36550696935E+02  0.00000000000E+00 0. -1.
         21   -1    0    0  505  502 -0.00000000000E+00 -0.00000000000E+00 -0.21230413517E+04  0.21230413517E+04  0.00000000000E+00 0. -1.
         21    1    1    2  503  504  0.77375890449E+02  0.96320521254E+01 -0.15038629558E+02  0.79410107857E+02  0.00000000000E+00 0. -1.
         21    1    1    2  504  506  0.30149386755E+02 -0.10601407610E+02 -0.21334595157E+03  0.21572637858E+03  0.00000000000E+00 0.  1.
         21    1    1    2  505  501 -0.10944381511E+03 -0.30406144144E+02 -0.16589320192E+04  0.16628162636E+04  0.00000000000E+00 0. -1.
         21    1    1    2  506  502  0.19185379051E+01  0.31375499629E+02 -0.19917405447E+03  0.20163929860E+03  0.00000000000E+00 0. -1.
<scales pt_clust_3="14000.00000" pt_clust_4="31.18262" pt_clust_5="78.92520" pt_clust_6="31.43410"></scales>
<clustering>
<clus scale="   31.434">  2  6  1 -1</clus>
<clus scale="   31.183">  2  4  1 -1</clus>
<clus scale="   78.925">  2  5  1 -1</clus>
<clus scale="   78.925">  1  3  2 -1</clus>
</clustering>
</event>
<event>
 6    0  0.8777103E+002  0.1717888E+03  0.7546771E-02  0.1175995E+00
         21   -1    0    0  503  501  0.00000000000E+00  0.00000000000E+00  0.33740613488E+03  0.33740613488E+03  0.00000000000E+00 0.  1.
         21   -1    0    0  505  502 -0.00000000000E+00 -0.00000000000E+00 -0.33440298051E+03  0.33440298051E+03  0.00000000000E+00 0.  1.
         21    1    1    2  503  502 -0.80432567029E+02 -0.12038425273E+03 -0.31203611725E+02  0.14810614953E+03  0.00000000000E+00 0.  1.
         21    1    1    2  504  506  0.76773472143E+02 -0.76495240521E+02 -0.15032834366E+03  0.18532214858E+03  0.00000000000E+00 0.  1.
         21    1    1    2  505  504  0.54021392274E+02  0.96388434883E+00 -0.13078542741E+02  0.55590360464E+02  0.00000000000E+00 0. -1.
         21    1    1    2  506  501 -0.50362297389E+02  0.19591560890E+03  0.19761365250E+03  0.28279045681E+03  0.00000000000E+00 0.  1.
<scales pt_clust_3="171.78880" pt_clust_4="131.20813" pt_clust_5="54.02999" pt_clust_6="14000.00000"></scales>
<clustering>
<clus scale="   54.030">  2  5  1 -1</clus>
<clus scale="  131.208">  2  4  1 -1</clus>
<clus scale="  171.789">  2  3  1 -1</clus>
<clus scale="  171.789">  1  3  2 -1</clus>
</clustering>
</event>
<event>
 6    0  0.8777103E+002  0.8664053E+02  0.7546771E-02  0.1311197E+00
         21   -1    0    0  504  501  0.00000000000E+00  0.00000000000E+00  0.23552322207E+03  0.23552322207E+03  0.00000000000E+00 0.  1.
         21   -1    0    0  503  502 -0.00000000000E+00 -0.00000000000E+00 -0.14045992297E+03  0.14045992297E+03  0.00000000000E+00 0.  1.
         21    1    1    2  503  505  0.56757296087E+02  0.35551675573E+02 -0.51883482705E+02  0.84718404569E+02  0.00000000000E+00 0.  1.
         21    1    1    2  504  502 -0.18063579914E+02 -0.84386951440E+02  0.46817545026E+02  0.98180104985E+02  0.00000000000E+00 0.  1.
         21    1    1    2  505  506 -0.36801029625E+02  0.82495284414E+02  0.31212802234E+01  0.90385453046E+02  0.00000000000E+00 0.  1.
         21    1    1    2  506  501 -0.18926865481E+01 -0.33660008548E+02  0.97007956553E+02  0.10269918243E+03  0.00000000000E+00 0.  1.
<scales pt_clust_3="64.70191" pt_clust_4="14000.00000" pt_clust_5="86.64053" pt_clust_6="33.71318"></scales>
<clustering>
<clus scale="   33.713">  1  6  2 -1</clus>
<clus scale="   64.702">  2  3  1 -1</clus>
<clus scale="   86.641">  1  5  2 -1</clus>
<clus scale="   33.713">  1  3  2 -1</clus>
</clustering>
</event>
<event>
 6    0  0.8777103E+002  0.1026757E+03  0.7546771E-02  0.1274768E+00
         21   -1    0    0  504  501  0.00000000000E+00  0.00000000000E+00  0.42574486657E+03  0.42574486657E+03  0.00000000000E+00 0. -1.
         21   -1    0    0  503  502 -0.00000000000E+00 -0.00000000000E+00 -0.21330207832E+03  0.21330207832E+03  0.00000000000E+00 0.  1.
         21    1    1    2  503  506  0.74900793361E+01 -0.33495082258E+02 -0.22291054975E+02  0.40925700432E+02  0.00000000000E+00 0.  1.
         21    1    1    2  504  505 -0.62111941830E+02 -0.62618739128E+02  0.94532419800E+02  0.12928796619E+03  0.00000000000E+00 0.  1.
         21    1    1    2  505  502  0.29681890010E+02 -0.19970590075E+02 -0.15056612888E+03  0.15475786968E+03  0.00000000000E+00 0.  1.
         21    1    1    2  506  501  0.24939972484E+02  0.11608441146E+03  0.29076755230E+03  0.31407540859E+03  0.00000000000E+00 0. -1.
<scales pt_clust_3="34.32232" pt_clust_4="102.67571" pt_clust_5="60.07613" pt_clust_6="14000.00000"></scales>
<clustering>
<clus scale="   34.322">  2  3  1 -1</clus>
<clus scale="   60.076">  2  5  1 -1</clus>
<clus scale="  102.676">  2  4  1 -1</clus>
<clus scale="  102.676">  1  3  2 -1</clus>
</clustering>
</event>
<event>
 6    0  0.8777103E+002  0.1122024E+03  0.7546771E-02  0.1256545E+00
         21   -1    0    0  505  501  0.00000000000E+00  0.00000000000E+00  0.11828406261E+04  0.11828406261E+04  0.00000000000E+00 0. -1.
         21   -1    0    0  506  502 -0.00000000000E+00 -0.00000000000E+00 -0.10519314472E+04  0.10519314472E+04  0.00000000000E+00 0.  1.
         21    1    1    2  503  504  0.27804316032E+02  0.52277875419E+02  0.67946332422E+03  0.68203846314E+03  0.00000000000E+00 0. -1.
         21    1    1    2  504  502  0.47454619756E+02 -0.10877915771E+02 -0.13038416492E+02  0.50401094158E+02  0.00000000000E+00 0.  1.
         21    1    1    2  505  503 -0.11660015183E+02  0.50981411292E+02  0.47889412907E+03  0.48174126573E+03  0.00000000000E+00 0. -1.
         21    1    1    2  506  501 -0.63598920605E+02 -0.92381370940E+02 -0.10144098578E+04  0.10205912503E+04  0.00000000000E+00 0.  1.
<scales pt_clust_3="38.38437" pt_clust_4="48.68542" pt_clust_5="38.38437" pt_clust_6="104.50472"></scales>
<clustering>
<clus scale="   38.384">  3  5 -1 -1</clus>
<clus scale="   48.685">  2  4  1 -1</clus>
<clus scale="  104.505">  2  6  1 -1</clus>
<clus scale="  112.202">  1  3  2 -1</clus>
</clustering>
</event>
<event>
 6    0  0.8777103E+002  0.1635173E+03  0.7546771E-02  0.1184782E+00
         21   -1    0    0  504  501  0.00000000000E+00  0.00000000000E+00  0.30736093594E+03  0.30736093594E+03  0.00000000000E+00 0.  1.
         21   -1    0    0  506  502 -0.00000000000E+00 -0.00000000000E+00 -0.76053671767E+03  0.76053671767E+03  0.00000000000E+00 0.  1.
         21    1    1    2  503  501 -0.59173399692E+02  0.64530658964E+02  0.47982097450E+02  0.99839765891E+02  0.00000000000E+00 0.  1.
         21    1    1    2  504  505 -0.10254860110E+03  0.14384738635E+02  0.19645231827E+03  0.22207352307E+03  0.00000000000E+00 0.  1.
         21    1    1    2  505  502  0.13949613020E+03 -0.43570810053E+02 -0.20583168399E+03  0.25243666129E+03  0.00000000000E+00 0.  1.
         21    1    1    2  506  503  0.22225870592E+02 -0.35344587546E+02 -0.49177851347E+03  0.49354770337E+03  0.00000000000E+00 0.  1.
<scales pt_clust_3="83.58159" pt_clust_4="14000.00000" pt_clust_5="163.51735" pt_clust_6="41.75200"></scales>
<clustering>
<clus scale="   41.752">  2  6  1 -1</clus>
<clus scale="   83.582">  1  3  2 -1</clus>
<clus scale="  163.517">  2  5  1 -1</clus>
<clus scale="   83.582">  1  3  2 -1</clus>
</clustering>
</event>
<event>
 6    0  0.8777103E+002  0.1844736E+03  0.7546771E-02  0.1163542E+00
         21   -1    0    0  504  501  0.00000000000E+00  0.00000000000E+00  0.28984898440E+03  0.28984898440E+03  0.00000000000E+00 0. -1.
         21   -1    0    0  503  502 -0.00000000000E+00 -0.00000000000E+00 -0.54336024016E+03  0.54336024016E+03  0.00000000000E+00 0.  1.
         21    1    1    2  503  505  0.27806711800E+02  0.12937996728E+02 -0.14539879885E+03  0.14859816852E+03  0.00000000000E+00 0.  1.
         21    1    1    2  504  506  0.10229982203E+03  0.75393990055E+02  0.21032244667E+03  0.24573367473E+03  0.00000000000E+00 0. -1.
         21    1    1    2  505  501  0.59538705592E+02  0.18578249241E+02 -0.12858937375E+02  0.63681716990E+02  0.00000000000E+00 0. -1.
         21    1    1    2  506  502 -0.18964523942E+03 -0.10691023602E+03 -0.30557596621E+03  0.37519566432E+03  0.00000000000E+00 0.  1.
<scales pt_clust_3="30.66928" pt_clust_4="14000.00000" pt_clust_5="65.30620" pt_clust_6="184.47359"></scales>
<clustering>
<clus scale="   30.669">  2  3  1 -1</clus>
<clus scale="   65.306">  1  5  2 -1</clus>
<clus scale="  184.474">  2  6  1 -1</clus>
<clus scale="   65.306">  1  3  2 -1</clus>
</clustering>
</event>
<event>
 6    0  0.8777103E+002  0.1089799E+03  0.7546771E-02  0.1262471E+00
         21   -1    0    0  506  501  0.00000000000E+00  0.00000000000E+00  0.38512145208E+02  0.38512145208E+02  0.00000000000E+00 0. -1.
         21   -1    0    0  505  502 -0.00000000000E+00 -0.00000000000E+00 -0.18146315984E+04  0.18146315984E+04  0.00000000000E+00 0. -1.
         21    1    1    2  503  502 -0.10036365518E+01 -0.50881212932E+02 -0.10872393556E+04  0.10884297503E+04  0.00000000000E+00 0. -1.
         21    1    1    2  504  501 -0.37714359198E+02  0.45564261251E+02 -0.46771571335E+02  0.75405932646E+02  0.00000000000E+00 0. -1.
         21    1    1    2  505  504 -0.34581006485E+01  0.12298616851E+03 -0.36853788692E+03  0.38853279166E+03  0.00000000000E+00 0. -1.
         21    1    1    2  506  503  0.42176096398E+02 -0.11766921683E+03 -0.27357063942E+03  0.30077526901E+03  0.00000000000E+00 0. -1.
<scales pt_clust_3="50.89111" pt_clust_4="55.97686" pt_clust_5="108.97989" pt_clust_6="14000.00000"></scales>
<clustering>
<clus scale="   50.891">  2  3  1 -1</clus>
<clus scale="   55.977">  1  4  2 -1</clus>
<clus scale="  108.980">  2  5  1 -1</clus>
<clus scale="   55.977">  1  3  2 -1</clus>
</clustering>
</event>
<event>
 6    0  0.8777103E+002  0.1018453E+03  0.7546771E-02  0.1276463E+00
         21   -1    0    0  504  501  0.00000000000E+00  0.00000000000E+00  0.29743657154E+03  0.29743657154E+03  0.00000000000E+00 0. -1.
         21   -1    0    0  505  502 -0.00000000000E+00 -0.00000000000E+00 -0.48915139464E+03  0.48915139464E+03  0.00000000000E+00 0.  1.
         21    1    1    2  503  501 -0.66790045005E+02  0.54044069234E+02 -0.20405267467E+02  0.88306548294E+02  0.00000000000E+00 0.  1.
         21    1    1    2  504  506 -0.42123850593E+02 -0.24779636970E+02  0.12906842387E+03  0.13801125765E+03  0.00000000000E+00 0. -1.
         21    1    1    2  505  503  0.85171700492E+01  0.37068656878E+02 -0.40137406529E+03  0.40317213172E+03  0.00000000000E+00 0.  1.
         21    1    1    2  506  502  0.10039672555E+03 -0.66333089142E+02  0.10099608578E+03  0.15709802850E+03  0.00000000000E+00 0. -1.
<scales pt_clust_3="14000.00000" pt_clust_4="47.54787" pt_clust_5="38.03456" pt_clust_6="101.84530"></scales>
<clustering>
<clus scale="   38.035">  2  5  1 -1</clus>
<clus scale="   47.548">  1  4  2 -1</clus>
<clus scale="  101.845">  1  6  2 -1</clus>
<clus scale="   47.548">  1  3  2 -1</clus>
</clustering>
</event>
<event>
 6    0  0.8777103E+002  0.1356710E+03  0.7546771E-02  0.1219276E+00
         21   -1    0    0  504  501  0.00000000000E+00  0.00000000000E+00  0.92452947488E+03  0.92452947488E+03  0.00000000000E+00 0.  1.
         21   -1    0    0  505  502 -0.00000000000E+00 -0.00000000000E+00 -0.19796319933E+03  0.19796319933E+03  0.00000000000E+00 0. -1.
         21    1    1    2  503  501  0.73962405893E+02  0.56004137598E+02  0.66559670765E+03  0.67203115862E+03  0.00000000000E+00 0.  1.
         21    1    1    2  504  506 -0.27133468493E+02  0.49866656528E+02 -0.29190145802E+02  0.63835516428E+02  0.00000000000E+00 0. -1.
         21    1    1    2  505  503 -0.30313088317E+02 -0.17145511696E+03  0.19527940094E+03  0.26162909793E+03  0.00000000000E+00 0. -1.
         21    1    1    2  506  502 -0.16515849084E+02  0.65584322830E+02 -0.10511968724E+03  0.12499690123E+03  0.00000000000E+00 0. -1.
<scales pt_clust_3="92.77338" pt_clust_4="44.73753" pt_clust_5="126.57906" pt_clust_6="44.73753"></scales>
<clustering>
<clus scale="   44.738">  4  6 -1 -1</clus>
<clus scale="   92.773">  1  3  2 -1</clus>
<clus scale="  126.579">  1  5  2 -1</clus>
<clus scale="   92.773">  1  3  2 -1</clus>
</clustering>
</event>
<event>
 6    0  0.8777103E+002  0.1423252E+03  0.7546771E-02  0.1210234E+00
         21   -1    0    0  503  501  0.00000000000E+00  0.00000000000E+00  0.23415472914E+04  0.23415472914E+04  0.00000000000E+00 0.  1.
         21   -1    0    0  504  502 -0.00000000000E+00 -0.00000000000E+00 -0.37692936610E+03  0.37692936610E+03  0.00000000000E+00 0.  1.
         21    1    1    2  503  506  0.34292957199E+02  0.21906469215E+02  0.35508370446E+03  0.35740780277E+03  0.00000000000E+00 0. -1.
         21    1    1    2  504  505  0.72427746632E+02  0.12504563682E+03 -0.16388256783E+03  0.21849413221E+03  0.00000000000E+00 0.  1.
         21    1    1    2  505  501 -0.66127867357E+02 -0.16025215050E+03  0.19516295725E+04  0.19593140725E+04  0.00000000000E+00 0.  1.
         21    1    1    2  506  502 -0.40592836473E+02  0.13300044464E+02 -0.17821278378E+03  0.18326065005E+03  0.00000000000E+00 0.  1.
<scales pt_clust_3="40.69275" pt_clust_4="142.32516" pt_clust_5="14000.00000" pt_clust_6="42.68341"></scales>
<clustering>
<clus scale="   40.693">  1  3  2 -1</clus>
<clus scale="   42.683">  2  6  1 -1</clus>
<clus scale="  142.325">  2  4  1 -1</clus>
<clus scale="   40.693">  1  3  2 -1</clus>
</clustering>
</event>
<event>
 6    0  0.2069768E+003  0.6468877E+02  0.7546771E-02  0.1379146E+00
         21   -1    0    0  504  501  0.00000000000E+00  0.00000000000E+00  0.54995000053E+03  0.54995000053E+03  0.00000000000E+00 0. -1.
         21   -1    0    0  505  502 -0.00000000000E+00 -0.00000000000E+00 -0.29124631072E+03  0.29124631072E+03  0.00000000000E+00 0.  1.
         21    1    1    2  503  506  0.29553912197E+02  0.49867507114E+02  0.40070405815E+02  0.70468712306E+02  0.00000000000E+00 0. -1.
         21    1    1    2  504  503 -0.31425599462E+02 -0.19153419402E+02  0.23812775437E+02  0.43834575968E+02  0.00000000000E+00 0.  1.
         21    1    1    2  505  501 -0.17418553256E+02 -0.92199895260E+02  0.45206493730E+03  0.46170004789E+03  0.00000000000E+00 0. -1.
         21    1    1    2  506  502  0.19290240521E+02  0.61485807548E+02 -0.25724442875E+03  0.26519297508E+03  0.00000000000E+00 0.  1.
<scales pt_clust_3="54.51845" pt_clust_4="36.80247" pt_clust_5="64.68877" pt_clust_6="14000.00000"></scales>
<clustering>
<clus scale="   36.802">  1  4  2 -1</clus>
<clus scale="   54.518">  1  3  2 -1</clus>
<clus scale="   64.689">  1  5  2 -1</clus>
<clus scale="   36.802">  1  3  2 -1</clus>
</clustering>
</event>
<event>
 6    0  0.8777103E+002  0.7618055E+02  0.7546771E-02  0.1340254E+00
         21   -1    0    0  503  501  0.00000000000E+00  0.00000000000E+00  0.11236224066E+03  0.11236224066E+03  0.00000000000E+00 0.  1.
         21   -1    0    0  506  502 -0.00000000000E+00 -0.00000000000E+00 -0.23170708698E+04  0.23170708698E+04  0.00000000000E+00 0. -1.
         21    1    1    2  503  504  0.73775560889E+02 -0.80813906457E+02 -0.10726028249E+02  0.10994893607E+03  0.00000000000E+00 0.  1.
         21    1    1    2  504  502 -0.70852433726E+02 -0.12895944037E+02 -0.18932516543E+04  0.18946208590E+04  0.00000000000E+00 0. -1.
         21    1    1    2  505  501 -0.11469910621E+02  0.38989700400E+02  0.53019102097E+02  0.66804047588E+02  0.00000000000E+00 0.  1.
         21    1    1    2  506  505  0.85467834585E+01  0.54720150094E+02 -0.35375004863E+03  0.35805926778E+03  0.00000000000E+00 0.  1.
<scales pt_clust_3="76.18055" pt_clust_4="14000.00000" pt_clust_5="40.64180" pt_clust_6="56.89781"></scales>
<clustering>
<clus scale="   40.642">  1  5  2 -1</clus>
<clus scale="   56.898">  2  6  1 -1</clus>
<clus scale="   76.181">  1  3  2 -1</clus>
<clus scale="   40.642">  1  3  2 -1</clus>
</clustering>
</event>
<event>
 6    0  0.8777103E+002  0.9820331E+02  0.7546771E-02  0.1284120E+00
         21   -1    0    0  506  501  0.00000000000E+00  0.00000000000E+00  0.51663158223E+03  0.51663158223E+03  0.00000000000E+00 0.  1.
         21   -1    0    0  504  502 -0.00000000000E+00 -0.00000000000E+00 -0.48557523713E+03  0.48557523713E+03  0.00000000000E+00 0. -1.
         21    1    1    2  503  501 -0.17129278106E+02  0.30935286739E+02  0.17712844840E+02  0.39549323716E+02  0.00000000000E+00 0.  1.
         21    1    1    2  504  505  0.33048789666E+02  0.63445061935E+02 -0.31992484122E+03  0.32782526201E+03  0.00000000000E+00 0.  1.
         21    1    1    2  505  503  0.90176734767E+02 -0.96552483062E+02  0.45473604986E+03  0.47353891130E+03  0.00000000000E+00 0.  1.
         21    1    1    2  506  502 -0.10609624633E+03  0.21721343883E+01 -0.12146770837E+03  0.16129332233E+03  0.00000000000E+00 0. -1.
<scales pt_clust_3="35.36105" pt_clust_4="71.69512" pt_clust_5="98.20331" pt_clust_6="14000.00000"></scales>
<clustering>
<clus scale="   35.361">  1  3  2 -1</clus>
<clus scale="   71.695">  2  4  1 -1</clus>
<clus scale="   98.203">  1  5  2 -1</clus>
<clus scale="   35.361">  1  3  2 -1</clus>
</clustering>
</event>
<event>
 6    0  0.8777103E+002  0.1475491E+03  0.7546771E-02  0.1203517E+00
         21   -1    0    0  503  501  0.00000000000E+00  0.00000000000E+00  0.13938942315E+04  0.13938942315E+04  0.00000000000E+00 0.  1.
         21   -1    0    0  504  502 -0.00000000000E+00 -0.00000000000E+00 -0.21092278853E+03  0.21092278853E+03  0.00000000000E+00 0. -1.
         21    1    1    2  503  506 -0.38423874707E+02 -0.11720491504E+02  0.10523229168E+04  0.10530894004E+04  0.00000000000E+00 0.  1.
         21    1    1    2  504  505 -0.39667941391E+01  0.72422950827E+02  0.89958092279E+02  0.11555638290E+03  0.00000000000E+00 0.  1.
         21    1    1    2  505  501 -0.84342908659E+01  0.64249137612E+02  0.20995673264E+03  0.21972919361E+03  0.00000000000E+00 0.  1.
         21    1    1    2  506  502  0.50824959712E+02 -0.12495159694E+03 -0.16926629877E+03  0.21644204306E+03  0.00000000000E+00 0. -1.
<scales pt_clust_3="40.17168" pt_clust_4="58.08722" pt_clust_5="58.08722" pt_clust_6="134.67094"></scales>
<clustering>
<clus scale="   40.172">  1  3  2 -1</clus>
<clus scale="   58.087">  4  5 -1 -1</clus>
<clus scale="  134.671">  2  6  1 -1</clus>
<clus scale="   40.172">  1  3  2 -1</clus>
</clustering>
</event>
<event>
 6    0  0.8777103E+002  0.3225621E+03  0.7546771E-02  0.1074476E+00
         21   -1    0    0  503  501  0.00000000000E+00  0.00000000000E+00  0.24937359061E+04  0.24937359061E+04  0.00000000000E+00 0. -1.
         21   -1    0    0  506  502 -0.00000000000E+00 -0.00000000000E+00 -0.16650375077E+03  0.16650375077E+03  0.00000000000E+00 0. -1.
         21    1    1    2  503  505 -0.24299219736E+01  0.37223651372E+02  0.45952213275E+03  0.46103372461E+03  0.00000000000E+00 0. -1.
         21    1    1    2  504  501 -0.32046417517E+03 -0.12045198029E+03  0.15852781891E+04  0.16218239435E+04  0.00000000000E+00 0. -1.
         21    1    1    2  505  502  0.12712335307E+00  0.91912845542E+02  0.23333702575E+03  0.25078707088E+03  0.00000000000E+00 0. -1.
         21    1    1    2  506  504  0.32276697379E+03 -0.86845166215E+01  0.49094807747E+02  0.32659491782E+03  0.00000000000E+00 0. -1.
<scales pt_clust_3="37.30288" pt_clust_4="322.56207" pt_clust_5="96.34407" pt_clust_6="14000.00000"></scales>
<clustering>
<clus scale="   37.303">  1  3  2 -1</clus>
<clus scale="   96.344">  1  5  2 -1</clus>
<clus scale="  322.562">  1  4  2 -1</clus>
<clus scale="   37.303">  1  3  2 -1</clus>
</clustering>
</event>
<event>
 6    0  0.8777103E+002  0.1538389E+03  0.7546771E-02  0.1195834E+00
         21   -1    0    0  504  501  0.00000000000E+00  0.00000000000E+00  0.10757660915E+04  0.10757660915E+04  0.00000000000E+00 0.  1.
         21   -1    0    0  505  502 -0.00000000000E+00 -0.00000000000E+00 -0.37085051973E+02  0.37085051973E+02  0.00000000000E+00 0.  1.
         21    1    1    2  503  506 -0.28098428157E+01  0.67271771153E+02  0.23979714702E+03  0.24907038790E+03  0.00000000000E+00 0.  1.
         21    1    1    2  504  503 -0.62003063405E+02 -0.42270838371E+02  0.24440166327E+03  0.25566262272E+03  0.00000000000E+00 0. -1.
         21    1    1    2  505  501  0.12613774298E+03 -0.81879983799E+02  0.24446609979E+03  0.28701696099E+03  0.00000000000E+00 0.  1.
         21    1    1    2  506  502 -0.61324836760E+02  0.56879051018E+02  0.31001612943E+03  0.32110117184E+03  0.00000000000E+00 0.  1.
<scales pt_clust_3="51.33955" pt_clust_4="75.04135" pt_clust_5="142.80097" pt_clust_6="51.33955"></scales>
<clustering>
<clus scale="   51.340">  3  6 -1 -1</clus>
<clus scale="   75.041">  1  4  2 -1</clus>
<clus scale="  142.801">  2  5  1 -1</clus>
<clus scale="   75.041">  1  3  2 -1</clus>
</clustering>
</event>
<event>
 6    0  0.8777103E+002  0.1238665E+03  0.7546771E-02  0.1236851E+00
         21   -1    0    0  505  501  0.00000000000E+00  0.00000000000E+00  0.91367786228E+03  0.91367786228E+03  0.00000000000E+00 0.  1.
         21   -1    0    0  506  502 -0.00000000000E+00 -0.00000000000E+00 -0.55055449841E+02  0.55055449841E+02  0.00000000000E+00 0.  1.
         21    1    1    2  503  504 -0.31115287782E+00 -0.48051364967E+02  0.31501554485E+03  0.31865941691E+03  0.00000000000E+00 0.  1.
         21    1    1    2  504  502  0.14240728487E+02 -0.28197918494E+02 -0.27335944936E+02  0.41775289834E+02  0.00000000000E+00 0.  1.
         21    1    1    2  505  503 -0.49784887890E+02 -0.47630981646E+02  0.30565928692E+03  0.31332865358E+03  0.00000000000E+00 0.  1.
         21    1    1    2  506  501  0.35855312281E+02  0.12388026511E+03  0.26528352561E+03  0.29496995179E+03  0.00000000000E+00 0.  1.
<scales pt_clust_3="42.30008" pt_clust_4="31.58989" pt_clust_5="42.30008" pt_clust_6="113.29593"></scales>
<clustering>
<clus scale="   31.590">  2  4  1 -1</clus>
<clus scale="   42.300">  3  5 -1 -1</clus>
<clus scale="  113.296">  2  6  1 -1</clus>
<clus scale="  123.867">  1  3  2 -1</clus>
</clustering>
</event>
<event>
 6    0  0.8777103E+002  0.1157456E+03  0.7546771E-02  0.1250285E+00
         21   -1    0    0  504  501  0.00000000000E+00  0.00000000000E+00  0.44965597898E+02  0.44965597898E+02  0.00000000000E+00 0.  1.
         21   -1    0    0  503  502 -0.00000000000E+00 -0.00000000000E+00 -0.22792107274E+04  0.22792107274E+04  0.00000000000E+00 0.  1.
         21    1    1    2  503  501 -0.37536087565E+02 -0.41088149614E+02 -0.14282358081E+04  0.14293196695E+04  0.00000000000E+00 0.  1.
         21    1    1    2  504  506  0.42149379848E+02  0.11210901393E+03 -0.50012511236E+02  0.12979311425E+03  0.00000000000E+00 0.  1.
         21    1    1    2  505  502  0.41883383405E+02 -0.31275864977E+02 -0.25170276771E+03  0.25707329852E+03  0.00000000000E+00 0. -1.
         21    1    1    2  506  505 -0.46496675687E+02 -0.39744999342E+02 -0.50429404241E+03  0.50799024305E+03  0.00000000000E+00 0.  1.
<scales pt_clust_3="115.74564" pt_clust_4="14000.00000" pt_clust_5="52.27234" pt_clust_6="59.66735"></scales>
<clustering>
<clus scale="   52.272">  2  5  1 -1</clus>
<clus scale="   59.667">  2  6  1 -1</clus>
<clus scale="  115.746">  2  3  1 -1</clus>
<clus scale="  115.746">  1  3  2 -1</clus>
</clustering>
</event>
<event>
 6    0  0.8777103E+002  0.1083531E+03  0.7546771E-02  0.1263650E+00
         21   -1    0    0  503  501  0.00000000000E+00  0.00000000000E+00  0.90186468447E+03  0.90186468447E+03  0.00000000000E+00 0.  1.
         21   -1    0    0  504  502 -0.00000000000E+00 -0.00000000000E+00 -0.68001989630E+02  0.68001989630E+02  0.00000000000E+00 0.  1.
         21    1    1    2  503  502 -0.69705101585E+02 -0.18093583311E+02  0.13992974920E+02  0.73361994868E+02  0.00000000000E+00 0.  1.
         21    1    1    2  504  506  0.17918682131E+02 -0.24229749529E+02 -0.38735856700E+01  0.30383623838E+02  0.00000000000E+00 0.  1.
         21    1    1    2  505  501 -0.75086157457E+02 -0.55315233011E+02  0.44950377147E+03  0.45907662390E+03  0.00000000000E+00 0.  1.
         21    1    1    2  506  505  0.12687257691E+03  0.97638565851E+02  0.37423953411E+03  0.40704443149E+03  0.00000000000E+00 0.  1.
<scales pt_clust_3="67.44916" pt_clust_4="30.13569" pt_clust_5="108.35310" pt_clust_6="14000.00000"></scales>
<clustering>
<clus scale="   30.136">  2  4  1 -1</clus>
<clus scale="   67.449">  2  3  1 -1</clus>
<clus scale="  108.353">  1  5  2 -1</clus>
<clus scale="  108.353">  1  3  2 -1</clus>
</clustering>
</event>
<event>
 6    0  0.2616586E+003  0.6999119E+02  0.7546771E-02  0.1360123E+00
         21   -1    0    0  506  501  0.00000000000E+00  0.00000000000E+00  0.50170777288E+03  0.50170777288E+03  0.00000000000E+00 0.  1.
         21   -1    0    0  505  502 -0.00000000000E+00 -0.00000000000E+00 -0.15022487032E+04  0.15022487032E+04  0.00000000000E+00 0.  1.
         21    1    1    2  503  502 -0.22882523894E+02  0.44412495638E+02 -0.11497740600E+04  0.11508590134E+04  0.00000000000E+00 0.  1.
         21    1    1    2  504  503  0.87573525640E+02  0.61811799077E+02 -0.13511940143E+03  0.17247339952E+03  0.00000000000E+00 0.  1.
         21    1    1    2  505  501 -0.29946784201E+02 -0.63915294955E+02 -0.19022571441E+03  0.20289848998E+03  0.00000000000E+00 0.  1.
         21    1    1    2  506  504 -0.34744217545E+02 -0.42308999761E+02  0.47457824554E+03  0.47772557316E+03  0.00000000000E+00 0.  1.
<scales pt_clust_3="49.96078" pt_clust_4="14000.00000" pt_clust_5="69.99119" pt_clust_6="54.65865"></scales>
<clustering>
<clus scale="   49.961">  2  3  1 -1</clus>
<clus scale="   54.659">  1  6  2 -1</clus>
<clus scale="   69.991">  2  5  1 -1</clus>
<clus scale="   54.659">  1  3  2 -1</clus>
</clustering>
</event>
<event>
 6    0  0.8777103E+002  0.1094465E+03  0.7546771E-02  0.1261598E+00
         21   -1    0    0  503  501  0.00000000000E+00  0.00000000000E+00  0.19723688015E+03  0.19723688015E+03  0.00000000000E+00 0. -1.
         21   -1    0    0  501  502 -0.00000000000E+00 -0.00000000000E+00 -0.14790441533E+03  0.14790441533E+03  0.00000000000E+00 0. -1.
         21    1    1    2  503  506 -0.70779026159E+02 -0.41285855343E+02  0.80442604295E+02  0.11482684782E+03  0.00000000000E+00 0. -1.
         21    1    1    2  504  505  0.32737513707E+02  0.11655366780E+02 -0.20332830750E+02  0.40261847757E+02  0.00000000000E+00 0.  1.
         21    1    1    2  505  502 -0.61431439937E+02 -0.72642736558E+00 -0.49683721054E+02  0.79011528572E+02  0.00000000000E+00 0. -1.
         21    1    1    2  506  504  0.99472952389E+02  0.30356915929E+02  0.38906412330E+02  0.11104107133E+03  0.00000000000E+00 0. -1.
<scales pt_clust_3="93.14278" pt_clust_4="33.22085" pt_clust_5="61.43573" pt_clust_6="33.22085"></scales>
<clustering>
<clus scale="   33.221">  4  6 -1 -1</clus>
<clus scale="   61.436">  2  5  1 -1</clus>
<clus scale="   93.143">  1  3  2 -1</clus>
<clus scale="   93.143">  1  3  2 -1</clus>
</clustering>
</event>
<event>
 6    0  0.8777103E+002  0.1245868E+03  0.7546771E-02  0.1235716E+00
         21   -1    0    0  505  501  0.00000000000E+00  0.00000000000E+00  0.20521476822E+03  0.20521476822E+03  0.00000000000E+00 0.  1.
         21   -1    0    0  506  502 -0.00000000000E+00 -0.00000000000E+00 -0.12742674161E+04  0.12742674161E+04  0.00000000000E+00 0.  1.
         21    1    1    2  503  502 -0.44470064819E+02 -0.29854705221E+02 -0.99784047189E+02  0.11325081087E+03  0.00000000000E+00 0.  1.
         21    1    1    2  504  501  0.33425679762E+02 -0.12975615353E+02  0.64574862163E+02  0.73861732208E+02  0.00000000000E+00 0.  1.
         21    1    1    2  505  503  0.42932005639E+02  0.11414384750E+03  0.98852311864E+02  0.15698329399E+03  0.00000000000E+00 0.  1.
         21    1    1    2  506  504 -0.31887620582E+02 -0.71313526928E+02 -0.11326957747E+04  0.11353863472E+04  0.00000000000E+00 0.  1.
<scales pt_clust_3="52.56624" pt_clust_4="35.85586" pt_clust_5="14000.00000" pt_clust_6="124.58684"></scales>
<clustering>
<clus scale="   35.856">  1  4  2 -1</clus>
<clus scale="   52.566">  2  3  1 -1</clus>
<clus scale="  124.587">  2  6  1 -1</clus>
<clus scale="   35.856">  1  3  2 -1</clus>
</clustering>
</event>
<event>
 6    0  0.8777103E+002  0.7601735E+02  0.7546771E-02  0.1340749E+00
         21   -1    0    0  503  501  0.00000000000E+00  0.00000000000E+00  0.11696638635E+04  0.11696638635E+04  0.00000000000E+00 0.  1.
         21   -1    0    0  504  502 -0.00000000000E+00 -0.00000000000E+00 -0.33464662991E+02  0.33464662991E+02  0.00000000000E+00 0. -1.
         21    1    1    2  503  505  0.65981029715E+02 -0.15406752575E+02  0.73840794016E+03  0.74151004741E+03  0.00000000000E+00 0.  1.
         21    1    1    2  504  501 -0.27321363087E+02 -0.82758703281E+02  0.22183360953E+03  0.23833927533E+03  0.00000000000E+00 0. -1.
         21    1    1    2  505  506 -0.20975192446E+02  0.71356588238E+02  0.17610058785E+03  0.19116259682E+03  0.00000000000E+00 0. -1.
         21    1    1    2  506  502 -0.17684474181E+02  0.26808867617E+02 -0.14293702806E+00  0.32116606934E+02  0.00000000000E+00 0. -1.
<scales pt_clust_3="65.69932" pt_clust_4="14000.00000" pt_clust_5="76.01735" pt_clust_6="32.11629"></scales>
<clustering>
<clus scale="   32.116">  2  6  1 -1</clus>
<clus scale="   65.699">  1  3  2 -1</clus>
<clus scale="   76.017">  1  5  2 -1</clus>
<clus scale="   65.699">  1  3  2 -1</clus>
</clustering>
</event>
<event>
 6    0  0.8777103E+002  0.1959932E+03  0.7546771E-02  0.1153164E+00
         21   -1    0    0  505  501  0.00000000000E+00  0.00000000000E+00  0.13891505113E+03  0.13891505113E+03  0.00000000000E+00 0. -1.
         21   -1    0    0  506  502 -0.00000000000E+00 -0.00000000000E+00 -0.12470287868E+04  0.12470287868E+04  0.00000000000E+00 0.  1.
         21    1    1    2  503  502 -0.55729718189E+02 -0.93447680406E+01 -0.22865801735E+03  0.23553686564E+03  0.00000000000E+00 0.  1.
         21    1    1    2  504  503 -0.84300280042E+02 -0.10633407779E+03 -0.91330619376E+03  0.92333183465E+03  0.00000000000E+00 0.  1.
         21    1    1    2  505  504  0.10949055140E+03  0.11953606525E+03  0.72574912895E+02  0.17760678400E+03  0.00000000000E+00 0. -1.
         21    1    1    2  506  501  0.30539446831E+02 -0.38572194265E+01 -0.38724437444E+02  0.49468353619E+02  0.00000000000E+00 0. -1.
<scales pt_clust_3="49.36021" pt_clust_4="49.36021" pt_clust_5="180.30236" pt_clust_6="30.78207"></scales>
<clustering>
<clus scale="   30.782">  1  6  2 -1</clus>
<clus scale="   49.360">  3  4 -1 -1</clus>
<clus scale="  180.302">  1  5  2 -1</clus>
<clus scale="   30.782">  1  3  2 -1</clus>
</clustering>
</event>
<event>
 6    0  0.8777103E+002  0.1928658E+03  0.7546771E-02  0.1155902E+00
         21   -1    0    0  504  501  0.00000000000E+00  0.00000000000E+00  0.36303936450E+03  0.36303936450E+03  0.00000000000E+00 0. -1.
         21   -1    0    0  506  502 -0.00000000000E+00 -0.00000000000E+00 -0.13395694342E+04  0.13395694342E+04  0.00000000000E+00 0. -1.
         21    1    1    2  503  501  0.17263286245E+03  0.19190382590E+03  0.20410610229E+03  0.32907215711E+03  0.00000000000E+00 0. -1.
         21    1    1    2  504  505 -0.10137548737E+03 -0.17871042546E+02  0.48774574679E+02  0.11390927415E+03  0.00000000000E+00 0. -1.
         21    1    1    2  505  502  0.54882121246E+02  0.39324676333E+01 -0.29558957883E+03  0.30066710936E+03  0.00000000000E+00 0.  1.
         21    1    1    2  506  503 -0.12613949632E+03 -0.17796525099E+03 -0.93382116779E+03  0.95896025804E+03  0.00000000000E+00 0. -1.
<scales pt_clust_3="192.86583" pt_clust_4="101.22726" pt_clust_5="55.02283" pt_clust_6="14000.00000"></scales>
<clustering>
<clus scale="   55.023">  2  5  1 -1</clus>
<clus scale="  101.227">  1  4  2 -1</clus>
<clus scale="  192.866">  1  3  2 -1</clus>
<clus scale="  101.227">  1  3  2 -1</clus>
</clustering>
</event>
<event>
 6    0  0.8777103E+002  0.7295374E+02  0.7546771E-02  0.1350327E+00
         21   -1    0    0  505  501  0.00000000000E+00  0.00000000000E+00  0.58302977545E+03  0.58302977545E+03  0.00000000000E+00 0. -1.
         21   -1    0    0  503  502 -0.00000000000E+00 -0.00000000000E+00 -0.50737960961E+03  0.50737960961E+03  0.00000000000E+00 0. -1.
         21    1    1    2  503  504  0.75241912128E+02  0.92947810562E+01 -0.42057386232E+03  0.42735244466E+03  0.00000000000E+00 0. -1.
         21    1    1    2  504  506 -0.50560961428E+01 -0.77581254508E+02  0.21656123802E+03  0.23009386122E+03  0.00000000000E+00 0.  1.
         21    1    1    2  505  502 -0.61276480722E+02  0.38182323137E+02 -0.58759307328E+02  0.93087878306E+02  0.00000000000E+00 0.  1.
         21    1    1    2  506  501 -0.89093352633E+01  0.30104150314E+02  0.33842209746E+03  0.33987520088E+03  0.00000000000E+00 0. -1.
<scales pt_clust_3="72.95374" pt_clust_4="51.73050" pt_clust_5="14000.00000" pt_clust_6="31.39484"></scales>
<clustering>
<clus scale="   31.395">  1  6  2 -1</clus>
<clus scale="   51.730">  1  4  2 -1</clus>
<clus scale="   72.954">  2  3  1 -1</clus>
<clus scale="   31.395">  1  3  2 -1</clus>
</clustering>
</event>
<event>
 6    0  0.8777103E+002  0.7551741E+02  0.7546771E-02  0.1342276E+00
         21   -1    0    0  504  501  0.00000000000E+00  0.00000000000E+00  0.11098596443E+03  0.11098596443E+03  0.00000000000E+00 0. -1.
         21   -1    0    0  505  502 -0.00000000000E+00 -0.00000000000E+00 -0.12104525796E+04  0.12104525796E+04  0.00000000000E+00 0. -1.
         21    1    1    2  503  501  0.68114478500E+02  0.27791546473E+02  0.76862847706E+02  0.10639478180E+03  0.00000000000E+00 0. -1.
         21    1    1    2  504  506 -0.30613011694E+02 -0.31278508739E+02 -0.45690468816E+02  0.63270218385E+02  0.00000000000E+00 0. -1.
         21    1    1    2  505  503  0.46433999386E+02 -0.54496124243E+02 -0.85275851488E+03  0.85575874436E+03  0.00000000000E+00 0. -1.
         21    1    1    2  506  502 -0.83935466193E+02  0.57983086509E+02 -0.27788047917E+03  0.29601479948E+03  0.00000000000E+00 0. -1.
<scales pt_clust_3="40.66770" pt_clust_4="43.76644" pt_clust_5="75.51741" pt_clust_6="14000.00000"></scales>
<clustering>
<clus scale="   43.766">  1  4  2 -1</clus>
<clus scale="   40.668">  1  3  2 -1</clus>
<clus scale="   75.517">  2  5  1 -1</clus>
<clus scale="   43.766">  1  3  2 -1</clus>
</clustering>
</event>
<event>
 6    0  0.8777103E+002  0.9547953E+02  0.7546771E-02  0.1290100E+00
         21   -1    0    0  504  501  0.00000000000E+00  0.00000000000E+00  0.34360578592E+02  0.34360578592E+02  0.00000000000E+00 0. -1.
         21   -1    0    0  506  502 -0.00000000000E+00 -0.00000000000E+00 -0.14149845846E+04  0.14149845846E+04  0.00000000000E+00 0. -1.
         21    1    1    2  503  501 -0.43533773680E+02  0.16655312980E+02 -0.74549232091E+02  0.87921424617E+02  0.00000000000E+00 0. -1.
         21    1    1    2  504  505  0.46141893030E+02  0.94557489906E+02 -0.29427879131E+03  0.31252231953E+03  0.00000000000E+00 0. -1.
         21    1    1    2  505  502 -0.88727884765E+02 -0.23607271820E+02 -0.79033224770E+03  0.79564753665E+03  0.00000000000E+00 0. -1.
         21    1    1    2  506  503  0.86119765415E+02 -0.87605531066E+02 -0.22146373487E+03  0.25325388236E+03  0.00000000000E+00 0. -1.
<scales pt_clust_3="46.61104" pt_clust_4="14000.00000" pt_clust_5="95.47953" pt_clust_6="90.14848"></scales>
<clustering>
<clus scale="   46.611">  1  3  2 -1</clus>
<clus scale="   95.480">  2  5  1 -1</clus>
<clus scale="   90.148">  1  6  2 -1</clus>
<clus scale="   46.611">  1  3  2 -1</clus>
</clustering>
</event>
<event>
 6    0  0.8777103E+002  0.4036966E+03  0.7546771E-02  0.1042507E+00
         21   -1    0    0  505  501  0.00000000000E+00  0.00000000000E+00  0.12860620407E+03  0.12860620407E+03  0.00000000000E+00 0.  1.
         21   -1    0    0  503  502 -0.00000000000E+00 -0.00000000000E+00 -0.14454020390E+04  0.14454020390E+04  0.00000000000E+00 0.  1.
         21    1    1    2  503  501  0.85737640352E+02 -0.36820002273E+03 -0.34755322688E+03  0.51353232150E+03  0.00000000000E+00 0.  1.
         21    1    1    2  504  502  0.25935673983E+02  0.21731522785E+02 -0.10154746361E+03  0.10703646871E+03  0.00000000000E+00 0.  1.
         21    1    1    2  505  506 -0.30428084750E+02  0.75946085137E+02 -0.71602556358E+02  0.10872259317E+03  0.00000000000E+00 0.  1.
         21    1    1    2  506  504 -0.81245229585E+02  0.27052241481E+03 -0.79609258811E+03  0.84471685971E+03  0.00000000000E+00 0.  1.
<scales pt_clust_3="373.26987" pt_clust_4="33.83664" pt_clust_5="81.85731" pt_clust_6="81.85731"></scales>
<clustering>
<clus scale="   33.837">  2  4  1 -1</clus>
<clus scale="   81.857">  5  6 -1 -1</clus>
<clus scale="  373.270">  1  3  2 -1</clus>
<clus scale="  373.270">  1  3  2 -1</clus>
</clustering>
</event>
<event>
 6    0  0.8777103E+002  0.1275114E+03  0.7546771E-02  0.1231196E+00
         21   -1    0    0  506  501  0.00000000000E+00  0.00000000000E+00  0.20018843298E+02  0.20018843298E+02  0.00000000000E+00 0. -1.
         21   -1    0    0  505  502 -0.00000000000E+00 -0.00000000000E+00 -0.21582133836E+04  0.21582133836E+04  0.00000000000E+00 0.  1.
         21    1    1    2  503  502  0.83879832912E+02  0.29530638529E+02 -0.58042099478E+03  0.58719367858E+03  0.00000000000E+00 0. -1.
         21    1    1    2  504  501 -0.40285988477E+02  0.86568303930E+01 -0.10505927631E+03  0.11285102179E+03  0.00000000000E+00 0. -1.
         21    1    1    2  505  504 -0.63345929065E+02  0.10282888552E+03 -0.86920041938E+03  0.87755105577E+03  0.00000000000E+00 0.  1.
         21    1    1    2  506  503  0.19752084629E+02 -0.14101635444E+03 -0.58351384986E+03  0.60063647080E+03  0.00000000000E+00 0. -1.
<scales pt_clust_3="81.67434" pt_clust_4="41.20560" pt_clust_5="14000.00000" pt_clust_6="127.51144"></scales>
<clustering>
<clus scale="   41.206">  1  4  2 -1</clus>
<clus scale="   81.674">  2  3  1 -1</clus>
<clus scale="  127.511">  1  6  2 -1</clus>
<clus scale="   41.206">  1  3  2 -1</clus>
</clustering>
</event>
<event>
 6    0  0.8777103E+002  0.9332889E+02  0.7546771E-02  0.1294985E+00
         21   -1    0    0  503  501  0.00000000000E+00  0.00000000000E+00  0.37889332366E+02  0.37889332366E+02  0.00000000000E+00 0.  1.
         21   -1    0    0  506  502 -0.00000000000E+00 -0.00000000000E+00 -0.20031704375E+04  0.20031704375E+04  0.00000000000E+00 0. -1.
         21    1    1    2  503  505  0.37281954608E+02 -0.16353623854E+02  0.13465238480E+02  0.42880039643E+02  0.00000000000E+00 0.  1.
         21    1    1    2  504  502 -0.92740423958E+02  0.57294338853E+02 -0.13223135403E+04  0.13267993543E+04  0.00000000000E+00 0. -1.
         21    1    1    2  505  504  0.77316905274E+02  0.16627243384E+02 -0.35038192460E+03  0.35919613327E+03  0.00000000000E+00 0. -1.
         21    1    1    2  506  501 -0.21858435924E+02 -0.57567958383E+02 -0.30605087870E+03  0.31218424272E+03  0.00000000000E+00 0. -1.
<scales pt_clust_3="40.71100" pt_clust_4="14000.00000" pt_clust_5="93.32889" pt_clust_6="63.53593"></scales>
<clustering>
<clus scale="   40.711">  1  3  2 -1</clus>
<clus scale="   63.536">  1  6  2 -1</clus>
<clus scale="   93.329">  1  5  2 -1</clus>
<clus scale="   40.711">  1  3  2 -1</clus>
</clustering>
</event>
<event>
 6    0  0.8777103E+002  0.1389970E+03  0.7546771E-02  0.1214685E+00
         21   -1    0    0  505  501  0.00000000000E+00  0.00000000000E+00  0.48066097134E+03  0.48066097134E+03  0.00000000000E+00 0. -1.
         21   -1    0    0  506  502 -0.00000000000E+00 -0.00000000000E+00 -0.46703287973E+03  0.46703287973E+03  0.00000000000E+00 0. -1.
         21    1    1    2  503  502 -0.41581824353E+02  0.86683572918E+02 -0.88963945093E+02  0.13098730266E+03  0.00000000000E+00 0. -1.
         21    1    1    2  504  503  0.69856237301E+02  0.55102630418E+02  0.32473343108E+03  0.33670164097E+03  0.00000000000E+00 0. -1.
         21    1    1    2  505  504  0.85738294363E+01  0.64707882977E+02  0.85556678386E+02  0.10761303772E+03  0.00000000000E+00 0. -1.
         21    1    1    2  506  501 -0.36848242384E+02 -0.20649408631E+03 -0.30769807277E+03  0.37239186972E+03  0.00000000000E+00 0. -1.
<scales pt_clust_3="99.14913" pt_clust_4="14000.00000" pt_clust_5="65.27343" pt_clust_6="138.99703"></scales>
<clustering>
<clus scale="   65.273">  1  5  2 -1</clus>
<clus scale="   99.149">  2  3  1 -1</clus>
<clus scale="  138.997">  2  6  1 -1</clus>
<clus scale="   65.273">  1  3  2 -1</clus>
</clustering>
</event>
<event>
 6    0  0.8777103E+002  0.1417336E+03  0.7546771E-02  0.1211015E+00
         21   -1    0    0  506  501  0.00000000000E+00  0.00000000000E+00  0.32842551641E+02  0.32842551641E+02  0.00000000000E+00 0. -1.
         21   -1    0    0  505  502 -0.00000000000E+00 -0.00000000000E+00 -0.21513175313E+04  0.21513175313E+04  0.00000000000E+00 0. -1.
         21    1    1    2  503  502 -0.33999218806E+02 -0.90641951646E+01 -0.54435489214E+03  0.54549093036E+03  0.00000000000E+00 0.  1.
         21    1    1    2  504  501  0.10737010876E+03 -0.68472673186E+01 -0.44222532330E+03  0.45512466632E+03  0.00000000000E+00 0. -1.
         21    1    1    2  505  504  0.90085019806E+02  0.13470195160E+02 -0.87042158557E+03  0.87517455035E+03  0.00000000000E+00 0. -1.
         21    1    1    2  506  503 -0.16345590976E+03  0.24412673230E+01 -0.26147317869E+03  0.30836993594E+03  0.00000000000E+00 0. -1.
<scales pt_clust_3="35.18674" pt_clust_4="14000.00000" pt_clust_5="72.12037" pt_clust_6="141.73359"></scales>
<clustering>
<clus scale="   35.187">  2  3  1 -1</clus>
<clus scale="   72.120">  2  5  1 -1</clus>
<clus scale="  141.734">  1  6  2 -1</clus>
<clus scale="  141.734">  1  3  2 -1</clus>
</clustering>
</event>
<event>
 6    0  0.8777103E+002  0.1148945E+03  0.7546771E-02  0.1251765E+00
         21   -1    0    0  505  501  0.00000000000E+00  0.00000000000E+00  0.38427572880E+03  0.38427572880E+03  0.00000000000E+00 0.  1.
         21   -1    0    0  503  502 -0.00000000000E+00 -0.00000000000E+00 -0.18517522581E+04  0.18517522581E+04  0.00000000000E+00 0.  1.
         21    1    1    2  503  504 -0.56761398119E+02 -0.79450978730E+02 -0.14582726625E+04  0.14615380503E+04  0.00000000000E+00 0.  1.
         21    1    1    2  504  501  0.56845208724E+01 -0.56651687407E+02  0.36505855861E+03  0.36947189159E+03  0.00000000000E+00 0.  1.
         21    1    1    2  505  506  0.11065052331E+02  0.35120632709E+02 -0.16707258393E+03  0.17108226830E+03  0.00000000000E+00 0.  1.
         21    1    1    2  506  502  0.40011824915E+02  0.10098203343E+03 -0.20718984150E+03  0.23393577672E+03  0.00000000000E+00 0.  1.
<scales pt_clust_3="101.81489" pt_clust_4="56.93617" pt_clust_5="30.99827" pt_clust_6="30.99827"></scales>
<clustering>
<clus scale="   30.998">  5  6 -1 -1</clus>
<clus scale="   56.936">  1  4  2 -1</clus>
<clus scale="  101.815">  2  3  1 -1</clus>
<clus scale="   56.936">  1  3  2 -1</clus>
</clustering>
</event>
<event>
 6    0  0.8777103E+002  0.2155409E+03  0.7546771E-02  0.1137252E+00
         21   -1    0    0  506  501  0.00000000000E+00  0.00000000000E+00  0.78630341288E+03  0.78630341288E+03  0.00000000000E+00 0. -1.
         21   -1    0    0  504  502 -0.00000000000E+00 -0.00000000000E+00 -0.25870265753E+03  0.25870265753E+03  0.00000000000E+00 0. -1.
         21    1    1    2  503  501  0.34503222879E+02 -0.41154623850E+01  0.93490622336E+02  0.99739189311E+02  0.00000000000E+00 0. -1.
         21    1    1    2  504  503 -0.45510864413E+02 -0.32369550133E+03  0.26311457499E+03  0.41961803576E+03  0.00000000000E+00 0. -1.
         21    1    1    2  505  502 -0.16152534746E+02  0.19639047452E+03 -0.10167899378E+03  0.22174025488E+03  0.00000000000E+00 0. -1.
         21    1    1    2  506  505  0.27160176280E+02  0.13142048920E+03  0.27267455180E+03  0.30390859046E+03  0.00000000000E+00 0. -1.
<scales pt_clust_3="34.74780" pt_clust_4="215.54094" pt_clust_5="14000.00000" pt_clust_6="136.20301"></scales>
<clustering>
<clus scale="   34.748">  1  3  2 -1</clus>
<clus scale="  136.203">  1  6  2 -1</clus>
<clus scale="  215.541">  1  4  2 -1</clus>
<clus scale="   34.748">  1  3  2 -1</clus>
</clustering>
</event>
<event>
 6    0  0.8777103E+002  0.8264705E+02  0.7546771E-02  0.1321703E+00
         21   -1    0    0  504  501  0.00000000000E+00  0.00000000000E+00  0.31798045008E+03  0.31798045008E+03  0.00000000000E+00 0. -1.
         21   -1    0    0  503  502 -0.00000000000E+00 -0.00000000000E+00 -0.31990231641E+03  0.31990231641E+03  0.00000000000E+00 0. -1.
         21    1    1    2  503  501 -0.14784782585E+02  0.33798516671E+02  0.28661158850E+02  0.46716073806E+02  0.00000000000E+00 0. -1.
         21    1    1    2  504  505 -0.58075851497E+02  0.19124648447E+02  0.10513190272E+03  0.12161938035E+03  0.00000000000E+00 0. -1.
         21    1    1    2  505  506  0.11142565807E+03 -0.12175774134E+02  0.14500453753E+03  0.18327641053E+03  0.00000000000E+00 0. -1.
         21    1    1    2  506  502 -0.38565023987E+02 -0.40747390984E+02 -0.28071946543E+03  0.28627090181E+03  0.00000000000E+00 0. -1.
<scales pt_clust_3="36.89078" pt_clust_4="14000.00000" pt_clust_5="82.64705" pt_clust_6="55.96213"></scales>
<clustering>
<clus scale="   36.891">  1  3  2 -1</clus>
<clus scale="   55.962">  2  6  1 -1</clus>
<clus scale="   82.647">  2  5  1 -1</clus>
<clus scale="   36.891">  1  3  2 -1</clus>
</clustering>
</event>
<event>
 6    0  0.8777103E+002  0.6620011E+02  0.7546771E-02  0.1373513E+00
         21   -1    0    0  505  501  0.00000000000E+00  0.00000000000E+00  0.47910237687E+03  0.47910237687E+03  0.00000000000E+00 0.  1.
         21   -1    0    0  506  502 -0.00000000000E+00 -0.00000000000E+00 -0.12065941840E+03  0.12065941840E+03  0.00000000000E+00 0.  1.
         21    1    1    2  503  501 -0.28581073943E+02  0.59060773348E+02  0.36168515219E+03  0.36758835952E+03  0.00000000000E+00 0.  1.
         21    1    1    2  504  503  0.66939760611E+02 -0.17326829643E+01  0.50577138099E+02  0.83916509932E+02  0.00000000000E+00 0.  1.
         21    1    1    2  505  502 -0.76587871465E+02 -0.30784807839E+02 -0.79726532118E+01  0.82927496335E+02  0.00000000000E+00 0.  1.
         21    1    1    2  506  504  0.38229184798E+02 -0.26543282544E+02 -0.45846678600E+02  0.65329429487E+02  0.00000000000E+00 0.  1.
<scales pt_clust_3="63.78221" pt_clust_4="66.20011" pt_clust_5="14000.00000" pt_clust_6="46.54048"></scales>
<clustering>
<clus scale="   46.540">  2  6  1 -1</clus>
<clus scale="   63.782">  1  3  2 -1</clus>
<clus scale="   66.200">  1  4  2 -1</clus>
<clus scale="   63.782">  1  3  2 -1</clus>
</clustering>
</event>
<event>
 6    0  0.8777103E+002  0.1042966E+03  0.7546771E-02  0.1271512E+00
         21   -1    0    0  506  501  0.00000000000E+00  0.00000000000E+00  0.46510404449E+03  0.46510404449E+03  0.00000000000E+00 0.  1.
         21   -1    0    0  505  502 -0.00000000000E+00 -0.00000000000E+00 -0.45527449683E+03  0.45527449683E+03  0.00000000000E+00 0.  1.
         21    1    1    2  503  502 -0.12388521491E+02  0.43144926803E+02 -0.83060184555E+02  0.94413740694E+02  0.00000000000E+00 0.  1.
         21    1    1    2  504  501  0.48471047147E+02 -0.10921916445E+03  0.20385319875E+03  0.23629302769E+03  0.00000000000E+00 0.  1.
         21    1    1    2  505  504  0.32611663423E+02 -0.33671679415E+01 -0.33952968185E+03  0.34110887304E+03  0.00000000000E+00 0.  1.
         21    1    1    2  506  503 -0.68694189079E+02  0.69441405591E+02  0.22856621531E+03  0.24856289990E+03  0.00000000000E+00 0.  1.
<scales pt_clust_3="42.51375" pt_clust_4="104.29660" pt_clust_5="32.78503" pt_clust_6="14000.00000"></scales>
<clustering>
<clus scale="   32.785">  2  5  1 -1</clus>
<clus scale="   42.514">  2  3  1 -1</clus>
<clus scale="  104.297">  2  4  1 -1</clus>
<clus scale="  104.297">  1  3  2 -1</clus>
</clustering>
</event>
<event>
 6    0  0.8777103E+002  0.1116712E+03  0.7546771E-02  0.1257506E+00
         21   -1    0    0  503  501  0.00000000000E+00  0.00000000000E+00  0.36614327970E+03  0.36614327970E+03  0.00000000000E+00 0.  1.
         21   -1    0    0  506  502 -0.00000000000E+00 -0.00000000000E+00 -0.64122411410E+03  0.64122411410E+03  0.00000000000E+00 0.  1.
         21    1    1    2  503  505 -0.42696118823E+02 -0.35211526343E+02  0.36434839271E+01  0.55462465913E+02  0.00000000000E+00 0.  1.
         21    1    1    2  504  501 -0.55096504162E+02 -0.17741862055E+02  0.31859564716E+03  0.32381103259E+03  0.00000000000E+00 0.  1.
         21    1    1    2  505  502 -0.33674474673E+02 -0.16752976791E+01 -0.25691189568E+03  0.25911483749E+03  0.00000000000E+00 0.  1.
         21    1    1    2  506  504  0.13146709766E+03  0.54628686077E+02 -0.34040806981E+03  0.36897905781E+03  0.00000000000E+00 0.  1.
<scales pt_clust_3="57.18744" pt_clust_4="14000.00000" pt_clust_5="33.71612" pt_clust_6="111.67123"></scales>
<clustering>
<clus scale="   33.716">  2  5  1 -1</clus>
<clus scale="   57.187">  1  3  2 -1</clus>
<clus scale="  111.671">  2  6  1 -1</clus>
<clus scale="   57.187">  1  3  2 -1</clus>
</clustering>
</event>
<event>
 6    0  0.8777103E+002  0.5997477E+02  0.7546771E-02  0.1397938E+00
         21   -1    0    0  506  501  0.00000000000E+00  0.00000000000E+00  0.34767618601E+03  0.34767618601E+03  0.00000000000E+00 0. -1.
         21   -1    0    0  505  502 -0.00000000000E+00 -0.00000000000E+00 -0.12826583628E+03  0.12826583628E+03  0.00000000000E+00 0.  1.
         21    1    1    2  503  504 -0.82775635309E+02 -0.46939332134E+02  0.18238699963E+03  0.20571855613E+03  0.00000000000E+00 0. -1.
         21    1    1    2  504  502 -0.26025641001E+02 -0.15157385630E+02 -0.69093000877E+02  0.75371898602E+02  0.00000000000E+00 0.  1.
         21    1    1    2  505  501  0.67408114826E+02  0.35537181601E+02 -0.18358150180E+01  0.76224113228E+02  0.00000000000E+00 0.  1.
         21    1    1    2  506  503  0.41393161484E+02  0.26559536162E+02  0.10795216599E+03  0.11862745433E+03  0.00000000000E+00 0. -1.
<scales pt_clust_3="59.97477" pt_clust_4="30.11777" pt_clust_5="14000.00000" pt_clust_6="46.31519"></scales>
<clustering>
<clus scale="   30.118">  2  4  1 -1</clus>
<clus scale="   46.315">  1  6  2 -1</clus>
<clus scale="   59.975">  1  3  2 -1</clus>
<clus scale="   46.315">  1  3  2 -1</clus>
</clustering>
</event>
<event>
 6    0  0.8777103E+002  0.1350418E+03  0.7546771E-02  0.1220161E+00
         21   -1    0    0  505  501  0.00000000000E+00  0.00000000000E+00  0.10897100730E+04  0.10897100730E+04  0.00000000000E+00 0.  1.
         21   -1    0    0  506  502 -0.00000000000E+00 -0.00000000000E+00 -0.73423884768E+02  0.73423884768E+02  0.00000000000E+00 0.  1.
         21    1    1    2  503  501  0.29134405203E+02  0.13855173935E+03  0.96215294775E+03  0.97251410936E+03  0.00000000000E+00 0.  1.
         21    1    1    2  504  502 -0.27427560778E+02 -0.17339709458E+02 -0.20048969630E+02  0.38143122546E+02  0.00000000000E+00 0.  1.
         21    1    1    2  505  504 -0.13433370826E+02 -0.91221975882E+02  0.28354573839E+02  0.96467021272E+02  0.00000000000E+00 0.  1.
         21    1    1    2  506  503  0.11726526401E+02 -0.29990054007E+02  0.45827636227E+02  0.56009704543E+02  0.00000000000E+00 0.  1.
<scales pt_clust_3="14000.00000" pt_clust_4="37.54839" pt_clust_5="135.04184" pt_clust_6="32.20116"></scales>
<clustering>
<clus scale="   32.201">  2  6  1 -1</clus>
<clus scale="   37.548">  2  4  1 -1</clus>
<clus scale="  135.042">  2  5  1 -1</clus>
<clus scale="  135.042">  1  3  2 -1</clus>
</clustering>
</event>
<event>
 6    0  0.8777103E+002  0.6043994E+02  0.7546771E-02  0.1395995E+00
         21   -1    0    0  503  501  0.00000000000E+00  0.00000000000E+00  0.52402625039E+03  0.52402625039E+03  0.00000000000E+00 0.  1.
         21   -1    0    0  504  502 -0.00000000000E+00 -0.00000000000E+00 -0.29827953781E+03  0.29827953781E+03  0.00000000000E+00 0.  1.
         21    1    1    2  503  505 -0.54170828801E+02 -0.20128905784E+02  0.39795003953E+03  0.40212421651E+03  0.00000000000E+00 0.  1.
         21    1    1    2  504  501 -0.75244891823E+02 -0.21349037409E+02 -0.68750342389E+01  0.78516502976E+02  0.00000000000E+00 0.  1.
         21    1    1    2  505  506  0.88811977005E+02  0.24076903583E+02  0.61433416054E+02  0.11064054028E+03  0.00000000000E+00 0.  1.
         21    1    1    2  506  502  0.40603743620E+02  0.17401039610E+02 -0.22676170877E+03  0.23102452843E+03  0.00000000000E+00 0.  1.
<scales pt_clust_3="60.43994" pt_clust_4="51.37429" pt_clust_5="14000.00000" pt_clust_6="44.17533"></scales>
<clustering>
<clus scale="   44.175">  2  6  1 -1</clus>
<clus scale="   51.374">  2  4  1 -1</clus>
<clus scale="   60.440">  1  3  2 -1</clus>
<clus scale="   60.440">  1  3  2 -1</clus>
</clustering>
</event>
<event>
 6    0  0.8777103E+002  0.9432878E+02  0.7546771E-02  0.1292695E+00
         21   -1    0    0  505  501  0.00000000000E+00  0.00000000000E+00  0.17182094945E+03  0.17182094945E+03  0.00000000000E+00 0.  1.
         21   -1    0    0  503  502 -0.00000000000E+00 -0.00000000000E+00 -0.16228422348E+04  0.16228422348E+04  0.00000000000E+00 0.  1.
         21    1    1    2  503  504  0.46665546602E+02 -0.32897460540E+02 -0.12023311828E+04  0.12036860842E+04  0.00000000000E+00 0.  1.
         21    1    1    2  504  501 -0.99515853533E+02 -0.26325440892E+02  0.13230898155E+03  0.16763681141E+03  0.00000000000E+00 0.  1.
         21    1    1    2  505  506  0.16828967092E+02  0.78974150936E+02 -0.62255278669E+02  0.10196004301E+03  0.00000000000E+00 0. -1.
         21    1    1    2  506  502  0.36021339840E+02 -0.19751249503E+02 -0.31874380545E+03  0.32138024565E+03  0.00000000000E+00 0.  1.
<scales pt_clust_3="14000.00000" pt_clust_4="94.32878" pt_clust_5="80.04142" pt_clust_6="41.08100"></scales>
<clustering>
<clus scale="   41.081">  2  6  1 -1</clus>
<clus scale="   80.041">  1  5  2 -1</clus>
<clus scale="   94.329">  1  4  2 -1</clus>
<clus scale="   80.041">  1  3  2 -1</clus>
</clustering>
</event>
<event>
 6    0  0.8777103E+002  0.6840675E+02  0.7546771E-02  0.1365596E+00
         21   -1    0    0  505  501  0.00000000000E+00  0.00000000000E+00  0.26704414036E+03  0.26704414036E+03  0.00000000000E+00 0. -1.
         21   -1    0    0  503  502 -0.00000000000E+00 -0.00000000000E+00 -0.26236354552E+03  0.26236354552E+03  0.00000000000E+00 0. -1.
         21    1    1    2  503  504  0.40478582322E+02  0.77806452130E+02 -0.60435343327E+02  0.10651192582E+03  0.00000000000E+00 0. -1.
         21    1    1    2  504  501 -0.29680020743E+02 -0.31030586507E+02  0.21807185918E+03  0.22225916561E+03  0.00000000000E+00 0. -1.
         21    1    1    2  505  506  0.35672950231E+02 -0.66525539105E+02 -0.66924392451E+02  0.10088151980E+03  0.00000000000E+00 0. -1.
         21    1    1    2  506  502 -0.46471511810E+02  0.19749673483E+02 -0.86031528563E+02  0.99755074655E+02  0.00000000000E+00 0.  1.
<scales pt_clust_3="14000.00000" pt_clust_4="42.93950" pt_clust_5="68.40675" pt_clust_6="53.04267"></scales>
<clustering>
<clus scale="   42.940">  1  4  2 -1</clus>
<clus scale="   53.043">  2  6  1 -1</clus>
<clus scale="   68.407">  2  5  1 -1</clus>
<clus scale="   42.940">  1  3  2 -1</clus>
</clustering>
</event>
<event>
 6    0  0.8777103E+002  0.1520683E+03  0.7546771E-02  0.1197954E+00
         21   -1    0    0  505  501  0.00000000000E+00  0.00000000000E+00  0.53258574174E+03  0.53258574174E+03  0.00000000000E+00 0.  1.
         21   -1    0    0  503  502 -0.00000000000E+00 -0.00000000000E+00 -0.10322526367E+04  0.10322526367E+04  0.00000000000E+00 0. -1.
         21    1    1    2  503  504 -0.25136587004E+02 -0.19629885809E+03 -0.82202858410E+03  0.84551527648E+03  0.00000000000E+00 0. -1.
         21    1    1    2  504  501  0.11186284125E+03  0.60154415356E+02  0.45787207591E+03  0.47516174808E+03  0.00000000000E+00 0.  1.
         21    1    1    2  505  506 -0.59792851602E+02  0.81454674773E+02 -0.62396710066E+01  0.10123725915E+03  0.00000000000E+00 0.  1.
         21    1    1    2  506  502 -0.26933402648E+02  0.54689767965E+02 -0.12927071573E+03  0.14292409469E+03  0.00000000000E+00 0.  1.
<scales pt_clust_3="152.06831" pt_clust_4="14000.00000" pt_clust_5="104.64614" pt_clust_6="60.96211"></scales>
<clustering>
<clus scale="   60.962">  2  6  1 -1</clus>
<clus scale="  104.646">  1  5  2 -1</clus>
<clus scale="  152.068">  2  3  1 -1</clus>
<clus scale="  104.646">  1  3  2 -1</clus>
</clustering>
</event>
<event>
 6    0  0.8777103E+002  0.8020292E+02  0.7546771E-02  0.1328477E+00
         21   -1    0    0  503  501  0.00000000000E+00  0.00000000000E+00  0.10101989156E+02  0.10101989156E+02  0.00000000000E+00 0. -1.
         21   -1    0    0  504  502 -0.00000000000E+00 -0.00000000000E+00 -0.25829787895E+04  0.25829787895E+04  0.00000000000E+00 0. -1.
         21    1    1    2  503  505  0.14269363966E+02 -0.28047642032E+02 -0.50410246858E+02  0.59426239657E+02  0.00000000000E+00 0. -1.
         21    1    1    2  504  501  0.16053474240E+01  0.86880684502E+02 -0.10827273949E+04  0.10862087470E+04  0.00000000000E+00 0. -1.
         21    1    1    2  505  506  0.47249404008E+02  0.10102117970E+01 -0.24321063693E+03  0.24775984465E+03  0.00000000000E+00 0. -1.
         21    1    1    2  506  502 -0.63124115397E+02 -0.59843254267E+02 -0.11965285217E+04  0.11996859473E+04  0.00000000000E+00 0. -1.
<scales pt_clust_3="31.46879" pt_clust_4="80.20292" pt_clust_5="54.06025" pt_clust_6="14000.00000"></scales>
<clustering>
<clus scale="   31.469">  1  3  2 -1</clus>
<clus scale="   54.060">  1  5  2 -1</clus>
<clus scale="   80.203">  1  4  2 -1</clus>
<clus scale="   31.469">  1  3  2 -1</clus>
</clustering>
</event>
<event>
 6    0  0.8777103E+002  0.1953476E+03  0.7546771E-02  0.1153725E+00
         21   -1    0    0  504  501  0.00000000000E+00  0.00000000000E+00  0.78170868804E+02  0.78170868804E+02  0.00000000000E+00 0. -1.
         21   -1    0    0  503  502 -0.00000000000E+00 -0.00000000000E+00 -0.18899825738E+04  0.18899825738E+04  0.00000000000E+00 0. -1.
         21    1    1    2  503  505  0.14351816741E+03  0.13244179256E+03 -0.13998373829E+04  0.14133941387E+04  0.00000000000E+00 0. -1.
         21    1    1    2  504  502 -0.74621124851E+02 -0.20054276599E+03 -0.38720853365E+03  0.44239819371E+03  0.00000000000E+00 0. -1.
         21    1    1    2  505  506 -0.49028796939E+02  0.38083956995E+02 -0.39371407338E+02  0.73514069575E+02  0.00000000000E+00 0. -1.
         21    1    1    2  506  501 -0.19868245622E+02  0.30017016435E+02  0.14605618898E+02  0.38847040597E+02  0.00000000000E+00 0. -1.
<scales pt_clust_3="195.34758" pt_clust_4="14000.00000" pt_clust_5="73.49894" pt_clust_6="35.99678"></scales>
<clustering>
<clus scale="   35.997">  1  6  2 -1</clus>
<clus scale="   73.499">  1  5  2 -1</clus>
<clus scale="  195.348">  2  3  1 -1</clus>
<clus scale="   35.997">  1  3  2 -1</clus>
</clustering>
</event>
<event>
 6    0  0.8777103E+002  0.9741740E+02  0.7546771E-02  0.1285822E+00
         21   -1    0    0  504  501  0.00000000000E+00  0.00000000000E+00  0.39046009596E+02  0.39046009596E+02  0.00000000000E+00 0.  1.
         21   -1    0    0  505  502 -0.00000000000E+00 -0.00000000000E+00 -0.86138852921E+03  0.86138852921E+03  0.00000000000E+00 0.  1.
         21    1    1    2  503  502  0.76928223108E+02 -0.46507875924E+02 -0.54383574032E+03  0.55121524514E+03  0.00000000000E+00 0.  1.
         21    1    1    2  504  503 -0.37748724293E+02  0.80389936657E+01 -0.41396983291E+02  0.56597719304E+02  0.00000000000E+00 0.  1.
         21    1    1    2  505  506 -0.27936554461E+02 -0.54710535771E+02 -0.15920736455E+03  0.17064782075E+03  0.00000000000E+00 0.  1.
         21    1    1    2  506  501 -0.11242944355E+02  0.93179418030E+02 -0.77902431457E+02  0.12197375361E+03  0.00000000000E+00 0.  1.
<scales pt_clust_3="97.41740" pt_clust_4="38.59523" pt_clust_5="63.61323" pt_clust_6="14000.00000"></scales>
<clustering>
<clus scale="   38.595">  1  4  2 -1</clus>
<clus scale="   63.613">  2  5  1 -1</clus>
<clus scale="   97.417">  2  3  1 -1</clus>
<clus scale="   38.595">  1  3  2 -1</clus>
</clustering>
</event>
<event>
 6    0  0.8777103E+002  0.1529996E+03  0.7546771E-02  0.1196835E+00
         21   -1    0    0  504  501  0.00000000000E+00  0.00000000000E+00  0.39900566870E+03  0.39900566870E+03  0.00000000000E+00 0. -1.
         21   -1    0    0  503  502 -0.00000000000E+00 -0.00000000000E+00 -0.87191327445E+03  0.87191327445E+03  0.00000000000E+00 0. -1.
         21    1    1    2  503  505  0.36388508268E+02  0.48466092432E+02 -0.68608219248E+03  0.68875384608E+03  0.00000000000E+00 0. -1.
         21    1    1    2  504  502 -0.68284817820E+02  0.11033559459E+03  0.33868024471E+03  0.36268590810E+03  0.00000000000E+00 0. -1.
         21    1    1    2  505  506 -0.24976194550E+02 -0.56065374309E+02 -0.31089115578E+02  0.68801668570E+02  0.00000000000E+00 0. -1.
         21    1    1    2  506  501  0.56872504102E+02 -0.10273631271E+03 -0.94416542414E+02  0.15067752040E+03  0.00000000000E+00 0. -1.
<scales pt_clust_3="60.60599" pt_clust_4="131.24326" pt_clust_5="56.85332" pt_clust_6="56.85332"></scales>
<clustering>
<clus scale="   56.853">  5  6 -1 -1</clus>
<clus scale="   60.606">  2  3  1 -1</clus>
<clus scale="  131.243">  1  4  2 -1</clus>
<clus scale="  131.243">  1  3  2 -1</clus>
</clustering>
</event>
<event>
 6    0  0.8777103E+002  0.1102193E+03  0.7546771E-02  0.1260164E+00
         21   -1    0    0  504  501  0.00000000000E+00  0.00000000000E+00  0.58114583297E+02  0.58114583297E+02  0.00000000000E+00 0. -1.
         21   -1    0    0  506  502 -0.00000000000E+00 -0.00000000000E+00 -0.51382737250E+03  0.51382737250E+03  0.00000000000E+00 0.  1.
         21    1    1    2  503  502 -0.44215495532E+02 -0.36221800792E+02 -0.59416515390E+02  0.82446050232E+02  0.00000000000E+00 0.  1.
         21    1    1    2  504  503 -0.30551581676E+02 -0.82914933894E+02 -0.14249072653E+03  0.16766601490E+03  0.00000000000E+00 0.  1.
         21    1    1    2  505  501  0.37738706644E+02  0.81115596722E+02 -0.33999670168E+02  0.95707510584E+02  0.00000000000E+00 0. -1.
         21    1    1    2  506  505  0.37028370564E+02  0.38021137965E+02 -0.21980587711E+03  0.22612238008E+03  0.00000000000E+00 0.  1.
<scales pt_clust_3="36.02025" pt_clust_4="36.02025" pt_clust_5="100.70979" pt_clust_6="53.07266"></scales>
<clustering>
<clus scale="   36.020">  3  4 -1 -1</clus>
<clus scale="   53.073">  2  6  1 -1</clus>
<clus scale="  100.710">  1  5  2 -1</clus>
<clus scale="  100.710">  1  3  2 -1</clus>
</clustering>
</event>
<event>
 6    0  0.8777103E+002  0.6503422E+02  0.7546771E-02  0.1377843E+00
         21   -1    0    0  505  501  0.00000000000E+00  0.00000000000E+00  0.16180308720E+04  0.16180308720E+04  0.00000000000E+00 0.  1.
         21   -1    0    0  506  502 -0.00000000000E+00 -0.00000000000E+00 -0.10353331244E+04  0.10353331244E+04  0.00000000000E+00 0. -1.
         21    1    1    2  503  501 -0.53993583398E+02 -0.37100047539E+02  0.14758539548E+04  0.14773072180E+04  0.00000000000E+00 0.  1.
         21    1    1    2  504  503  0.11795511039E+02  0.79519518106E+02  0.10519983999E+03  0.13239899612E+03  0.00000000000E+00 0.  1.
         21    1    1    2  505  502  0.18525480294E+02 -0.95723620854E+02 -0.97652707922E+03  0.98138236252E+03  0.00000000000E+00 0. -1.
         21    1    1    2  506  504  0.23672592064E+02  0.53304150287E+02 -0.21828967963E+02  0.62275419671E+02  0.00000000000E+00 0. -1.
<scales pt_clust_3="65.03422" pt_clust_4="14000.00000" pt_clust_5="60.14321" pt_clust_6="58.32430"></scales>
<clustering>
<clus scale="   58.324">  2  6  1 -1</clus>
<clus scale="   60.143">  2  5  1 -1</clus>
<clus scale="   65.034">  1  3  2 -1</clus>
<clus scale="   65.034">  1  3  2 -1</clus>
</clustering>
</event>
<event>
 6    0  0.8777103E+002  0.7950186E+02  0.7546771E-02  0.1330471E+00
         21   -1    0    0  504  501  0.00000000000E+00  0.00000000000E+00  0.13715917504E+04  0.13715917504E+04  0.00000000000E+00 0.  1.
         21   -1    0    0  503  502 -0.00000000000E+00 -0.00000000000E+00 -0.32372180337E+02  0.32372180337E+02  0.00000000000E+00 0.  1.
         21    1    1    2  503  505  0.20397750104E+02 -0.31963158726E+02  0.93335101802E+01  0.39049022233E+02  0.00000000000E+00 0.  1.
         21    1    1    2  504  506 -0.41740738663E+02 -0.58365779968E+02  0.81728798368E+03  0.82043189955E+03  0.00000000000E+00 0.  1.
         21    1    1    2  505  501  0.73472723348E+02  0.93603501439E+02  0.43471082903E+03  0.45070318552E+03  0.00000000000E+00 0.  1.
         21    1    1    2  506  502 -0.52129734789E+02 -0.32745627452E+01  0.77887247131E+02  0.93779823395E+02  0.00000000000E+00 0.  1.
<scales pt_clust_3="37.91717" pt_clust_4="79.50186" pt_clust_5="14000.00000" pt_clust_6="46.41427"></scales>
<clustering>
<clus scale="   37.917">  2  3  1 -1</clus>
<clus scale="   46.414">  2  6  1 -1</clus>
<clus scale="   79.502">  1  4  2 -1</clus>
<clus scale="   79.502">  1  3  2 -1</clus>
</clustering>
</event>
<event>
 6    0  0.8777103E+002  0.2924883E+03  0.7546771E-02  0.1089057E+00
         21   -1    0    0  505  501  0.00000000000E+00  0.00000000000E+00  0.11460677013E+04  0.11460677013E+04  0.00000000000E+00 0.  1.
         21   -1    0    0  503  502 -0.00000000000E+00 -0.00000000000E+00 -0.37985578264E+03  0.37985578264E+03  0.00000000000E+00 0. -1.
         21    1    1    2  503  504  0.14122547527E+02  0.66836490996E+02 -0.81733893352E+02  0.10652226152E+03  0.00000000000E+00 0. -1.
         21    1    1    2  504  501  0.15539611789E+03  0.28837186965E+03  0.58753025587E+03  0.67267978282E+03  0.00000000000E+00 0.  1.
         21    1    1    2  505  506  0.17988345563E+02 -0.72936898485E+02  0.38000871330E+03  0.38736287112E+03  0.00000000000E+00 0.  1.
         21    1    1    2  506  502 -0.18750701098E+03 -0.28227146216E+03 -0.11959315714E+03  0.35935856850E+03  0.00000000000E+00 0. -1.
<scales pt_clust_3="68.31225" pt_clust_4="292.48830" pt_clust_5="74.33177" pt_clust_6="14000.00000"></scales>
<clustering>
<clus scale="   68.312">  2  3  1 -1</clus>
<clus scale="   74.332">  1  5  2 -1</clus>
<clus scale="  292.488">  1  4  2 -1</clus>
<clus scale="   74.332">  1  3  2 -1</clus>
</clustering>
</event>
<event>
 6    0  0.8777103E+002  0.1014077E+03  0.7546771E-02  0.1277363E+00
         21   -1    0    0  505  501  0.00000000000E+00  0.00000000000E+00  0.46913981918E+03  0.46913981918E+03  0.00000000000E+00 0. -1.
         21   -1    0    0  503  502 -0.00000000000E+00 -0.00000000000E+00 -0.12958248187E+04  0.12958248187E+04  0.00000000000E+00 0. -1.
         21    1    1    2  503  506  0.20603028107E+02  0.12813732313E+03  0.28646640713E+03  0.31449429368E+03  0.00000000000E+00 0. -1.
         21    1    1    2  504  502  0.10429252875E+02  0.78354514388E+02 -0.20734399642E+03  0.22190027510E+03  0.00000000000E+00 0.  1.
         21    1    1    2  505  504 -0.40511625697E+02 -0.17293152549E+03 -0.10578103843E+04  0.10726179718E+04  0.00000000000E+00 0. -1.
         21    1    1    2  506  501  0.94793447154E+01 -0.33560312028E+02  0.15200297407E+03  0.15595209728E+03  0.00000000000E+00 0. -1.
<scales pt_clust_3="14000.00000" pt_clust_4="78.30684" pt_clust_5="101.40767" pt_clust_6="34.87338"></scales>
<clustering>
<clus scale="   34.873">  1  6  2 -1</clus>
<clus scale="   78.307">  2  4  1 -1</clus>
<clus scale="  101.408">  2  5  1 -1</clus>
<clus scale="   34.873">  1  3  2 -1</clus>
</clustering>
</event>
<event>
 6    0  0.8777103E+002  0.6929094E+02  0.7546771E-02  0.1362521E+00
         21   -1    0    0  503  501  0.00000000000E+00  0.00000000000E+00  0.16456413790E+03  0.16456413790E+03  0.00000000000E+00 0.  1.
         21   -1    0    0  506  502 -0.00000000000E+00 -0.00000000000E+00 -0.18002727504E+03  0.18002727504E+03  0.00000000000E+00 0.  1.
         21    1    1    2  503  504  0.80934152526E+02 -0.58241221615E+02  0.77241572279E+02  0.12612944711E+03  0.00000000000E+00 0.  1.
         21    1    1    2  504  502  0.33711432326E+02  0.14730573391E+02 -0.21028143853E+02  0.42374913519E+02  0.00000000000E+00 0.  1.
         21    1    1    2  505  501 -0.31869072480E+02  0.27736255797E+02  0.24002656789E+02  0.48590793359E+02  0.00000000000E+00 0.  1.
         21    1    1    2  506  505 -0.82776512373E+02  0.15774392426E+02 -0.95679222349E+02  0.12749625895E+03  0.00000000000E+00 0.  1.
<scales pt_clust_3="14000.00000" pt_clust_4="36.78927" pt_clust_5="41.03497" pt_clust_6="69.29094"></scales>
<clustering>
<clus scale="   36.789">  2  4  1 -1</clus>
<clus scale="   41.035">  1  5  2 -1</clus>
<clus scale="   69.291">  2  6  1 -1</clus>
<clus scale="   41.035">  1  3  2 -1</clus>
</clustering>
</event>
<event>
 6    0  0.8777103E+002  0.9084109E+02  0.7546771E-02  0.1300828E+00
         21   -1    0    0  503  501  0.00000000000E+00  0.00000000000E+00  0.54126481363E+03  0.54126481363E+03  0.00000000000E+00 0.  1.
         21   -1    0    0  506  502 -0.00000000000E+00 -0.00000000000E+00 -0.10741120681E+03  0.10741120681E+03  0.00000000000E+00 0.  1.
         21    1    1    2  503  504 -0.59352203527E+01 -0.34130800100E+02  0.49056027270E+02  0.60055242632E+02  0.00000000000E+00 0.  1.
         21    1    1    2  504  505  0.94666104275E+02 -0.69437082103E+02  0.19272101925E+02  0.11897307923E+03  0.00000000000E+00 0.  1.
         21    1    1    2  505  502 -0.14529088208E+02  0.85599420455E+02 -0.91208530047E+01  0.87301461304E+02  0.00000000000E+00 0.  1.
         21    1    1    2  506  501 -0.74201795714E+02  0.17968461748E+02  0.37464633062E+03  0.38234623727E+03  0.00000000000E+00 0.  1.
<scales pt_clust_3="34.64301" pt_clust_4="14000.00000" pt_clust_5="90.84109" pt_clust_6="79.28237"></scales>
<clustering>
<clus scale="   34.643">  1  3  2 -1</clus>
<clus scale="   79.282">  1  6  2 -1</clus>
<clus scale="   90.841">  2  5  1 -1</clus>
<clus scale="   34.643">  1  3  2 -1</clus>
</clustering>
</event>
<event>
 6    0  0.8777103E+002  0.2007053E+03  0.7546771E-02  0.1149145E+00
         21   -1    0    0  506  501  0.00000000000E+00  0.00000000000E+00  0.54187374638E+03  0.54187374638E+03  0.00000000000E+00 0.  1.
         21   -1    0    0  504  502 -0.00000000000E+00 -0.00000000000E+00 -0.67173349786E+03  0.67173349786E+03  0.00000000000E+00 0. -1.
         21    1    1    2  503  501 -0.88986349966E+01  0.30861086900E+02  0.91115251260E+02  0.96610462174E+02  0.00000000000E+00 0. -1.
         21    1    1    2  504  505  0.10475609958E+03 -0.40030049082E+02 -0.49901199686E+03  0.51145793398E+03  0.00000000000E+00 0. -1.
         21    1    1    2  505  503  0.71878040288E+02 -0.17523216355E+02 -0.13777142384E+03  0.15637928576E+03  0.00000000000E+00 0. -1.
         21    1    1    2  506  502 -0.16773550488E+03  0.26692178537E+02  0.41580841795E+03  0.44915956232E+03  0.00000000000E+00 0.  1.
<scales pt_clust_3="32.11841" pt_clust_4="62.85757" pt_clust_5="62.85757" pt_clust_6="185.15176"></scales>
<clustering>
<clus scale="   32.118">  1  3  2 -1</clus>
<clus scale="   62.858">  4  5 -1 -1</clus>
<clus scale="  185.152">  1  6  2 -1</clus>
<clus scale="   32.118">  1  3  2 -1</clus>
</clustering>
</event>
<event>
 6    0  0.8777103E+002  0.8101809E+02  0.7546771E-02  0.1326187E+00
         21   -1    0    0  503  501  0.00000000000E+00  0.00000000000E+00  0.17036504248E+03  0.17036504248E+03  0.00000000000E+00 0. -1.
         21   -1    0    0  505  502 -0.00000000000E+00 -0.00000000000E+00 -0.50477926603E+03  0.50477926603E+03  0.00000000000E+00 0.  1.
         21    1    1    2  503  502 -0.26931561069E+02 -0.14830984220E+02 -0.94831985048E+02  0.99691386101E+02  0.00000000000E+00 0.  1.
         21    1    1    2  504  501 -0.75247545984E+02 -0.26567924081E+02  0.13061555270E+03  0.15306361545E+03  0.00000000000E+00 0. -1.
         21    1    1    2  505  506 -0.19235191230E+01  0.57660864476E+02 -0.27303261087E+03  0.27906143019E+03  0.00000000000E+00 0.  1.
         21    1    1    2  506  504  0.10410262618E+03 -0.16261956175E+02 -0.97165180321E+02  0.14332787678E+03  0.00000000000E+00 0.  1.
<scales pt_clust_3="30.74520" pt_clust_4="81.01809" pt_clust_5="51.70916" pt_clust_6="14000.00000"></scales>
<clustering>
<clus scale="   30.745">  2  3  1 -1</clus>
<clus scale="   51.709">  2  5  1 -1</clus>
<clus scale="   81.018">  1  4  2 -1</clus>
<clus scale="   81.018">  1  3  2 -1</clus>
</clustering>
</event>
<event>
 6    0  0.8777103E+002  0.1597518E+03  0.7546771E-02  0.1188977E+00
         21   -1    0    0  503  501  0.00000000000E+00  0.00000000000E+00  0.67466528829E+03  0.67466528829E+03  0.00000000000E+00 0.  1.
         21   -1    0    0  506  502 -0.00000000000E+00 -0.00000000000E+00 -0.10912450823E+03  0.10912450823E+03  0.00000000000E+00 0.  1.
         21    1    1    2  503  505  0.96906798631E+01 -0.38116474776E+02  0.12951702982E+03  0.13535669891E+03  0.00000000000E+00 0. -1.
         21    1    1    2  504  501 -0.70495176899E+02  0.19778922910E+02  0.25243679269E+03  0.26284046504E+03  0.00000000000E+00 0.  1.
         21    1    1    2  505  502  0.10581252793E+02 -0.15277919379E+03  0.44640599231E+02  0.15951873892E+03  0.00000000000E+00 0.  1.
         21    1    1    2  506  504  0.50223244243E+02  0.17111674566E+03  0.13894635832E+03  0.22607389367E+03  0.00000000000E+00 0.  1.
<scales pt_clust_3="39.32906" pt_clust_4="65.91178" pt_clust_5="159.75182" pt_clust_6="14000.00000"></scales>
<clustering>
<clus scale="   39.329">  1  3  2 -1</clus>
<clus scale="   65.912">  1  4  2 -1</clus>
<clus scale="  159.752">  2  5  1 -1</clus>
<clus scale="   39.329">  1  3  2 -1</clus>
</clustering>
</event>
<event>
 6    0  0.8777103E+002  0.6525172E+02  0.7546771E-02  0.1377027E+00
         21   -1    0    0  503  501  0.00000000000E+00  0.00000000000E+00  0.83790973473E+02  0.83790973473E+02  0.00000000000E+00 0. -1.
         21   -1    0    0  504  502 -0.00000000000E+00 -0.00000000000E+00 -0.11723678647E+04  0.11723678647E+04  0.00000000000E+00 0. -1.
         21    1    1    2  503  505 -0.67555462707E+02  0.49359772345E+02  0.45625322601E+02  0.95298466567E+02  0.00000000000E+00 0. -1.
         21    1    1    2  504  501  0.34417543539E+02 -0.30607544090E+02 -0.50472570403E+02  0.68329125719E+02  0.00000000000E+00 0. -1.
         21    1    1    2  505  506  0.55227543794E+02 -0.66002361134E+02 -0.70150205018E+03  0.70676128904E+03  0.00000000000E+00 0. -1.
         21    1    1    2  506  502 -0.22089624626E+02  0.47250132879E+02 -0.38222759321E+03  0.38576995682E+03  0.00000000000E+00 0. -1.
<scales pt_clust_3="40.72678" pt_clust_4="46.05854" pt_clust_5="14000.00000" pt_clust_6="65.25172"></scales>
<clustering>
<clus scale="   46.059">  1  4  2 -1</clus>
<clus scale="   40.727">  1  3  2 -1</clus>
<clus scale="   65.252">  2  6  1 -1</clus>
<clus scale="   46.059">  1  3  2 -1</clus>
</clustering>
</event>
<event>
 6    0  0.1200793E+003  0.7504699E+02  0.7546771E-02  0.1343726E+00
         21   -1    0    0  504  501  0.00000000000E+00  0.00000000000E+00  0.14274952815E+03  0.14274952815E+03  0.00000000000E+00 0. -1.
         21   -1    0    0  505  502 -0.00000000000E+00 -0.00000000000E+00 -0.15584414973E+04  0.15584414973E+04  0.00000000000E+00 0.  1.
         21    1    1    2  503  501  0.10838644968E+03 -0.26999292213E+02 -0.12143483837E+04  0.12194747153E+04  0.00000000000E+00 0.  1.
         21    1    1    2  504  506 -0.52047501136E+02  0.53827558991E+02  0.12323461223E+03  0.14419819046E+03  0.00000000000E+00 0. -1.
         21    1    1    2  505  503 -0.59106962802E+02  0.58936358174E+01 -0.19522883636E+03  0.20406534870E+03  0.00000000000E+00 0. -1.
         21    1    1    2  506  502  0.27680142595E+01 -0.32721902595E+02 -0.12934936134E+03  0.13345277102E+03  0.00000000000E+00 0. -1.
<scales pt_clust_3="75.04699" pt_clust_4="14000.00000" pt_clust_5="58.73445" pt_clust_6="32.83877"></scales>
<clustering>
<clus scale="   32.839">  2  6  1 -1</clus>
<clus scale="   58.734">  2  5  1 -1</clus>
<clus scale="   75.047">  2  3  1 -1</clus>
<clus scale="   75.047">  1  3  2 -1</clus>
</clustering>
</event>
<event>
 6    0  0.8777103E+002  0.1166953E+03  0.7546771E-02  0.1248650E+00
         21   -1    0    0  505  501  0.00000000000E+00  0.00000000000E+00  0.16219717171E+04  0.16219717171E+04  0.00000000000E+00 0.  1.
         21   -1    0    0  503  502 -0.00000000000E+00 -0.00000000000E+00 -0.99971440767E+03  0.99971440767E+03  0.00000000000E+00 0. -1.
         21    1    1    2  503  504  0.36673220528E+02  0.12001065300E+02 -0.81249193209E+03  0.81340770244E+03  0.00000000000E+00 0. -1.
         21    1    1    2  504  506  0.49552611060E+02 -0.92274069803E+02 -0.16890188400E+03  0.19874056365E+03  0.00000000000E+00 0. -1.
         21    1    1    2  505  502 -0.80320788725E+02  0.38025035671E+02  0.83789050990E+03  0.84258995901E+03  0.00000000000E+00 0.  1.
         21    1    1    2  506  501 -0.59050428620E+01  0.42247968832E+02  0.76576061563E+03  0.76694789969E+03  0.00000000000E+00 0.  1.
<scales pt_clust_3="38.58692" pt_clust_4="14000.00000" pt_clust_5="116.69534" pt_clust_6="42.68046"></scales>
<clustering>
<clus scale="   38.587">  2  3  1 -1</clus>
<clus scale="   42.680">  1  6  2 -1</clus>
<clus scale="  116.695">  1  5  2 -1</clus>
<clus scale="   42.680">  1  3  2 -1</clus>
</clustering>
</event>
<event>
 6    0  0.8777103E+002  0.1056591E+03  0.7546771E-02  0.1268826E+00
         21   -1    0    0  503  501  0.00000000000E+00  0.00000000000E+00  0.26737604794E+04  0.26737604794E+04  0.00000000000E+00 0.  1.
         21   -1    0    0  505  502 -0.00000000000E+00 -0.00000000000E+00 -0.41305134694E+02  0.41305134694E+02  0.00000000000E+00 0.  1.
         21    1    1    2  503  504  0.69406880765E+02  0.13067304055E+02  0.69897705228E+03  0.70253611234E+03  0.00000000000E+00 0.  1.
         21    1    1    2  504  506  0.21274508805E+02 -0.12758486590E+03  0.10184013404E+03  0.16462659455E+03  0.00000000000E+00 0.  1.
         21    1    1    2  505  501 -0.56601544333E+02  0.91392948897E+02  0.17729480082E+04  0.17762041115E+04  0.00000000000E+00 0.  1.
         21    1    1    2  506  502 -0.34079845238E+02  0.23124612951E+02  0.58690150183E+02  0.71698795694E+02  0.00000000000E+00 0.  1.
<scales pt_clust_3="69.14841" pt_clust_4="14000.00000" pt_clust_5="105.65915" pt_clust_6="41.18475"></scales>
<clustering>
<clus scale="   41.185">  2  6  1 -1</clus>
<clus scale="   69.148">  1  3  2 -1</clus>
<clus scale="  105.659">  1  5  2 -1</clus>
<clus scale="   69.148">  1  3  2 -1</clus>
</clustering>
</event>
<event>
 6    0  0.8777103E+002  0.1746301E+03  0.7546771E-02  0.1173104E+00
         21   -1    0    0  504  501  0.00000000000E+00  0.00000000000E+00  0.61618090477E+03  0.61618090477E+03  0.00000000000E+00 0.  1.
         21   -1    0    0  503  502 -0.00000000000E+00 -0.00000000000E+00 -0.41189599275E+03  0.41189599275E+03  0.00000000000E+00 0. -1.
         21    1    1    2  503  505 -0.12409700674E+03 -0.20693213616E+02 -0.29367735897E+03  0.31949126333E+03  0.00000000000E+00 0. -1.
         21    1    1    2  504  506  0.34185669338E+02 -0.37382379186E+01  0.17850833828E+03  0.18179070726E+03  0.00000000000E+00 0.  1.
         21    1    1    2  505  501  0.87311799693E+02  0.14048188740E+03  0.36607102506E+03  0.40170450140E+03  0.00000000000E+00 0.  1.
         21    1    1    2  506  502  0.25995377082E+01 -0.11605043586E+03 -0.46617092360E+02  0.12509042553E+03  0.00000000000E+00 0. -1.
<scales pt_clust_3="174.63005" pt_clust_4="34.38945" pt_clust_5="14000.00000" pt_clust_6="116.52514"></scales>
<clustering>
<clus scale="   34.389">  1  4  2 -1</clus>
<clus scale="  116.525">  2  6  1 -1</clus>
<clus scale="  174.630">  2  3  1 -1</clus>
<clus scale="   34.389">  1  3  2 -1</clus>
</clustering>
</event>
<event>
 6    0  0.8777103E+002  0.9808144E+02  0.7546771E-02  0.1284383E+00
         21   -1    0    0  504  501  0.00000000000E+00  0.00000000000E+00  0.38921424223E+02  0.38921424223E+02  0.00000000000E+00 0. -1.
         21   -1    0    0  505  502 -0.00000000000E+00 -0.00000000000E+00 -0.10394444264E+04  0.10394444264E+04  0.00000000000E+00 0. -1.
         21    1    1    2  503  502  0.21383996721E+02  0.10563608275E+03 -0.30665027482E+03  0.32503945659E+03  0.00000000000E+00 0. -1.
         21    1    1    2  504  503  0.74648235406E+01  0.30881684217E+02  0.37530429889E+01  0.31991988720E+02  0.00000000000E+00 0. -1.
         21    1    1    2  505  506  0.70929566383E+01 -0.95051045350E+02 -0.61371901966E+03  0.62107652213E+03  0.00000000000E+00 0. -1.
         21    1    1    2  506  501 -0.35941776900E+02 -0.41466721613E+02 -0.83906750684E+02  0.10025788317E+03  0.00000000000E+00 0. -1.
<scales pt_clust_3="98.08144" pt_clust_4="31.77109" pt_clust_5="14000.00000" pt_clust_6="44.27639"></scales>
<clustering>
<clus scale="   31.771">  1  4  2 -1</clus>
<clus scale="   44.276">  1  6  2 -1</clus>
<clus scale="   98.081">  1  3  2 -1</clus>
<clus scale="   31.771">  1  3  2 -1</clus>
</clustering>
</event>
<event>
 6    0  0.8777103E+002  0.8540511E+02  0.7546771E-02  0.1314377E+00
         21   -1    0    0  505  501  0.00000000000E+00  0.00000000000E+00  0.12628013903E+03  0.12628013903E+03  0.00000000000E+00 0.  1.
         21   -1    0    0  503  502 -0.00000000000E+00 -0.00000000000E+00 -0.51233183948E+03  0.51233183948E+03  0.00000000000E+00 0.  1.
         21    1    1    2  503  506  0.93429756626E+02 -0.80805062825E+02  0.60354599795E+02  0.13748183632E+03  0.00000000000E+00 0.  1.
         21    1    1    2  504  502 -0.25095708861E+02 -0.23222072688E+02 -0.11338647383E+03  0.11842952212E+03  0.00000000000E+00 0.  1.
         21    1    1    2  505  504 -0.62925121215E+02  0.34268723909E+02 -0.29396435950E+03  0.30257058841E+03  0.00000000000E+00 0.  1.
         21    1    1    2  506  501 -0.54089265492E+01  0.69758411604E+02 -0.39055466925E+02  0.80130031653E+02  0.00000000000E+00 0.  1.
<scales pt_clust_3="85.40511" pt_clust_4="34.19151" pt_clust_5="14000.00000" pt_clust_6="66.90056"></scales>
<clustering>
<clus scale="   34.192">  2  4  1 -1</clus>
<clus scale="   66.901">  1  6  2 -1</clus>
<clus scale="   85.405">  1  3  2 -1</clus>
<clus scale="   66.901">  1  3  2 -1</clus>
</clustering>
</event>
<event>
 6    0  0.8777103E+002  0.2190399E+03  0.7546771E-02  0.1134601E+00
         21   -1    0    0  502  501  0.00000000000E+00  0.00000000000E+00  0.67896732264E+03  0.67896732264E+03  0.00000000000E+00 0.  1.
         21   -1    0    0  504  502 -0.00000000000E+00 -0.00000000000E+00 -0.15214376762E+03  0.15214376762E+03  0.00000000000E+00 0.  1.
         21    1    1    2  503  505  0.54670864967E+02  0.12313911755E+03  0.12777017632E+02  0.13533439299E+03  0.00000000000E+00 0.  1.
         21    1    1    2  504  503  0.61387683201E+02  0.48275874147E+02 -0.46039518310E+02  0.90656742274E+02  0.00000000000E+00 0.  1.
         21    1    1    2  505  506 -0.12621496110E+03 -0.13276530098E+03  0.39725223979E+03  0.43745420739E+03  0.00000000000E+00 0.  1.
         21    1    1    2  506  501  0.10156412927E+02 -0.38649690714E+02  0.16283381591E+03  0.16766574760E+03  0.00000000000E+00 0.  1.
<scales pt_clust_3="65.01503" pt_clust_4="65.01503" pt_clust_5="202.15237" pt_clust_6="39.96187"></scales>
<clustering>
<clus scale="   39.962">  1  6  2 -1</clus>
<clus scale="   65.015">  3  4 -1 -1</clus>
<clus scale="  202.152">  1  5  2 -1</clus>
<clus scale="   39.962">  1  3  2 -1</clus>
</clustering>
</event>
<event>
 6    0  0.8777103E+002  0.9247512E+02  0.7546771E-02  0.1296966E+00
         21   -1    0    0  506  501  0.00000000000E+00  0.00000000000E+00  0.41691279596E+03  0.41691279596E+03  0.00000000000E+00 0.  1.
         21   -1    0    0  505  502 -0.00000000000E+00 -0.00000000000E+00 -0.99781602541E+02  0.99781602541E+02  0.00000000000E+00 0.  1.
         21    1    1    2  503  502  0.21613914096E+02  0.89428034111E+02  0.10719957447E+03  0.14126670993E+03  0.00000000000E+00 0.  1.
         21    1    1    2  504  501 -0.79779415180E+02 -0.80981614233E+02  0.13547532474E+03  0.17685118191E+03  0.00000000000E+00 0.  1.
         21    1    1    2  505  504  0.67615023352E+02  0.25250256376E+02 -0.37458611263E+02  0.81317368303E+02  0.00000000000E+00 0.  1.
         21    1    1    2  506  503 -0.94495222688E+01 -0.33696676254E+02  0.11191490546E+03  0.11725913835E+03  0.00000000000E+00 0. -1.
<scales pt_clust_3="92.47512" pt_clust_4="14000.00000" pt_clust_5="70.70846" pt_clust_6="34.99656"></scales>
<clustering>
<clus scale="   34.997">  1  6  2 -1</clus>
<clus scale="   70.708">  2  5  1 -1</clus>
<clus scale="   92.475">  1  3  2 -1</clus>
<clus scale="   34.997">  1  3  2 -1</clus>
</clustering>
</event>
<event>
 6    0  0.8777103E+002  0.1211579E+03  0.7546771E-02  0.1241199E+00
         21   -1    0    0  504  501  0.00000000000E+00  0.00000000000E+00  0.30109202840E+03  0.30109202840E+03  0.00000000000E+00 0.  1.
         21   -1    0    0  501  502 -0.00000000000E+00 -0.00000000000E+00 -0.16122855636E+03  0.16122855636E+03  0.00000000000E+00 0. -1.
         21    1    1    2  503  502  0.32078014064E+02  0.35651800044E+02 -0.10343011153E+03  0.11400806026E+03  0.00000000000E+00 0. -1.
         21    1    1    2  504  505 -0.36724983561E+02 -0.25011928868E+01  0.10774473837E+03  0.11385916313E+03  0.00000000000E+00 0.  1.
         21    1    1    2  505  506 -0.73619160804E+02  0.34180522914E+02  0.91200515501E+02  0.12208858674E+03  0.00000000000E+00 0. -1.
         21    1    1    2  506  503  0.78266130301E+02 -0.67331130071E+02  0.44348329706E+02  0.11236477463E+03  0.00000000000E+00 0. -1.
<scales pt_clust_3="47.95883" pt_clust_4="36.34482" pt_clust_5="36.34482" pt_clust_6="108.47362"></scales>
<clustering>
<clus scale="   36.345">  4  5 -1 -1</clus>
<clus scale="   47.959">  2  3  1 -1</clus>
<clus scale="  108.474">  2  6  1 -1</clus>
<clus scale="  121.158">  1  3  2 -1</clus>
</clustering>
</event>
<event>
 6    0  0.8777103E+002  0.1368836E+03  0.7546771E-02  0.1217585E+00
         21   -1    0    0  503  501  0.00000000000E+00  0.00000000000E+00  0.62858880297E+03  0.62858880297E+03  0.00000000000E+00 0. -1.
         21   -1    0    0  505  502 -0.00000000000E+00 -0.00000000000E+00 -0.56416448525E+03  0.56416448525E+03  0.00000000000E+00 0. -1.
         21    1    1    2  503  506 -0.69418204393E+02  0.76035038628E+02  0.29267748701E+02  0.10703651393E+03  0.00000000000E+00 0. -1.
         21    1    1    2  504  501 -0.60781940559E+02 -0.11703742298E+02  0.50496385170E+03  0.50874346522E+03  0.00000000000E+00 0. -1.
         21    1    1    2  505  504  0.22559004761E+03 -0.18238985995E+02 -0.28477982974E+03  0.36376239720E+03  0.00000000000E+00 0. -1.
         21    1    1    2  506  502 -0.95389902658E+02 -0.46092310334E+02 -0.18502745293E+03  0.21321091187E+03  0.00000000000E+00 0. -1.
<scales pt_clust_3="136.88363" pt_clust_4="61.89848" pt_clust_5="14000.00000" pt_clust_6="112.88172"></scales>
<clustering>
<clus scale="   61.898">  1  4  2 -1</clus>
<clus scale="  112.882">  2  6  1 -1</clus>
<clus scale="  136.884">  1  3  2 -1</clus>
<clus scale="   61.898">  1  3  2 -1</clus>
</clustering>
</event>
<event>
 6    0  0.8777103E+002  0.1093121E+03  0.7546771E-02  0.1261849E+00
         21   -1    0    0  505  501  0.00000000000E+00  0.00000000000E+00  0.51622961259E+03  0.51622961259E+03  0.00000000000E+00 0. -1.
         21   -1    0    0  503  502 -0.00000000000E+00 -0.00000000000E+00 -0.35848317610E+03  0.35848317610E+03  0.00000000000E+00 0. -1.
         21    1    1    2  503  501  0.35589426997E+02 -0.21294133281E+02 -0.21939267612E+03  0.22327828771E+03  0.00000000000E+00 0. -1.
         21    1    1    2  504  506 -0.11553166701E+03  0.16002302295E+02  0.10299033255E+03  0.15559771322E+03  0.00000000000E+00 0. -1.
         21    1    1    2  505  504  0.31877203312E+02  0.77680333780E+02  0.36239252972E+03  0.37199292459E+03  0.00000000000E+00 0. -1.
         21    1    1    2  506  502  0.48065036700E+02 -0.72388502794E+02 -0.88243749657E+02  0.12384386316E+03  0.00000000000E+00 0. -1.
<scales pt_clust_3="41.47345" pt_clust_4="14000.00000" pt_clust_5="83.76230" pt_clust_6="109.31205"></scales>
<clustering>
<clus scale="   41.473">  2  3  1 -1</clus>
<clus scale="   83.762">  1  5  2 -1</clus>
<clus scale="  109.312">  2  6  1 -1</clus>
<clus scale="   83.762">  1  3  2 -1</clus>
</clustering>
</event>
<event>
 6    0  0.8777103E+002  0.9112444E+02  0.7546771E-02  0.1300151E+00
         21   -1    0    0  504  501  0.00000000000E+00  0.00000000000E+00  0.12686537380E+04  0.12686537380E+04  0.00000000000E+00 0. -1.
         21   -1    0    0  505  502 -0.00000000000E+00 -0.00000000000E+00 -0.42606155862E+02  0.42606155862E+02  0.00000000000E+00 0.  1.
         21    1    1    2  503  502  0.25428048851E+02 -0.28638786330E+02  0.70465223120E+02  0.80200457731E+02  0.00000000000E+00 0.  1.
         21    1    1    2  504  506 -0.94504200169E+01  0.31138760183E+02  0.16215949074E+03  0.16539236155E+03  0.00000000000E+00 0.  1.
         21    1    1    2  505  501  0.77036529271E+02 -0.79671512060E+02  0.91479070548E+03  0.92147936033E+03  0.00000000000E+00 0. -1.
         21    1    1    2  506  503 -0.93014158105E+02  0.77171538207E+02  0.78632162824E+02  0.14418771427E+03  0.00000000000E+00 0.  1.
<scales pt_clust_3="36.29481" pt_clust_4="32.54125" pt_clust_5="14000.00000" pt_clust_6="91.12444"></scales>
<clustering>
<clus scale="   32.541">  1  4  2 -1</clus>
<clus scale="   36.295">  2  3  1 -1</clus>
<clus scale="   91.124">  2  6  1 -1</clus>
<clus scale="   32.541">  1  3  2 -1</clus>
</clustering>
</event>
<event>
 6    0  0.8777103E+002  0.9765386E+02  0.7546771E-02  0.1285308E+00
         21   -1    0    0  505  501  0.00000000000E+00  0.00000000000E+00  0.65476783794E+02  0.65476783794E+02  0.00000000000E+00 0.  1.
         21   -1    0    0  503  502 -0.00000000000E+00 -0.00000000000E+00 -0.80620689835E+03  0.80620689835E+03  0.00000000000E+00 0. -1.
         21    1    1    2  503  506 -0.28731060265E+02  0.92827018474E+02 -0.59916918364E+03  0.60699756161E+03  0.00000000000E+00 0. -1.
         21    1    1    2  504  502  0.23555659512E+01  0.37980938410E+02 -0.66767356875E+02  0.76850376170E+02  0.00000000000E+00 0. -1.
         21    1    1    2  505  504  0.56196665661E+01 -0.32450131554E+02  0.28608558241E+02  0.43623861530E+02  0.00000000000E+00 0.  1.
         21    1    1    2  506  501  0.20755827747E+02 -0.98357825330E+02 -0.10340213229E+03  0.14421188284E+03  0.00000000000E+00 0.  1.
<scales pt_clust_3="14000.00000" pt_clust_4="32.57858" pt_clust_5="32.93314" pt_clust_6="97.65386"></scales>
<clustering>
<clus scale="   32.933">  1  5  2 -1</clus>
<clus scale="   32.579">  1  4  2 -1</clus>
<clus scale="   97.654">  1  6  2 -1</clus>
<clus scale="   32.933">  1  3  2 -1</clus>
</clustering>
</event>
<event>
 6    0  0.8777103E+002  0.9379967E+02  0.7546771E-02  0.1293903E+00
         21   -1    0    0  504  501  0.00000000000E+00  0.00000000000E+00  0.40529544997E+03  0.40529544997E+03  0.00000000000E+00 0.  1.
         21   -1    0    0  503  502 -0.00000000000E+00 -0.00000000000E+00 -0.69376284769E+02  0.69376284769E+02  0.00000000000E+00 0.  1.
         21    1    1    2  503  506 -0.36408843810E+02  0.39749090592E+02  0.19995736609E+02  0.57492813403E+02  0.00000000000E+00 0.  1.
         21    1    1    2  504  505  0.59484385695E+02 -0.48185419767E+02  0.11612228950E+03  0.13908491269E+03  0.00000000000E+00 0.  1.
         21    1    1    2  505  502  0.69129187329E+02  0.38595227886E+02  0.14865769392E+03  0.16842667876E+03  0.00000000000E+00 0.  1.
         21    1    1    2  506  501 -0.92204729214E+02 -0.30158898711E+02  0.51143445175E+02  0.10966732989E+03  0.00000000000E+00 0.  1.
<scales pt_clust_3="53.90356" pt_clust_4="64.48759" pt_clust_5="93.79967" pt_clust_6="14000.00000"></scales>
<clustering>
<clus scale="   53.904">  2  3  1 -1</clus>
<clus scale="   64.488">  1  4  2 -1</clus>
<clus scale="   93.800">  1  5  2 -1</clus>
<clus scale="   64.488">  1  3  2 -1</clus>
</clustering>
</event>
<event>
 6    0  0.8777103E+002  0.8823505E+02  0.7546771E-02  0.1307183E+00
         21   -1    0    0  503  501  0.00000000000E+00  0.00000000000E+00  0.12186582489E+04  0.12186582489E+04  0.00000000000E+00 0.  1.
         21   -1    0    0  505  502 -0.00000000000E+00 -0.00000000000E+00 -0.16011298148E+03  0.16011298148E+03  0.00000000000E+00 0.  1.
         21    1    1    2  503  506 -0.81467261553E+01 -0.57858850957E+02  0.47153141973E+03  0.47513776483E+03  0.00000000000E+00 0. -1.
         21    1    1    2  504  501 -0.79249083873E+02  0.54024024609E+02  0.64840872762E+03  0.65546387435E+03  0.00000000000E+00 0.  1.
         21    1    1    2  505  504 -0.48426542544E+02 -0.32359318121E+00  0.52092818448E+02  0.71125919813E+02  0.00000000000E+00 0.  1.
         21    1    1    2  506  502  0.13582235257E+03  0.41584195294E+01 -0.11348769834E+03  0.17704367141E+03  0.00000000000E+00 0.  1.
<scales pt_clust_3="58.51707" pt_clust_4="88.23505" pt_clust_5="48.42762" pt_clust_6="14000.00000"></scales>
<clustering>
<clus scale="   48.428">  2  5  1 -1</clus>
<clus scale="   58.517">  1  3  2 -1</clus>
<clus scale="   88.235">  1  4  2 -1</clus>
<clus scale="   58.517">  1  3  2 -1</clus>
</clustering>
</event>
<event>
 6    0  0.8777103E+002  0.7210861E+02  0.7546771E-02  0.1353066E+00
         21   -1    0    0  505  501  0.00000000000E+00  0.00000000000E+00  0.21582674987E+03  0.21582674987E+03  0.00000000000E+00 0. -1.
         21   -1    0    0  504  502 -0.00000000000E+00 -0.00000000000E+00 -0.19055549898E+03  0.19055549898E+03  0.00000000000E+00 0. -1.
         21    1    1    2  503  506 -0.74770687176E+02  0.45536822758E+02 -0.53749189642E+02  0.10272893105E+03  0.00000000000E+00 0. -1.
         21    1    1    2  504  501  0.87725966694E-01  0.62214117332E+02  0.82320351327E+02  0.10318548509E+03  0.00000000000E+00 0. -1.
         21    1    1    2  505  503  0.31258125952E+02 -0.58490777613E+02  0.73781538180E+02  0.99206637278E+02  0.00000000000E+00 0. -1.
         21    1    1    2  506  502  0.43424835257E+02 -0.49260162477E+02 -0.77081448978E+02  0.10126119543E+03  0.00000000000E+00 0. -1.
<scales pt_clust_3="14000.00000" pt_clust_4="62.21418" pt_clust_5="34.62682" pt_clust_6="72.10861"></scales>
<clustering>
<clus scale="   62.214">  1  4  2 -1</clus>
<clus scale="   34.627">  1  5  2 -1</clus>
<clus scale="   72.109">  2  6  1 -1</clus>
<clus scale="   62.214">  1  3  2 -1</clus>
</clustering>
</event>
<event>
 6    0  0.8777103E+002  0.3278217E+03  0.7546771E-02  0.1072105E+00
         21   -1    0    0  506  501  0.00000000000E+00  0.00000000000E+00  0.17899518134E+03  0.17899518134E+03  0.00000000000E+00 0.  1.
         21   -1    0    0  504  502 -0.00000000000E+00 -0.00000000000E+00 -0.11950570569E+04  0.11950570569E+04  0.00000000000E+00 0.  1.
         21    1    1    2  503  501 -0.48169846559E+02  0.13688669896E+02  0.65771330670E+02  0.82665480941E+02  0.00000000000E+00 0.  1.
         21    1    1    2  504  503 -0.21998860022E+02  0.25189686459E+02 -0.41995131244E+02  0.53684832070E+02  0.00000000000E+00 0.  1.
         21    1    1    2  505  502  0.32949334939E+03  0.12101515675E+03 -0.68743339468E+03  0.77186475990E+03  0.00000000000E+00 0.  1.
         21    1    1    2  506  505 -0.25932464281E+03 -0.15989351311E+03 -0.35240468027E+03  0.46583716530E+03  0.00000000000E+00 0.  1.
<scales pt_clust_3="50.28377" pt_clust_4="33.44354" pt_clust_5="14000.00000" pt_clust_6="327.82171"></scales>
<clustering>
<clus scale="   33.444">  2  4  1 -1</clus>
<clus scale="   50.284">  1  3  2 -1</clus>
<clus scale="  327.822">  1  6  2 -1</clus>
<clus scale="   50.284">  1  3  2 -1</clus>
</clustering>
</event>
<event>
 6    0  0.9738048E+002  0.9756404E+02  0.7546771E-02  0.1285503E+00
         21   -1    0    0  505  501  0.00000000000E+00  0.00000000000E+00  0.13774897166E+04  0.13774897166E+04  0.00000000000E+00 0.  1.
         21   -1    0    0  503  502 -0.00000000000E+00 -0.00000000000E+00 -0.22359157908E+03  0.22359157908E+03  0.00000000000E+00 0. -1.
         21    1    1    2  503  501  0.89207129296E+02  0.14986167299E+03  0.11140863958E+04  0.11276546148E+04  0.00000000000E+00 0.  1.
         21    1    1    2  504  502 -0.82259190412E+02 -0.51343612261E+02 -0.19170412669E+03  0.21483298890E+03  0.00000000000E+00 0. -1.
         21    1    1    2  505  506 -0.23576097662E+02 -0.31416389167E+02  0.12976949476E+03  0.13558371458E+03  0.00000000000E+00 0. -1.
         21    1    1    2  506  504  0.16628158779E+02 -0.67101671565E+02  0.10174637360E+03  0.12300997737E+03  0.00000000000E+00 0.  1.
<scales pt_clust_3="14000.00000" pt_clust_4="97.56404" pt_clust_5="39.27877" pt_clust_6="71.42511"></scales>
<clustering>
<clus scale="   39.279">  1  5  2 -1</clus>
<clus scale="   71.425">  1  6  2 -1</clus>
<clus scale="   97.564">  2  4  1 -1</clus>
<clus scale="   39.279">  1  3  2 -1</clus>
</clustering>
</event>
<event>
 6    0  0.8777103E+002  0.8355752E+02  0.7546771E-02  0.1319248E+00
         21   -1    0    0  506  501  0.00000000000E+00  0.00000000000E+00  0.16518020670E+03  0.16518020670E+03  0.00000000000E+00 0. -1.
         21   -1    0    0  503  502 -0.00000000000E+00 -0.00000000000E+00 -0.27289205712E+03  0.27289205712E+03  0.00000000000E+00 0.  1.
         21    1    1    2  503  501 -0.40688608629E+02 -0.68962855341E+01 -0.16560647494E+03  0.17067110525E+03  0.00000000000E+00 0.  1.
         21    1    1    2  504  502  0.11276020939E+02  0.42003865426E+02 -0.98753710086E+01  0.44598164889E+02  0.00000000000E+00 0.  1.
         21    1    1    2  505  504  0.10600077472E+03 -0.40569519952E+02 -0.94681229826E+01  0.11389335162E+03  0.00000000000E+00 0. -1.
         21    1    1    2  506  505 -0.76588187034E+02  0.54619400601E+01  0.77238118506E+02  0.10890964206E+03  0.00000000000E+00 0. -1.
<scales pt_clust_3="41.26889" pt_clust_4="40.21680" pt_clust_5="14000.00000" pt_clust_6="83.55752"></scales>
<clustering>
<clus scale="   41.269">  2  3  1 -1</clus>
<clus scale="   40.217">  2  4  1 -1</clus>
<clus scale="   83.558">  1  6  2 -1</clus>
<clus scale="   83.558">  1  3  2 -1</clus>
</clustering>
</event>
<event>
 6    0  0.8777103E+002  0.9839934E+02  0.7546771E-02  0.1283698E+00
         21   -1    0    0  503  501  0.00000000000E+00  0.00000000000E+00  0.14166320572E+04  0.14166320572E+04  0.00000000000E+00 0. -1.
         21   -1    0    0  505  502 -0.00000000000E+00 -0.00000000000E+00 -0.17660572101E+03  0.17660572101E+03  0.00000000000E+00 0. -1.
         21    1    1    2  503  502 -0.14619481485E+02 -0.15609405269E+03  0.82035565057E+03  0.83520205696E+03  0.00000000000E+00 0. -1.
         21    1    1    2  504  501  0.53270675385E+02  0.48690863906E+02  0.46050224963E+03  0.46612325301E+03  0.00000000000E+00 0. -1.
         21    1    1    2  505  506 -0.30949546084E+02  0.43858393502E+02 -0.15334313521E+03  0.16246707420E+03  0.00000000000E+00 0. -1.
         21    1    1    2  506  504 -0.77016478152E+01  0.63544795280E+02  0.11251157116E+03  0.12944539401E+03  0.00000000000E+00 0. -1.
<scales pt_clust_3="98.39934" pt_clust_4="73.62044" pt_clust_5="53.67898" pt_clust_6="14000.00000"></scales>
<clustering>
<clus scale="   53.679">  2  5  1 -1</clus>
<clus scale="   73.620">  1  4  2 -1</clus>
<clus scale="   98.399">  1  3  2 -1</clus>
<clus scale="   73.620">  1  3  2 -1</clus>
</clustering>
</event>
<event>
 6    0  0.8777103E+002  0.8648188E+02  0.7546771E-02  0.1311602E+00
         21   -1    0    0  504  501  0.00000000000E+00  0.00000000000E+00  0.32503810641E+03  0.32503810641E+03  0.00000000000E+00 0.  1.
         21   -1    0    0  505  502 -0.00000000000E+00 -0.00000000000E+00 -0.52094747980E+03  0.52094747980E+03  0.00000000000E+00 0.  1.
         21    1    1    2  503  501 -0.10272504870E+02  0.52640773543E+02  0.17325744721E+03  0.18136901171E+03  0.00000000000E+00 0.  1.
         21    1    1    2  504  506 -0.89754045886E+02 -0.14348023481E+02  0.99799682459E+02  0.13498752220E+03  0.00000000000E+00 0.  1.
         21    1    1    2  505  503  0.67969040798E+02  0.15606079818E+02 -0.14975841805E+02  0.71327526749E+02  0.00000000000E+00 0.  1.
         21    1    1    2  506  502  0.32057509959E+02 -0.53898829881E+02 -0.45399066125E+03  0.45830152554E+03  0.00000000000E+00 0.  1.
<scales pt_clust_3="53.63372" pt_clust_4="86.48188" pt_clust_5="14000.00000" pt_clust_6="61.97559"></scales>
<clustering>
<clus scale="   53.634">  1  3  2 -1</clus>
<clus scale="   61.976">  2  6  1 -1</clus>
<clus scale="   86.482">  1  4  2 -1</clus>
<clus scale="   53.634">  1  3  2 -1</clus>
</clustering>
</event>
<event>
 6    0  0.8777103E+002  0.7855129E+02  0.7546771E-02  0.1333214E+00
         21   -1    0    0  502  501  0.00000000000E+00  0.00000000000E+00  0.41245556728E+03  0.41245556728E+03  0.00000000000E+00 0. -1.
         21   -1    0    0  504  502 -0.00000000000E+00 -0.00000000000E+00 -0.82880232258E+02  0.82880232258E+02  0.00000000000E+00 0.  1.
         21    1    1    2  503  501 -0.95700066186E+01  0.44054334735E+02  0.20842543252E+03  0.21324523525E+03  0.00000000000E+00 0. -1.
         21    1    1    2  504  506 -0.63222534812E+02 -0.53725304824E+02  0.10697888585E+02  0.83653703485E+02  0.00000000000E+00 0.  1.
         21    1    1    2  505  503 -0.49669613705E+01  0.57770522237E+02  0.86120415679E+02  0.10382114400E+03  0.00000000000E+00 0. -1.
         21    1    1    2  506  505  0.77759502802E+02 -0.48099552148E+02  0.24331598234E+02  0.94615716799E+02  0.00000000000E+00 0.  1.
<scales pt_clust_3="45.08181" pt_clust_4="78.55129" pt_clust_5="70.89407" pt_clust_6="14000.00000"></scales>
<clustering>
<clus scale="   45.082">  1  3  2 -1</clus>
<clus scale="   78.551">  2  4  1 -1</clus>
<clus scale="   70.894">  1  5  2 -1</clus>
<clus scale="   45.082">  1  3  2 -1</clus>
</clustering>
</event>
<event>
 6    0  0.8777103E+002  0.1270243E+03  0.7546771E-02  0.1231939E+00
         21   -1    0    0  505  501  0.00000000000E+00  0.00000000000E+00  0.47101212486E+03  0.47101212486E+03  0.00000000000E+00 0. -1.
         21   -1    0    0  503  502 -0.00000000000E+00 -0.00000000000E+00 -0.16360689742E+04  0.16360689742E+04  0.00000000000E+00 0.  1.
         21    1    1    2  503  506 -0.34354780451E+02 -0.16235135423E+01 -0.11877609207E+04  0.11882587645E+04  0.00000000000E+00 0.  1.
         21    1    1    2  504  502  0.26654267581E+02 -0.12655363381E+03 -0.41345305036E+03  0.43320860687E+03  0.00000000000E+00 0.  1.
         21    1    1    2  505  504 -0.37995189316E+02  0.82381293028E+02  0.40267609147E+03  0.41276912009E+03  0.00000000000E+00 0. -1.
         21    1    1    2  506  501  0.45695702187E+02  0.45795854326E+02  0.33481030229E+02  0.72844607604E+02  0.00000000000E+00 0.  1.
<scales pt_clust_3="34.39312" pt_clust_4="127.02434" pt_clust_5="14000.00000" pt_clust_6="63.58608"></scales>
<clustering>
<clus scale="   34.393">  2  3  1 -1</clus>
<clus scale="   63.586">  1  6  2 -1</clus>
<clus scale="  127.024">  2  4  1 -1</clus>
<clus scale="   63.586">  1  3  2 -1</clus>
</clustering>
</event>
<event>
 6    0  0.8777103E+002  0.1029401E+03  0.7546771E-02  0.1274232E+00
         21   -1    0    0  506  501  0.00000000000E+00  0.00000000000E+00  0.20875307948E+03  0.20875307948E+03  0.00000000000E+00 0. -1.
         21   -1    0    0  505  502 -0.00000000000E+00 -0.00000000000E+00 -0.18790908852E+04  0.18790908852E+04  0.00000000000E+00 0. -1.
         21    1    1    2  503  501  0.27591895651E+00  0.97674909467E+02 -0.29440773291E+02  0.10201579879E+03  0.00000000000E+00 0. -1.
         21    1    1    2  504  502  0.56493515775E+02 -0.12013512639E+03 -0.12473113010E+03  0.18215877891E+03  0.00000000000E+00 0. -1.
         21    1    1    2  505  503 -0.82258488920E+02  0.60531469675E+02 -0.16546521933E+04  0.16578010733E+04  0.00000000000E+00 0. -1.
         21    1    1    2  506  504  0.25489054188E+02 -0.38071252749E+02  0.13848629094E+03  0.14586831372E+03  0.00000000000E+00 0. -1.
<scales pt_clust_3="78.21797" pt_clust_4="102.94009" pt_clust_5="14000.00000" pt_clust_6="45.81607"></scales>
<clustering>
<clus scale="   45.816">  1  6  2 -1</clus>
<clus scale="   78.218">  1  3  2 -1</clus>
<clus scale="  102.940">  1  4  2 -1</clus>
<clus scale="   45.816">  1  3  2 -1</clus>
</clustering>
</event>
<event>
 6    0  0.8777103E+002  0.1510388E+03  0.7546771E-02  0.1199202E+00
         21   -1    0    0  504  501  0.00000000000E+00  0.00000000000E+00  0.41804557302E+03  0.41804557302E+03  0.00000000000E+00 0.  1.
         21   -1    0    0  503  502 -0.00000000000E+00 -0.00000000000E+00 -0.50911014063E+03  0.50911014063E+03  0.00000000000E+00 0.  1.
         21    1    1    2  503  506  0.41523546625E+02  0.11175668314E+02 -0.70467808152E+02  0.82551877461E+02  0.00000000000E+00 0.  1.
         21    1    1    2  504  505  0.30296141996E+02  0.49392192602E+01  0.15363689389E+03  0.15667337768E+03  0.00000000000E+00 0.  1.
         21    1    1    2  505  502 -0.12637565776E+03  0.11414288760E+03 -0.39256367825E+03  0.42790845650E+03  0.00000000000E+00 0.  1.
         21    1    1    2  506  501  0.54555969142E+02 -0.13025777517E+03  0.21833002490E+03  0.26002200202E+03  0.00000000000E+00 0.  1.
<scales pt_clust_3="43.70310" pt_clust_4="30.69613" pt_clust_5="14000.00000" pt_clust_6="151.03879"></scales>
<clustering>
<clus scale="   30.696">  1  4  2 -1</clus>
<clus scale="   43.703">  2  3  1 -1</clus>
<clus scale="  151.039">  1  6  2 -1</clus>
<clus scale="   30.696">  1  3  2 -1</clus>
</clustering>
</event>
<event>
 6    0  0.8777103E+002  0.1124357E+03  0.7546771E-02  0.1256125E+00
         21   -1    0    0  505  501  0.00000000000E+00  0.00000000000E+00  0.57420717631E+02  0.57420717631E+02  0.00000000000E+00 0. -1.
         21   -1    0    0  504  502 -0.00000000000E+00 -0.00000000000E+00 -0.11824195338E+04  0.11824195338E+04  0.00000000000E+00 0. -1.
         21    1    1    2  503  502  0.60011085806E+02  0.52969236062E+02 -0.32521964383E+03  0.33492519631E+03  0.00000000000E+00 0. -1.
         21    1    1    2  504  501 -0.28095434602E+02  0.39319893642E+02 -0.52701553443E+03  0.52922658759E+03  0.00000000000E+00 0. -1.
         21    1    1    2  505  506  0.83841194014E+02 -0.91559550606E+02 -0.70838792993E+02  0.14293576079E+03  0.00000000000E+00 0. -1.
         21    1    1    2  506  503 -0.11575684522E+03 -0.72957909782E+00 -0.20192484491E+03  0.23275270674E+03  0.00000000000E+00 0. -1.
<scales pt_clust_3="86.03287" pt_clust_4="48.32605" pt_clust_5="14000.00000" pt_clust_6="112.43570"></scales>
<clustering>
<clus scale="   48.326">  2  4  1 -1</clus>
<clus scale="   86.033">  2  3  1 -1</clus>
<clus scale="  112.436">  2  6  1 -1</clus>
<clus scale="  112.436">  1  3  2 -1</clus>
</clustering>
</event>
<event>
 6    0  0.8777103E+002  0.7528573E+02  0.7546771E-02  0.1342988E+00
         21   -1    0    0  504  501  0.00000000000E+00  0.00000000000E+00  0.68810272437E+03  0.68810272437E+03  0.00000000000E+00 0.  1.
         21   -1    0    0  506  502 -0.00000000000E+00 -0.00000000000E+00 -0.78293200962E+03  0.78293200962E+03  0.00000000000E+00 0. -1.
         21    1    1    2  503  505 -0.61714121538E+00  0.10877761749E+03  0.30898593944E+03  0.32757481848E+03  0.00000000000E+00 0.  1.
         21    1    1    2  504  502  0.25531594954E+02 -0.48156499024E+02  0.12096463022E+03  0.13267762623E+03  0.00000000000E+00 0.  1.
         21    1    1    2  505  501 -0.51450871658E+02 -0.22090548396E+02  0.23905049241E+03  0.24552051329E+03  0.00000000000E+00 0.  1.
         21    1    1    2  506  503  0.26536417919E+02 -0.38530570071E+02 -0.76383034732E+03  0.76526177599E+03  0.00000000000E+00 0. -1.
<scales pt_clust_3="75.28573" pt_clust_4="14000.00000" pt_clust_5="54.97284" pt_clust_6="46.78447"></scales>
<clustering>
<clus scale="   46.784">  2  6  1 -1</clus>
<clus scale="   54.973">  1  5  2 -1</clus>
<clus scale="   75.286">  1  3  2 -1</clus>
<clus scale="   54.973">  1  3  2 -1</clus>
</clustering>
</event>
<event>
 6    0  0.8777103E+002  0.1360373E+03  0.7546771E-02  0.1218763E+00
         21   -1    0    0  505  501  0.00000000000E+00  0.00000000000E+00  0.63197104315E+02  0.63197104315E+02  0.00000000000E+00 0. -1.
         21   -1    0    0  504  502 -0.00000000000E+00 -0.00000000000E+00 -0.25085602858E+04  0.25085602858E+04  0.00000000000E+00 0. -1.
         21    1    1    2  503  501  0.97590605716E+02  0.66297949651E+02 -0.51547521735E+01  0.11809282756E+03  0.00000000000E+00 0. -1.
         21    1    1    2  504  506 -0.37670737492E+02 -0.20508403707E+02 -0.98879905893E+03  0.98972888107E+03  0.00000000000E+00 0.  1.
         21    1    1    2  505  502  0.30412238468E+02 -0.49391453401E+02 -0.17569417967E+03  0.18502125469E+03  0.00000000000E+00 0.  1.
         21    1    1    2  506  503 -0.90332106692E+02  0.36019074574E+01 -0.12757151907E+04  0.12789144268E+04  0.00000000000E+00 0. -1.
<scales pt_clust_3="128.29279" pt_clust_4="31.16470" pt_clust_5="58.00362" pt_clust_6="31.16470"></scales>
<clustering>
<clus scale="   31.165">  4  6 -1 -1</clus>
<clus scale="   58.004">  1  5  2 -1</clus>
<clus scale="  128.293">  1  3  2 -1</clus>
<clus scale="   58.004">  1  3  2 -1</clus>
</clustering>
</event>
<event>
 6    0  0.8777103E+002  0.8953809E+02  0.7546771E-02  0.1303974E+00
         21   -1    0    0  505  501  0.00000000000E+00  0.00000000000E+00  0.15865430691E+03  0.15865430691E+03  0.00000000000E+00 0. -1.
         21   -1    0    0  506  502 -0.00000000000E+00 -0.00000000000E+00 -0.11064995853E+04  0.11064995853E+04  0.00000000000E+00 0. -1.
         21    1    1    2  503  502 -0.36137107490E+02 -0.13432815222E+02 -0.62787715656E+03  0.62905965917E+03  0.00000000000E+00 0. -1.
         21    1    1    2  504  501 -0.15253818065E+02 -0.89462700668E+02  0.11753487690E+03  0.14849478463E+03  0.00000000000E+00 0. -1.
         21    1    1    2  505  503 -0.48030927340E+02  0.45294523965E+02 -0.30568163381E+03  0.31272963584E+03  0.00000000000E+00 0. -1.
         21    1    1    2  506  504  0.99421852895E+02  0.57600991925E+02 -0.13182136491E+03  0.17486981258E+03  0.00000000000E+00 0.  1.
<scales pt_clust_3="38.55296" pt_clust_4="89.53809" pt_clust_5="80.24172" pt_clust_6="14000.00000"></scales>
<clustering>
<clus scale="   38.553">  2  3  1 -1</clus>
<clus scale="   80.242">  2  5  1 -1</clus>
<clus scale="   89.538">  1  4  2 -1</clus>
<clus scale="   89.538">  1  3  2 -1</clus>
</clustering>
</event>
<event>
 6    0  0.8777103E+002  0.7311607E+02  0.7546771E-02  0.1349806E+00
         21   -1    0    0  506  501  0.00000000000E+00  0.00000000000E+00  0.16811543170E+03  0.16811543170E+03  0.00000000000E+00 0.  1.
         21   -1    0    0  504  502 -0.00000000000E+00 -0.00000000000E+00 -0.14637656211E+04  0.14637656211E+04  0.00000000000E+00 0.  1.
         21    1    1    2  503  502 -0.13613813445E+02 -0.42917813309E+02 -0.92307641431E+03  0.92417386961E+03  0.00000000000E+00 0.  1.
         21    1    1    2  504  505 -0.30257581399E+02  0.34771940122E+02 -0.35940014215E+03  0.36234385773E+03  0.00000000000E+00 0.  1.
         21    1    1    2  505  501 -0.60426731602E+02  0.38284196772E+02  0.14023474526E+03  0.15742570753E+03  0.00000000000E+00 0.  1.
         21    1    1    2  506  503  0.10429812645E+03 -0.30138323585E+02 -0.15340837818E+03  0.18793761790E+03  0.00000000000E+00 0.  1.
<scales pt_clust_3="45.02527" pt_clust_4="39.82277" pt_clust_5="73.11607" pt_clust_6="14000.00000"></scales>
<clustering>
<clus scale="   45.025">  2  3  1 -1</clus>
<clus scale="   39.823">  2  4  1 -1</clus>
<clus scale="   73.116">  1  5  2 -1</clus>
<clus scale="   73.116">  1  3  2 -1</clus>
</clustering>
</event>
<event>
 6    0  0.9947463E+002  0.1947829E+03  0.7546771E-02  0.1154217E+00
         21   -1    0    0  503  501  0.00000000000E+00  0.00000000000E+00  0.32694413982E+03  0.32694413982E+03  0.00000000000E+00 0. -1.
         21   -1    0    0  506  502 -0.00000000000E+00 -0.00000000000E+00 -0.13268338764E+04  0.13268338764E+04  0.00000000000E+00 0.  1.
         21    1    1    2  503  502  0.33998559458E+02  0.37506899604E+01  0.14207135267E+02  0.37037986080E+02  0.00000000000E+00 0. -1.
         21    1    1    2  504  501  0.22453499196E+02 -0.22550293174E+02  0.39507306081E+02  0.50729701183E+02  0.00000000000E+00 0. -1.
         21    1    1    2  505  504 -0.94031596166E+02 -0.17254115328E+03  0.20991352446E+03  0.28753448211E+03  0.00000000000E+00 0. -1.
         21    1    1    2  506  505  0.37579537512E+02  0.19134075650E+03 -0.12635177024E+04  0.12784758468E+04  0.00000000000E+00 0.  1.
<scales pt_clust_3="36.08005" pt_clust_4="31.82256" pt_clust_5="194.78287" pt_clust_6="14000.00000"></scales>
<clustering>
<clus scale="   31.823">  1  4  2 -1</clus>
<clus scale="   36.080">  1  3  2 -1</clus>
<clus scale="  194.783">  1  5  2 -1</clus>
<clus scale="   31.823">  1  3  2 -1</clus>
</clustering>
</event>
<event>
 6    0  0.8777103E+002  0.1755201E+03  0.7546771E-02  0.1172211E+00
         21   -1    0    0  504  501  0.00000000000E+00  0.00000000000E+00  0.44944996541E+03  0.44944996541E+03  0.00000000000E+00 0. -1.
         21   -1    0    0  506  502 -0.00000000000E+00 -0.00000000000E+00 -0.95288584281E+02  0.95288584281E+02  0.00000000000E+00 0. -1.
         21    1    1    2  503  502 -0.28910130743E+02 -0.32021493611E+02  0.40239878880E+02  0.58995080854E+02  0.00000000000E+00 0.  1.
         21    1    1    2  504  503  0.43980379749E+01 -0.14993630742E+03  0.13609998664E+03  0.20254245329E+03  0.00000000000E+00 0. -1.
         21    1    1    2  505  501 -0.15879503043E+02  0.32139244214E+02  0.10660434106E+03  0.11247033017E+03  0.00000000000E+00 0. -1.
         21    1    1    2  506  505  0.40391595811E+02  0.14981855682E+03  0.71217174549E+02  0.17073068538E+03  0.00000000000E+00 0. -1.
<scales pt_clust_3="32.16243" pt_clust_4="32.16243" pt_clust_5="35.84815" pt_clust_6="164.95648"></scales>
<clustering>
<clus scale="   32.162">  3  4 -1 -1</clus>
<clus scale="   35.848">  1  5  2 -1</clus>
<clus scale="  164.956">  2  6  1 -1</clus>
<clus scale="   35.848">  1  3  2 -1</clus>
</clustering>
</event>
<event>
 6    0  0.8777103E+002  0.1257917E+03  0.7546771E-02  0.1233837E+00
         21   -1    0    0  506  501  0.00000000000E+00  0.00000000000E+00  0.94315005904E+03  0.94315005904E+03  0.00000000000E+00 0.  1.
         21   -1    0    0  505  502 -0.00000000000E+00 -0.00000000000E+00 -0.28855972773E+03  0.28855972773E+03  0.00000000000E+00 0.  1.
         21    1    1    2  503  502  0.62064658088E+01  0.36913762302E+02 -0.20837929173E+03  0.21171460811E+03  0.00000000000E+00 0.  1.
         21    1    1    2  504  501  0.99188489622E+02 -0.83585865780E+02  0.85217332306E+03  0.86198858807E+03  0.00000000000E+00 0.  1.
         21    1    1    2  505  504 -0.46225891708E+02  0.24454486545E+01  0.55025225422E+02  0.71906805771E+02  0.00000000000E+00 0. -1.
         21    1    1    2  506  503 -0.59169063722E+02  0.44226654824E+02 -0.44228925447E+02  0.86099784813E+02  0.00000000000E+00 0. -1.
<scales pt_clust_3="37.43189" pt_clust_4="14000.00000" pt_clust_5="46.00793" pt_clust_6="125.79175"></scales>
<clustering>
<clus scale="   37.432">  2  3  1 -1</clus>
<clus scale="   46.008">  2  5  1 -1</clus>
<clus scale="  125.792">  2  6  1 -1</clus>
<clus scale="  125.792">  1  3  2 -1</clus>
</clustering>
</event>
<event>
 6    0  0.8777103E+002  0.8221424E+02  0.7546771E-02  0.1322883E+00
         21   -1    0    0  503  501  0.00000000000E+00  0.00000000000E+00  0.19272514994E+03  0.19272514994E+03  0.00000000000E+00 0.  1.
         21   -1    0    0  504  502 -0.00000000000E+00 -0.00000000000E+00 -0.14419429117E+03  0.14419429117E+03  0.00000000000E+00 0.  1.
         21    1    1    2  503  502  0.10095397467E+03 -0.12034990885E+02  0.65988077674E+02  0.12120632162E+03  0.00000000000E+00 0.  1.
         21    1    1    2  504  506  0.60595844248E+01  0.41231173208E+02 -0.32206355238E+02  0.52668562969E+02  0.00000000000E+00 0.  1.
         21    1    1    2  505  501 -0.32603320413E+02 -0.34553229696E+02  0.59430522921E+02  0.76084750371E+02  0.00000000000E+00 0.  1.
         21    1    1    2  506  505 -0.74410238677E+02  0.53570473728E+01 -0.44681386590E+02  0.86959806141E+02  0.00000000000E+00 0.  1.
<scales pt_clust_3="82.21424" pt_clust_4="41.67407" pt_clust_5="44.75519" pt_clust_6="14000.00000"></scales>
<clustering>
<clus scale="   41.674">  2  4  1 -1</clus>
<clus scale="   44.755">  1  5  2 -1</clus>
<clus scale="   82.214">  1  3  2 -1</clus>
<clus scale="   44.755">  1  3  2 -1</clus>
</clustering>
</event>
<event>
 6    0  0.8777103E+002  0.9021703E+02  0.7546771E-02  0.1302327E+00
         21   -1    0    0  504  501  0.00000000000E+00  0.00000000000E+00  0.15879968479E+04  0.15879968479E+04  0.00000000000E+00 0.  1.
         21   -1    0    0  505  502 -0.00000000000E+00 -0.00000000000E+00 -0.63014400308E+02  0.63014400308E+02  0.00000000000E+00 0. -1.
         21    1    1    2  503  501  0.73662321221E+00  0.65876533278E+02  0.12218787133E+04  0.12236534846E+04  0.00000000000E+00 0.  1.
         21    1    1    2  504  506  0.39002014312E+02  0.20316900822E+02  0.19417476448E+03  0.19909237238E+03  0.00000000000E+00 0.  1.
         21    1    1    2  505  503  0.29766097600E+02 -0.10281683013E+03  0.11813190943E+02  0.10768877660E+03  0.00000000000E+00 0.  1.
         21    1    1    2  506  502 -0.69504735123E+02  0.16623396035E+02  0.97115778865E+02  0.12057661467E+03  0.00000000000E+00 0. -1.
<scales pt_clust_3="90.21703" pt_clust_4="43.97651" pt_clust_5="14000.00000" pt_clust_6="68.90419"></scales>
<clustering>
<clus scale="   43.977">  1  4  2 -1</clus>
<clus scale="   68.904">  2  6  1 -1</clus>
<clus scale="   90.217">  1  3  2 -1</clus>
<clus scale="   43.977">  1  3  2 -1</clus>
</clustering>
</event>
<event>
 6    0  0.8777103E+002  0.7335804E+02  0.7546771E-02  0.1349032E+00
         21   -1    0    0  505  501  0.00000000000E+00  0.00000000000E+00  0.36731600850E+03  0.36731600850E+03  0.00000000000E+00 0. -1.
         21   -1    0    0  506  502 -0.00000000000E+00 -0.00000000000E+00 -0.28737924617E+03  0.28737924617E+03  0.00000000000E+00 0.  1.
         21    1    1    2  503  501 -0.33248604492E+02  0.37119035324E+02  0.10665424193E+03  0.11772178985E+03  0.00000000000E+00 0. -1.
         21    1    1    2  504  503  0.69363470127E+02  0.69681485504E+02 -0.36665594269E+02  0.10493410415E+03  0.00000000000E+00 0.  1.
         21    1    1    2  505  502 -0.13476857596E+02 -0.86511395807E+02  0.21113481282E+03  0.22856893157E+03  0.00000000000E+00 0. -1.
         21    1    1    2  506  504 -0.22638008039E+02 -0.20289125021E+02 -0.20118669816E+03  0.20347042910E+03  0.00000000000E+00 0.  1.
<scales pt_clust_3="49.87132" pt_clust_4="14000.00000" pt_clust_5="73.35804" pt_clust_6="30.39947"></scales>
<clustering>
<clus scale="   30.399">  2  6  1 -1</clus>
<clus scale="   49.871">  1  3  2 -1</clus>
<clus scale="   73.358">  1  5  2 -1</clus>
<clus scale="   49.871">  1  3  2 -1</clus>
</clustering>
</event>
<event>
 6    0  0.8777103E+002  0.1266572E+03  0.7546771E-02  0.1232502E+00
         21   -1    0    0  506  501  0.00000000000E+00  0.00000000000E+00  0.31787304786E+03  0.31787304786E+03  0.00000000000E+00 0.  1.
         21   -1    0    0  504  502 -0.00000000000E+00 -0.00000000000E+00 -0.25440011972E+03  0.25440011972E+03  0.00000000000E+00 0. -1.
         21    1    1    2  503  505 -0.18189691273E+02 -0.62729385974E+02  0.30655773170E+02  0.72149963007E+02  0.00000000000E+00 0.  1.
         21    1    1    2  504  503 -0.46671445140E+02 -0.45061593580E+02  0.85213470997E+01  0.65432288389E+02  0.00000000000E+00 0. -1.
         21    1    1    2  505  501 -0.49407071712E+02  0.12434596970E+03  0.19020887323E+03  0.23255621766E+03  0.00000000000E+00 0.  1.
         21    1    1    2  506  502  0.11426820812E+03 -0.16554990142E+02 -0.16591306537E+03  0.20213469852E+03  0.00000000000E+00 0. -1.
<scales pt_clust_3="39.46697" pt_clust_4="39.46697" pt_clust_5="120.30744" pt_clust_6="115.46121"></scales>
<clustering>
<clus scale="   39.467">  3  4 -1 -1</clus>
<clus scale="  115.461">  2  6  1 -1</clus>
<clus scale="  120.307">  1  5  2 -1</clus>
<clus scale="  120.307">  1  3  2 -1</clus>
</clustering>
</event>
<event>
 6    0  0.8777103E+002  0.8865931E+02  0.7546771E-02  0.1306131E+00
         21   -1    0    0  506  501  0.00000000000E+00  0.00000000000E+00  0.75990401230E+03  0.75990401230E+03  0.00000000000E+00 0. -1.
         21   -1    0    0  503  502 -0.00000000000E+00 -0.00000000000E+00 -0.14620032804E+03  0.14620032804E+03  0.00000000000E+00 0.  1.
         21    1    1    2  503  501 -0.64348234921E+01 -0.31874430044E+02  0.36951145657E+02  0.49221676214E+02  0.00000000000E+00 0. -1.
         21    1    1    2  504  505  0.25296023214E+02  0.15528808021E+03  0.33929452793E+03  0.37399873439E+03  0.00000000000E+00 0. -1.
         21    1    1    2  505  502 -0.29477643891E+02 -0.80625810147E+02 -0.10611663632E+03  0.13649246593E+03  0.00000000000E+00 0.  1.
         21    1    1    2  506  504  0.10616444169E+02 -0.42787840022E+02  0.34357464700E+03  0.34639146381E+03  0.00000000000E+00 0. -1.
<scales pt_clust_3="32.51748" pt_clust_4="88.65931" pt_clust_5="14000.00000" pt_clust_6="58.61241"></scales>
<clustering>
<clus scale="   32.517">  1  3  2 -1</clus>
<clus scale="   58.612">  1  6  2 -1</clus>
<clus scale="   88.659">  1  4  2 -1</clus>
<clus scale="   32.517">  1  3  2 -1</clus>
</clustering>
</event>
<event>
 6    0  0.8777103E+002  0.7424383E+02  0.7546771E-02  0.1346229E+00
         21   -1    0    0  505  501  0.00000000000E+00  0.00000000000E+00  0.62549048857E+03  0.62549048857E+03  0.00000000000E+00 0. -1.
         21   -1    0    0  504  502 -0.00000000000E+00 -0.00000000000E+00 -0.11870285007E+04  0.11870285007E+04  0.00000000000E+00 0.  1.
         21    1    1    2  503  502  0.10901345634E+02  0.29391639928E+02 -0.10942707820E+04  0.10947197140E+04  0.00000000000E+00 0.  1.
         21    1    1    2  504  501  0.58351999740E+02 -0.17157909379E+02  0.16490989782E+03  0.17576866651E+03  0.00000000000E+00 0. -1.
         21    1    1    2  505  506 -0.20255763831E+02  0.78109664417E+02  0.41936332518E+03  0.42705621896E+03  0.00000000000E+00 0. -1.
         21    1    1    2  506  503 -0.48997581543E+02 -0.90343394967E+02 -0.51540453145E+02  0.11497438985E+03  0.00000000000E+00 0. -1.
<scales pt_clust_3="31.34817" pt_clust_4="60.97706" pt_clust_5="14000.00000" pt_clust_6="74.24383"></scales>
<clustering>
<clus scale="   31.348">  2  3  1 -1</clus>
<clus scale="   60.977">  1  4  2 -1</clus>
<clus scale="   74.244">  2  6  1 -1</clus>
<clus scale="   60.977">  1  3  2 -1</clus>
</clustering>
</event>
<event>
 6    0  0.8777103E+002  0.9224015E+02  0.7546771E-02  0.1297516E+00
         21   -1    0    0  505  501  0.00000000000E+00  0.00000000000E+00  0.79639166250E+02  0.79639166250E+02  0.00000000000E+00 0. -1.
         21   -1    0    0  501  502 -0.00000000000E+00 -0.00000000000E+00 -0.16159694535E+04  0.16159694535E+04  0.00000000000E+00 0. -1.
         21    1    1    2  503  506 -0.49370510732E+02 -0.38696079828E+02 -0.39460844839E+03  0.39956308821E+03  0.00000000000E+00 0. -1.
         21    1    1    2  504  503  0.11158389029E+03  0.58303916477E+02 -0.21464533182E+03  0.24884318299E+03  0.00000000000E+00 0. -1.
         21    1    1    2  505  504 -0.92761865840E+01 -0.47488707108E+02  0.49251396592E+02  0.69042921480E+02  0.00000000000E+00 0. -1.
         21    1    1    2  506  502 -0.52937192977E+02  0.27880870458E+02 -0.97632790366E+03  0.97815942709E+03  0.00000000000E+00 0. -1.
<scales pt_clust_3="92.24015" pt_clust_4="14000.00000" pt_clust_5="48.38621" pt_clust_6="59.24454"></scales>
<clustering>
<clus scale="   48.386">  1  5  2 -1</clus>
<clus scale="   59.245">  2  6  1 -1</clus>
<clus scale="   92.240">  2  3  1 -1</clus>
<clus scale="   48.386">  1  3  2 -1</clus>
</clustering>
</event>
<event>
 6    0  0.8777103E+002  0.1108917E+03  0.7546771E-02  0.1258927E+00
         21   -1    0    0  503  501  0.00000000000E+00  0.00000000000E+00  0.10382269364E+03  0.10382269364E+03  0.00000000000E+00 0.  1.
         21   -1    0    0  501  502 -0.00000000000E+00 -0.00000000000E+00 -0.10688407441E+04  0.10688407441E+04  0.00000000000E+00 0.  1.
         21    1    1    2  503  504  0.85088930723E+00 -0.62117089419E+02  0.17609653311E+02  0.64570555985E+02  0.00000000000E+00 0.  1.
         21    1    1    2  504  505  0.60391688843E+02  0.80863398572E+01  0.18570074517E+02  0.63697665900E+02  0.00000000000E+00 0.  1.
         21    1    1    2  505  506  0.35734686145E+02  0.38595506048E+02 -0.16951404645E+02  0.55262383231E+02  0.00000000000E+00 0.  1.
         21    1    1    2  506  502 -0.96977264296E+02  0.15435243514E+02 -0.98424637361E+03  0.98913283259E+03  0.00000000000E+00 0.  1.
<scales pt_clust_3="62.12292" pt_clust_4="48.54018" pt_clust_5="48.54018" pt_clust_6="97.81400"></scales>
<clustering>
<clus scale="   48.540">  4  5 -1 -1</clus>
<clus scale="   62.123">  1  3  2 -1</clus>
<clus scale="   97.814">  2  6  1 -1</clus>
<clus scale="   62.123">  1  3  2 -1</clus>
</clustering>
</event>
<event>
 6    0  0.8777103E+002  0.8333141E+02  0.7546771E-02  0.1319855E+00
         21   -1    0    0  504  501  0.00000000000E+00  0.00000000000E+00  0.10257346625E+04  0.10257346625E+04  0.00000000000E+00 0.  1.
         21   -1    0    0  506  502 -0.00000000000E+00 -0.00000000000E+00 -0.71943271386E+03  0.71943271386E+03  0.00000000000E+00 0.  1.
         21    1    1    2  503  502  0.73662903276E+01 -0.33225597542E+02 -0.35800188583E+03  0.35961584061E+03  0.00000000000E+00 0.  1.
         21    1    1    2  504  505  0.33974474277E+02 -0.32995124676E+02  0.99985721155E+03  0.10009782149E+04  0.00000000000E+00 0.  1.
         21    1    1    2  505  503 -0.46883115205E+01  0.11830146674E+03 -0.16974839746E+03  0.20695829468E+03  0.00000000000E+00 0.  1.
         21    1    1    2  506  501 -0.36652453084E+02 -0.52080744527E+02 -0.16580497962E+03  0.17761502621E+03  0.00000000000E+00 0.  1.
<scales pt_clust_3="34.03238" pt_clust_4="47.40392" pt_clust_5="83.33141" pt_clust_6="14000.00000"></scales>
<clustering>
<clus scale="   34.032">  2  3  1 -1</clus>
<clus scale="   47.404">  1  4  2 -1</clus>
<clus scale="   83.331">  1  5  2 -1</clus>
<clus scale="   47.404">  1  3  2 -1</clus>
</clustering>
</event>
<event>
 6    0  0.8777103E+002  0.1540472E+03  0.7546771E-02  0.1195586E+00
         21   -1    0    0  503  501  0.00000000000E+00  0.00000000000E+00  0.11091413098E+03  0.11091413098E+03  0.00000000000E+00 0.  1.
         21   -1    0    0  505  502 -0.00000000000E+00 -0.00000000000E+00 -0.53249354814E+03  0.53249354814E+03  0.00000000000E+00 0. -1.
         21    1    1    2  503  502 -0.68897411839E+01 -0.34910765729E+02 -0.27053088627E+03  0.27286111948E+03  0.00000000000E+00 0. -1.
         21    1    1    2  504  506 -0.13436064724E+02 -0.78610831962E+02 -0.71386450814E+02  0.10703371477E+03  0.00000000000E+00 0. -1.
         21    1    1    2  505  504 -0.48271755199E+00 -0.40653135087E+02 -0.98732675149E+02  0.10677570674E+03  0.00000000000E+00 0. -1.
         21    1    1    2  506  501  0.20808523459E+02  0.15417473278E+03  0.19070595073E+02  0.15673713814E+03  0.00000000000E+00 0.  1.
<scales pt_clust_3="35.58413" pt_clust_4="34.65871" pt_clust_5="34.65871" pt_clust_6="146.19918"></scales>
<clustering>
<clus scale="   34.659">  4  5 -1 -1</clus>
<clus scale="   35.584">  2  3  1 -1</clus>
<clus scale="  146.199">  1  6  2 -1</clus>
<clus scale="  146.199">  1  3  2 -1</clus>
</clustering>
</event>
<event>
 6    0  0.8777103E+002  0.1484165E+03  0.7546771E-02  0.1202432E+00
         21   -1    0    0  506  501  0.00000000000E+00  0.00000000000E+00  0.12297755794E+03  0.12297755794E+03  0.00000000000E+00 0.  1.
         21   -1    0    0  504  502 -0.00000000000E+00 -0.00000000000E+00 -0.94187473240E+03  0.94187473240E+03  0.00000000000E+00 0.  1.
         21    1    1    2  503  505  0.10775931254E+03  0.73208414191E+02 -0.77307953764E+02  0.15148617450E+03  0.00000000000E+00 0.  1.
         21    1    1    2  504  503 -0.55210309277E+01 -0.13436830124E+03 -0.39927343402E+03  0.42131294459E+03  0.00000000000E+00 0.  1.
         21    1    1    2  505  501  0.93451504236E+02 -0.70112587818E+02 -0.96431579750E+02  0.15148599997E+03  0.00000000000E+00 0. -1.
         21    1    1    2  506  502 -0.19568978585E+03  0.13127247486E+03 -0.24588420692E+03  0.34056717128E+03  0.00000000000E+00 0.  1.
<scales pt_clust_3="148.41648" pt_clust_4="142.56017" pt_clust_5="116.82876" pt_clust_6="14000.00000"></scales>
<clustering>
<clus scale="  116.829">  1  5  2 -1</clus>
<clus scale="  142.560">  2  4  1 -1</clus>
<clus scale="  148.416">  2  3  1 -1</clus>
<clus scale="  116.829">  1  3  2 -1</clus>
</clustering>
</event>
<event>
 6    0  0.8777103E+002  0.1338654E+03  0.7546771E-02  0.1221830E+00
         21   -1    0    0  503  501  0.00000000000E+00  0.00000000000E+00  0.14659158221E+04  0.14659158221E+04  0.00000000000E+00 0. -1.
         21   -1    0    0  504  502 -0.00000000000E+00 -0.00000000000E+00 -0.35795438229E+03  0.35795438229E+03  0.00000000000E+00 0. -1.
         21    1    1    2  503  505  0.13499978235E+03 -0.83928426635E+02  0.11033165142E+03  0.19349934196E+03  0.00000000000E+00 0. -1.
         21    1    1    2  504  506 -0.11333258002E+03  0.38428587420E+00 -0.13448780237E+02  0.11412839726E+03  0.00000000000E+00 0. -1.
         21    1    1    2  505  502 -0.25098328076E+02  0.43837653575E+02 -0.24973834219E+03  0.25479581140E+03  0.00000000000E+00 0. -1.
         21    1    1    2  506  501  0.34311257467E+01  0.39706487186E+02  0.12608169108E+04  0.12614466538E+04  0.00000000000E+00 0. -1.
<scales pt_clust_3="133.86541" pt_clust_4="14000.00000" pt_clust_5="50.91924" pt_clust_6="39.85446"></scales>
<clustering>
<clus scale="   39.854">  1  6  2 -1</clus>
<clus scale="   50.919">  2  5  1 -1</clus>
<clus scale="  133.865">  1  3  2 -1</clus>
<clus scale="   39.854">  1  3  2 -1</clus>
</clustering>
</event>
<event>
 6    0  0.8777103E+002  0.9206203E+02  0.7546771E-02  0.1297934E+00
         21   -1    0    0  506  501  0.00000000000E+00  0.00000000000E+00  0.12540991565E+03  0.12540991565E+03  0.00000000000E+00 0. -1.
         21   -1    0    0  503  502 -0.00000000000E+00 -0.00000000000E+00 -0.37383158313E+03  0.37383158313E+03  0.00000000000E+00 0. -1.
         21    1    1    2  503  505  0.84063639687E+02  0.15308300020E+02 -0.75508187789E+02  0.11402861917E+03  0.00000000000E+00 0.  1.
         21    1    1    2  504  502 -0.32921077984E+02 -0.20367392855E+02 -0.50585138945E+02  0.63698385768E+02  0.00000000000E+00 0. -1.
         21    1    1    2  505  501 -0.93623083649E+02  0.12993953778E+02  0.74278590550E+02  0.12021411581E+03  0.00000000000E+00 0. -1.
         21    1    1    2  506  504  0.42480521947E+02 -0.79348609429E+01 -0.19660693129E+03  0.20130037803E+03  0.00000000000E+00 0. -1.
<scales pt_clust_3="92.06203" pt_clust_4="38.71212" pt_clust_5="14000.00000" pt_clust_6="30.08189"></scales>
<clustering>
<clus scale="   38.712">  2  4  1 -1</clus>
<clus scale="   30.082">  2  6  1 -1</clus>
<clus scale="   92.062">  2  3  1 -1</clus>
<clus scale="   92.062">  1  3  2 -1</clus>
</clustering>
</event>
<event>
 6    0  0.8777103E+002  0.1211584E+03  0.7546771E-02  0.1241198E+00
         21   -1    0    0  503  501  0.00000000000E+00  0.00000000000E+00  0.10224195094E+03  0.10224195094E+03  0.00000000000E+00 0.  1.
         21   -1    0    0  505  502 -0.00000000000E+00 -0.00000000000E+00 -0.15781627316E+04  0.15781627316E+04  0.00000000000E+00 0.  1.
         21    1    1    2  503  504  0.32838501135E+01  0.66691393635E+02  0.48988596587E+02  0.82815507317E+02  0.00000000000E+00 0.  1.
         21    1    1    2  504  506 -0.94394492684E+02 -0.12699482061E+03 -0.19285357992E+03  0.24946043373E+03  0.00000000000E+00 0.  1.
         21    1    1    2  505  501  0.14077059428E+03  0.36206350162E+02 -0.11019594716E+04  0.11115043576E+04  0.00000000000E+00 0.  1.
         21    1    1    2  506  502 -0.49659951710E+02  0.24097076812E+02 -0.23009632575E+03  0.23662438387E+03  0.00000000000E+00 0. -1.
<scales pt_clust_3="67.04722" pt_clust_4="14000.00000" pt_clust_5="121.15842" pt_clust_6="55.19764"></scales>
<clustering>
<clus scale="   55.198">  2  6  1 -1</clus>
<clus scale="   67.047">  1  3  2 -1</clus>
<clus scale="  121.158">  2  5  1 -1</clus>
<clus scale="   67.047">  1  3  2 -1</clus>
</clustering>
</event>
<event>
 6    0  0.8777103E+002  0.1847624E+03  0.7546771E-02  0.1163272E+00
         21   -1    0    0  505  501  0.00000000000E+00  0.00000000000E+00  0.38764643793E+03  0.38764643793E+03  0.00000000000E+00 0.  1.
         21   -1    0    0  506  502 -0.00000000000E+00 -0.00000000000E+00 -0.62922603223E+03  0.62922603223E+03  0.00000000000E+00 0. -1.
         21    1    1    2  503  501  0.27934166220E+02  0.34585462355E+02  0.11306677245E+03  0.12149307339E+03  0.00000000000E+00 0.  1.
         21    1    1    2  504  502  0.16060987928E+02  0.20228045427E+03 -0.13851205312E+03  0.24568460752E+03  0.00000000000E+00 0.  1.
         21    1    1    2  505  504 -0.95849117690E+01 -0.20715000069E+03  0.16552755182E+03  0.26533443752E+03  0.00000000000E+00 0.  1.
         21    1    1    2  506  503 -0.34410242379E+02 -0.29715915935E+02 -0.38166186546E+03  0.38436035173E+03  0.00000000000E+00 0. -1.
<scales pt_clust_3="44.45753" pt_clust_4="184.76235" pt_clust_5="14000.00000" pt_clust_6="45.24708"></scales>
<clustering>
<clus scale="   44.458">  1  3  2 -1</clus>
<clus scale="   45.247">  2  6  1 -1</clus>
<clus scale="  184.762">  2  4  1 -1</clus>
<clus scale="   44.458">  1  3  2 -1</clus>
</clustering>
</event>
<event>
 6    0  0.8777103E+002  0.1096351E+03  0.7546771E-02  0.1261247E+00
         21   -1    0    0  506  501  0.00000000000E+00  0.00000000000E+00  0.22797495031E+03  0.22797495031E+03  0.00000000000E+00 0.  1.
         21   -1    0    0  503  502 -0.00000000000E+00 -0.00000000000E+00 -0.97464667679E+03  0.97464667679E+03  0.00000000000E+00 0. -1.
         21    1    1    2  503  505  0.50548089596E+02  0.14467814093E+03 -0.45916822000E+03  0.48406851590E+03  0.00000000000E+00 0. -1.
         21    1    1    2  504  502 -0.12346600262E+02 -0.44466754070E+02 -0.46402808313E+03  0.46631726613E+03  0.00000000000E+00 0. -1.
         21    1    1    2  505  501 -0.68909295431E+02 -0.76788079868E+02  0.40506329110E+02  0.11084070960E+03  0.00000000000E+00 0. -1.
         21    1    1    2  506  504  0.30707806098E+02 -0.23423306993E+02  0.13601824755E+03  0.14139513546E+03  0.00000000000E+00 0.  1.
<scales pt_clust_3="14000.00000" pt_clust_4="46.33533" pt_clust_5="109.63506" pt_clust_6="38.62151"></scales>
<clustering>
<clus scale="   38.622">  1  6  2 -1</clus>
<clus scale="   46.335">  2  4  1 -1</clus>
<clus scale="  109.635">  1  5  2 -1</clus>
<clus scale="   38.622">  1  3  2 -1</clus>
</clustering>
</event>
<event>
 6    0  0.8777103E+002  0.1781980E+03  0.7546771E-02  0.1169559E+00
         21   -1    0    0  503  501  0.00000000000E+00  0.00000000000E+00  0.52996638039E+03  0.52996638039E+03  0.00000000000E+00 0.  1.
         21   -1    0    0  505  502 -0.00000000000E+00 -0.00000000000E+00 -0.68696034227E+03  0.68696034227E+03  0.00000000000E+00 0. -1.
         21    1    1    2  503  502 -0.20667085534E+03  0.13798398798E+03  0.16896450064E+03  0.30050195650E+03  0.00000000000E+00 0.  1.
         21    1    1    2  504  506  0.10063843658E+03 -0.73569916877E+02 -0.27542118066E+02  0.12766830403E+03  0.00000000000E+00 0. -1.
         21    1    1    2  505  504  0.59218710120E+02 -0.28131520945E+02 -0.53799007834E+03  0.54197007528E+03  0.00000000000E+00 0. -1.
         21    1    1    2  506  501  0.46813708644E+02 -0.36282550154E+02  0.23957373390E+03  0.24678638685E+03  0.00000000000E+00 0.  1.
<scales pt_clust_3="14000.00000" pt_clust_4="178.19797" pt_clust_5="65.96245" pt_clust_6="59.22792"></scales>
<clustering>
<clus scale="   59.228">  1  6  2 -1</clus>
<clus scale="   65.962">  2  5  1 -1</clus>
<clus scale="  178.198">  2  4  1 -1</clus>
<clus scale="   59.228">  1  3  2 -1</clus>
</clustering>
</event>
<event>
 6    0  0.8777103E+002  0.8871352E+02  0.7546771E-02  0.1305997E+00
         21   -1    0    0  505  501  0.00000000000E+00  0.00000000000E+00  0.10668452603E+04  0.10668452603E+04  0.00000000000E+00 0.  1.
         21   -1    0    0  504  502 -0.00000000000E+00 -0.00000000000E+00 -0.14904183736E+03  0.14904183736E+03  0.00000000000E+00 0.  1.
         21    1    1    2  503  501 -0.32189797678E+02 -0.61708404441E+00  0.16469032688E+03  0.16780782948E+03  0.00000000000E+00 0.  1.
         21    1    1    2  504  503  0.10944862752E+03 -0.42393288791E+02  0.88256926684E+01  0.11770338080E+03  0.00000000000E+00 0. -1.
         21    1    1    2  505  506 -0.38420900429E+02 -0.34283485879E+02  0.81623819387E+03  0.81786081464E+03  0.00000000000E+00 0.  1.
         21    1    1    2  506  502 -0.38837929417E+02  0.77293858714E+02 -0.71950790444E+02  0.11251507278E+03  0.00000000000E+00 0.  1.
<scales pt_clust_3="32.19571" pt_clust_4="14000.00000" pt_clust_5="76.07320" pt_clust_6="88.71352"></scales>
<clustering>
<clus scale="   32.196">  1  3  2 -1</clus>
<clus scale="   76.073">  1  5  2 -1</clus>
<clus scale="   88.714">  2  6  1 -1</clus>
<clus scale="   32.196">  1  3  2 -1</clus>
</clustering>
</event>
<event>
 6    0  0.8777103E+002  0.1281757E+03  0.7546771E-02  0.1230188E+00
         21   -1    0    0  506  501  0.00000000000E+00  0.00000000000E+00  0.23414986991E+03  0.23414986991E+03  0.00000000000E+00 0.  1.
         21   -1    0    0  501  502 -0.00000000000E+00 -0.00000000000E+00 -0.14266087721E+03  0.14266087721E+03  0.00000000000E+00 0.  1.
         21    1    1    2  503  504 -0.39027277699E+01 -0.60850040840E+02  0.12562362313E+02  0.62255696134E+02  0.00000000000E+00 0.  1.
         21    1    1    2  504  505  0.27049166260E+02 -0.67159235634E+02 -0.24686939499E+02  0.76494871123E+02  0.00000000000E+00 0.  1.
         21    1    1    2  505  502  0.40968601880E+02  0.28450979271E+02 -0.31036867829E+02  0.58746674171E+02  0.00000000000E+00 0. -1.
         21    1    1    2  506  503 -0.64115040370E+02  0.99558297203E+02  0.13465043772E+03  0.17931350569E+03  0.00000000000E+00 0.  1.
<scales pt_clust_3="42.87328" pt_clust_4="42.87328" pt_clust_5="49.87870" pt_clust_6="119.35835"></scales>
<clustering>
<clus scale="   42.873">  3  4 -1 -1</clus>
<clus scale="   49.879">  2  5  1 -1</clus>
<clus scale="  119.358">  1  6  2 -1</clus>
<clus scale="  119.358">  1  3  2 -1</clus>
</clustering>
</event>
<event>
 6    0  0.8777103E+002  0.7744492E+02  0.7546771E-02  0.1336463E+00
         21   -1    0    0  506  501  0.00000000000E+00  0.00000000000E+00  0.63470151106E+03  0.63470151106E+03  0.00000000000E+00 0.  1.
         21   -1    0    0  505  502 -0.00000000000E+00 -0.00000000000E+00 -0.84546565183E+03  0.84546565183E+03  0.00000000000E+00 0. -1.
         21    1    1    2  503  502 -0.44385794216E+01  0.75224235661E+02 -0.48906931251E+02  0.89834706781E+02  0.00000000000E+00 0.  1.
         21    1    1    2  504  501 -0.17027364189E+02 -0.25196033451E+02  0.23524393921E+02  0.38446954915E+02  0.00000000000E+00 0.  1.
         21    1    1    2  505  504 -0.65967521350E+02 -0.42326857682E+02 -0.76331324290E+03  0.76732677755E+03  0.00000000000E+00 0. -1.
         21    1    1    2  506  503  0.87433464961E+02 -0.77013445271E+01  0.57793163946E+03  0.58455872365E+03  0.00000000000E+00 0.  1.
<scales pt_clust_3="74.53912" pt_clust_4="30.41005" pt_clust_5="77.44492" pt_clust_6="14000.00000"></scales>
<clustering>
<clus scale="   30.410">  1  4  2 -1</clus>
<clus scale="   74.539">  2  3  1 -1</clus>
<clus scale="   77.445">  2  5  1 -1</clus>
<clus scale="   30.410">  1  3  2 -1</clus>
</clustering>
</event>
<event>
 6    0  0.8777103E+002  0.8314562E+02  0.7546771E-02  0.1320354E+00
         21   -1    0    0  506  501  0.00000000000E+00  0.00000000000E+00  0.67693406745E+03  0.67693406745E+03  0.00000000000E+00 0. -1.
         21   -1    0    0  504  502 -0.00000000000E+00 -0.00000000000E+00 -0.62326111280E+03  0.62326111280E+03  0.00000000000E+00 0. -1.
         21    1    1    2  503  505  0.62055496520E+02 -0.98398688161E+02 -0.45262015876E+03  0.46733092621E+03  0.00000000000E+00 0. -1.
         21    1    1    2  504  503  0.40465890526E+02  0.92346904756E+01 -0.10936577880E+03  0.11697709765E+03  0.00000000000E+00 0.  1.
         21    1    1    2  505  501 -0.56439370763E+02  0.60810953671E+02  0.64770905430E+03  0.65300106714E+03  0.00000000000E+00 0. -1.
         21    1    1    2  506  502 -0.46082016283E+02  0.28353044014E+02 -0.32050162101E+02  0.62886089243E+02  0.00000000000E+00 0.  1.
<scales pt_clust_3="83.14562" pt_clust_4="41.50624" pt_clust_5="14000.00000" pt_clust_6="51.42019"></scales>
<clustering>
<clus scale="   41.506">  2  4  1 -1</clus>
<clus scale="   51.420">  2  6  1 -1</clus>
<clus scale="   83.146">  2  3  1 -1</clus>
<clus scale="   83.146">  1  3  2 -1</clus>
</clustering>
</event>
<event>
 6    0  0.8777103E+002  0.9084561E+02  0.7546771E-02  0.1300817E+00
         21   -1    0    0  505  501  0.00000000000E+00  0.00000000000E+00  0.33455977178E+03  0.33455977178E+03  0.00000000000E+00 0. -1.
         21   -1    0    0  504  502 -0.00000000000E+00 -0.00000000000E+00 -0.89391609615E+02  0.89391609615E+02  0.00000000000E+00 0. -1.
         21    1    1    2  503  501 -0.11225932222E+03 -0.28994000748E+02  0.12981509878E+03  0.17405392088E+03  0.00000000000E+00 0. -1.
         21    1    1    2  504  503  0.68299276606E+02 -0.20529678075E+02 -0.33952272448E+02  0.78987439958E+02  0.00000000000E+00 0. -1.
         21    1    1    2  505  506  0.20438852152E+02  0.28483652139E+02  0.12829177492E+03  0.13299565643E+03  0.00000000000E+00 0. -1.
         21    1    1    2  506  502  0.23521193460E+02  0.21040026683E+02  0.21013560911E+02  0.37914364122E+02  0.00000000000E+00 0. -1.
<scales pt_clust_3="14000.00000" pt_clust_4="90.84561" pt_clust_5="35.95375" pt_clust_6="31.55835"></scales>
<clustering>
<clus scale="   31.558">  2  6  1 -1</clus>
<clus scale="   35.954">  1  5  2 -1</clus>
<clus scale="   90.846">  2  4  1 -1</clus>
<clus scale="   35.954">  1  3  2 -1</clus>
</clustering>
</event>
<event>
 6    0  0.8777103E+002  0.9375701E+02  0.7546771E-02  0.1294000E+00
         21   -1    0    0  503  501  0.00000000000E+00  0.00000000000E+00  0.40721246601E+03  0.40721246601E+03  0.00000000000E+00 0.  1.
         21   -1    0    0  504  502 -0.00000000000E+00 -0.00000000000E+00 -0.15604335105E+03  0.15604335105E+03  0.00000000000E+00 0.  1.
         21    1    1    2  503  506 -0.30406984244E+02  0.17172152424E+02  0.16100989962E+03  0.16475331646E+03  0.00000000000E+00 0.  1.
         21    1    1    2  504  505 -0.39001987753E+02 -0.43671618493E+02 -0.95262184155E+02  0.11181792808E+03  0.00000000000E+00 0.  1.
         21    1    1    2  505  501  0.90721753226E+02  0.10215250248E+03  0.92551140436E+02  0.16501904092E+03  0.00000000000E+00 0.  1.
         21    1    1    2  506  502 -0.21312781230E+02 -0.75653036409E+02  0.92870259057E+02  0.12166553160E+03  0.00000000000E+00 0.  1.
<scales pt_clust_3="34.92087" pt_clust_4="58.81588" pt_clust_5="14000.00000" pt_clust_6="93.75701"></scales>
<clustering>
<clus scale="   34.921">  1  3  2 -1</clus>
<clus scale="   58.816">  2  4  1 -1</clus>
<clus scale="   93.757">  1  6  2 -1</clus>
<clus scale="   34.921">  1  3  2 -1</clus>
</clustering>
</event>
<event>
 6    0  0.8777103E+002  0.8151033E+02  0.7546771E-02  0.1324819E+00
         21   -1    0    0  503  501  0.00000000000E+00  0.00000000000E+00  0.15374605672E+03  0.15374605672E+03  0.00000000000E+00 0. -1.
         21   -1    0    0  504  502 -0.00000000000E+00 -0.00000000000E+00 -0.24374659994E+03  0.24374659994E+03  0.00000000000E+00 0.  1.
         21    1    1    2  503  505 -0.39662923681E+02  0.47464780631E+01  0.21244568430E+01  0.40002373502E+02  0.00000000000E+00 0. -1.
         21    1    1    2  504  501  0.60126719397E+02 -0.25997114930E+02 -0.32678020510E+02  0.73204681507E+02  0.00000000000E+00 0.  1.
         21    1    1    2  505  506  0.20760084228E+02 -0.80622018757E+02  0.74017420705E+02  0.11139779878E+03  0.00000000000E+00 0. -1.
         21    1    1    2  506  502 -0.41223879944E+02  0.10187265562E+03 -0.13346440026E+03  0.17288780286E+03  0.00000000000E+00 0.  1.
<scales pt_clust_3="39.94592" pt_clust_4="59.68404" pt_clust_5="81.51033" pt_clust_6="14000.00000"></scales>
<clustering>
<clus scale="   39.946">  1  3  2 -1</clus>
<clus scale="   59.684">  2  4  1 -1</clus>
<clus scale="   81.510">  1  5  2 -1</clus>
<clus scale="   39.946">  1  3  2 -1</clus>
</clustering>
</event>
<event>
 6    0  0.8777103E+002  0.6984898E+02  0.7546771E-02  0.1360607E+00
         21   -1    0    0  504  501  0.00000000000E+00  0.00000000000E+00  0.25033518035E+04  0.25033518035E+04  0.00000000000E+00 0. -1.
         21   -1    0    0  505  502 -0.00000000000E+00 -0.00000000000E+00 -0.61046801195E+02  0.61046801195E+02  0.00000000000E+00 0. -1.
         21    1    1    2  503  501 -0.26071392608E+02 -0.42696122980E+02  0.47879717177E+03  0.48140358133E+03  0.00000000000E+00 0. -1.
         21    1    1    2  504  506  0.29616266825E+02  0.11142763000E+03  0.19508350683E+04  0.19542391623E+04  0.00000000000E+00 0. -1.
         21    1    1    2  505  503 -0.31028664224E+02 -0.54552671432E+02 -0.35053817672E+02  0.71885618153E+02  0.00000000000E+00 0. -1.
         21    1    1    2  506  502  0.27483790007E+02 -0.14178835588E+02  0.47726579915E+02  0.56870242853E+02  0.00000000000E+00 0. -1.
<scales pt_clust_3="49.98055" pt_clust_4="69.84898" pt_clust_5="14000.00000" pt_clust_6="30.92569"></scales>
<clustering>
<clus scale="   30.926">  2  6  1 -1</clus>
<clus scale="   49.981">  1  3  2 -1</clus>
<clus scale="   69.849">  1  4  2 -1</clus>
<clus scale="   49.981">  1  3  2 -1</clus>
</clustering>
</event>
<event>
 6    0  0.8777103E+002  0.5957987E+02  0.7546771E-02  0.1399603E+00
         21   -1    0    0  503  501  0.00000000000E+00  0.00000000000E+00  0.83923201857E+02  0.83923201857E+02  0.00000000000E+00 0.  1.
         21   -1    0    0  506  502 -0.00000000000E+00 -0.00000000000E+00 -0.13776140110E+04  0.13776140110E+04  0.00000000000E+00 0. -1.
         21    1    1    2  503  505  0.23219171601E+02  0.65840699988E+02 -0.21433958026E+02  0.73031104752E+02  0.00000000000E+00 0. -1.
         21    1    1    2  504  502 -0.29841319938E+02  0.37931385285E+02 -0.11002802413E+04  0.11013382332E+04  0.00000000000E+00 0. -1.
         21    1    1    2  505  504  0.58866663453E+02 -0.76594552257E+02 -0.19988079731E+03  0.22200077170E+03  0.00000000000E+00 0. -1.
         21    1    1    2  506  501 -0.52244515116E+02 -0.27177533016E+02  0.27904187540E+02  0.65167103225E+02  0.00000000000E+00 0.  1.
<scales pt_clust_3="58.42876" pt_clust_4="48.26276" pt_clust_5="14000.00000" pt_clust_6="59.57987"></scales>
<clustering>
<clus scale="   48.263">  2  4  1 -1</clus>
<clus scale="   59.580">  1  6  2 -1</clus>
<clus scale="   58.429">  1  3  2 -1</clus>
<clus scale="   59.580">  1  3  2 -1</clus>
</clustering>
</event>
<event>
 6    0  0.8777103E+002  0.7429773E+02  0.7546771E-02  0.1346060E+00
         21   -1    0    0  506  501  0.00000000000E+00  0.00000000000E+00  0.19322938045E+03  0.19322938045E+03  0.00000000000E+00 0. -1.
         21   -1    0    0  504  502 -0.00000000000E+00 -0.00000000000E+00 -0.39233438330E+03  0.39233438330E+03  0.00000000000E+00 0.  1.
         21    1    1    2  503  501 -0.51802842284E+02 -0.59187772015E+02  0.13344434446E+03  0.15490035472E+03  0.00000000000E+00 0. -1.
         21    1    1    2  504  503 -0.29317940353E+02 -0.12408960705E+02 -0.19830064818E+02  0.37506738101E+02  0.00000000000E+00 0. -1.
         21    1    1    2  505  502  0.89653851363E+01  0.85406147391E+02 -0.30776891452E+03  0.31952510525E+03  0.00000000000E+00 0.  1.
         21    1    1    2  506  505  0.72155397500E+02 -0.13809414671E+02 -0.49503679713E+01  0.73631565684E+02  0.00000000000E+00 0.  1.
<scales pt_clust_3="74.29773" pt_clust_4="31.83589" pt_clust_5="14000.00000" pt_clust_6="70.63178"></scales>
<clustering>
<clus scale="   31.836">  2  4  1 -1</clus>
<clus scale="   70.632">  1  6  2 -1</clus>
<clus scale="   74.298">  1  3  2 -1</clus>
<clus scale="   70.632">  1  3  2 -1</clus>
</clustering>
</event>
<event>
 6    0  0.8777103E+002  0.9152974E+02  0.7546771E-02  0.1299189E+00
         21   -1    0    0  504  501  0.00000000000E+00  0.00000000000E+00  0.35444237566E+03  0.35444237566E+03  0.00000000000E+00 0. -1.
         21   -1    0    0  506  502 -0.00000000000E+00 -0.00000000000E+00 -0.57289854760E+03  0.57289854760E+03  0.00000000000E+00 0.  1.
         21    1    1    2  503  505 -0.23597825786E+02  0.80027484286E+02  0.30211620278E+02  0.88735548811E+02  0.00000000000E+00 0. -1.
         21    1    1    2  504  503  0.44788706241E+02 -0.64687279842E+02  0.26761807160E+03  0.27894426796E+03  0.00000000000E+00 0. -1.
         21    1    1    2  505  502  0.50368681114E+02 -0.74575674638E+02 -0.10627562559E+03  0.13925890951E+03  0.00000000000E+00 0. -1.
         21    1    1    2  506  501 -0.71559561569E+02  0.59235470194E+02 -0.41001023822E+03  0.42040219698E+03  0.00000000000E+00 0.  1.
<scales pt_clust_3="33.90419" pt_clust_4="78.67956" pt_clust_5="14000.00000" pt_clust_6="91.52974"></scales>
<clustering>
<clus scale="   78.680">  1  4  2 -1</clus>
<clus scale="   33.904">  1  3  2 -1</clus>
<clus scale="   91.530">  2  6  1 -1</clus>
<clus scale="   78.680">  1  3  2 -1</clus>
</clustering>
</event>
<event>
 6    0  0.8777103E+002  0.8722355E+02  0.7546771E-02  0.1309718E+00
         21   -1    0    0  503  501  0.00000000000E+00  0.00000000000E+00  0.66355800131E+02  0.66355800131E+02  0.00000000000E+00 0.  1.
         21   -1    0    0  504  502 -0.00000000000E+00 -0.00000000000E+00 -0.99931657444E+03  0.99931657444E+03  0.00000000000E+00 0.  1.
         21    1    1    2  503  506  0.36046970060E+02  0.32294287567E+02  0.33615095626E+02  0.58926052930E+02  0.00000000000E+00 0.  1.
         21    1    1    2  504  501 -0.92473841591E+02 -0.10834903279E+03 -0.44997887415E+03  0.47198719418E+03  0.00000000000E+00 0.  1.
         21    1    1    2  505  502  0.11884839719E+02  0.47190469687E+02 -0.43306593473E+03  0.43579157136E+03  0.00000000000E+00 0.  1.
         21    1    1    2  506  505  0.44542031812E+02  0.28864275537E+02 -0.83531061054E+02  0.98967556103E+02  0.00000000000E+00 0.  1.
<scales pt_clust_3="48.39737" pt_clust_4="14000.00000" pt_clust_5="51.41907" pt_clust_6="87.22355"></scales>
<clustering>
<clus scale="   48.397">  1  3  2 -1</clus>
<clus scale="   51.419">  2  5  1 -1</clus>
<clus scale="   87.224">  1  6  2 -1</clus>
<clus scale="   48.397">  1  3  2 -1</clus>
</clustering>
</event>
<event>
 6    0  0.8777103E+002  0.1019522E+03  0.7546771E-02  0.1276243E+00
         21   -1    0    0  506  501  0.00000000000E+00  0.00000000000E+00  0.17041651948E+04  0.17041651948E+04  0.00000000000E+00 0. -1.
         21   -1    0    0  503  502 -0.00000000000E+00 -0.00000000000E+00 -0.10825743262E+04  0.10825743262E+04  0.00000000000E+00 0. -1.
         21    1    1    2  503  505 -0.39440127872E+02  0.27673970683E+01 -0.10065293035E+04  0.10073055252E+04  0.00000000000E+00 0. -1.
         21    1    1    2  504  501  0.90558900250E+02  0.26292071576E+02  0.57664259239E+03  0.58430203389E+03  0.00000000000E+00 0. -1.
         21    1    1    2  505  504  0.23207063723E+02  0.59862291756E+02 -0.53818569174E+02  0.83776489357E+02  0.00000000000E+00 0. -1.
         21    1    1    2  506  502 -0.74325836102E+02 -0.88921760400E+02  0.11052961490E+04  0.11113554726E+04  0.00000000000E+00 0. -1.
<scales pt_clust_3="39.53710" pt_clust_4="14000.00000" pt_clust_5="63.64997" pt_clust_6="101.95224"></scales>
<clustering>
<clus scale="   39.537">  2  3  1 -1</clus>
<clus scale="   63.650">  2  5  1 -1</clus>
<clus scale="  101.952">  1  6  2 -1</clus>
<clus scale="  101.952">  1  3  2 -1</clus>
</clustering>
</event>
<event>
 6    0  0.8777103E+002  0.6358029E+02  0.7546771E-02  0.1383393E+00
         21   -1    0    0  506  501  0.00000000000E+00  0.00000000000E+00  0.41930098986E+03  0.41930098986E+03  0.00000000000E+00 0.  1.
         21   -1    0    0  504  502 -0.00000000000E+00 -0.00000000000E+00 -0.39197058208E+03  0.39197058208E+03  0.00000000000E+00 0.  1.
         21    1    1    2  503  501  0.35651955898E+02 -0.72785341532E+02  0.35049198389E+03  0.35974073813E+03  0.00000000000E+00 0.  1.
         21    1    1    2  504  505 -0.52315714694E+02 -0.37115795772E+02 -0.32111828637E+03  0.32746216597E+03  0.00000000000E+00 0.  1.
         21    1    1    2  505  503  0.13896513831E+02  0.77449475329E+02 -0.26835766989E+02  0.83136590712E+02  0.00000000000E+00 0.  1.
         21    1    1    2  506  502  0.27672449646E+01  0.32451661975E+02  0.24792477254E+02  0.40932077128E+02  0.00000000000E+00 0.  1.
<scales pt_clust_3="57.48702" pt_clust_4="14000.00000" pt_clust_5="63.58029" pt_clust_6="32.56943"></scales>
<clustering>
<clus scale="   32.569">  1  6  2 -1</clus>
<clus scale="   57.487">  1  3  2 -1</clus>
<clus scale="   63.580">  1  5  2 -1</clus>
<clus scale="   32.569">  1  3  2 -1</clus>
</clustering>
</event>
<event>
 6    0  0.8777103E+002  0.8117532E+02  0.7546771E-02  0.1325749E+00
         21   -1    0    0  505  501  0.00000000000E+00  0.00000000000E+00  0.33658743878E+03  0.33658743878E+03  0.00000000000E+00 0.  1.
         21   -1    0    0  504  502 -0.00000000000E+00 -0.00000000000E+00 -0.16688345343E+03  0.16688345343E+03  0.00000000000E+00 0.  1.
         21    1    1    2  503  502 -0.77932257585E+01  0.50359049285E+02 -0.90719860135E+02  0.10405220438E+03  0.00000000000E+00 0.  1.
         21    1    1    2  504  501 -0.15457368989E+02  0.26463239948E+02  0.19298003244E+03  0.19539837831E+03  0.00000000000E+00 0.  1.
         21    1    1    2  505  506 -0.62676328747E+02 -0.63636571891E+02  0.75175335075E+02  0.11674444942E+03  0.00000000000E+00 0.  1.
         21    1    1    2  506  503  0.85926923495E+02 -0.13185717343E+02 -0.77315220383E+01  0.87275860100E+02  0.00000000000E+00 0.  1.
<scales pt_clust_3="52.29607" pt_clust_4="30.64691" pt_clust_5="14000.00000" pt_clust_6="81.17532"></scales>
<clustering>
<clus scale="   30.647">  1  4  2 -1</clus>
<clus scale="   52.296">  2  3  1 -1</clus>
<clus scale="   81.175">  2  6  1 -1</clus>
<clus scale="   30.647">  1  3  2 -1</clus>
</clustering>
</event>
<event>
 6    0  0.8777103E+002  0.1712855E+03  0.7546771E-02  0.1176514E+00
         21   -1    0    0  506  501  0.00000000000E+00  0.00000000000E+00  0.13835878150E+04  0.13835878150E+04  0.00000000000E+00 0.  1.
         21   -1    0    0  503  502 -0.00000000000E+00 -0.00000000000E+00 -0.29181213332E+02  0.29181213332E+02  0.00000000000E+00 0.  1.
         21    1    1    2  503  501  0.11353798651E+01  0.30975597140E+02  0.94326750918E+02  0.99289035872E+02  0.00000000000E+00 0.  1.
         21    1    1    2  504  502 -0.63550294310E+02 -0.39939851482E+02  0.19361928182E+03  0.20765899435E+03  0.00000000000E+00 0. -1.
         21    1    1    2  505  504 -0.91851799438E+02  0.22275392485E+02  0.15684751401E+03  0.18312315207E+03  0.00000000000E+00 0.  1.
         21    1    1    2  506  505  0.15426671388E+03 -0.13311138144E+02  0.90961305488E+03  0.92269784601E+03  0.00000000000E+00 0.  1.
<scales pt_clust_3="30.99640" pt_clust_4="62.36064" pt_clust_5="62.36064" pt_clust_6="154.65078"></scales>
<clustering>
<clus scale="   30.996">  2  3  1 -1</clus>
<clus scale="   62.361">  4  5 -1 -1</clus>
<clus scale="  154.651">  1  6  2 -1</clus>
<clus scale="  154.651">  1  3  2 -1</clus>
</clustering>
</event>
<event>
 6    0  0.8777103E+002  0.8971626E+02  0.7546771E-02  0.1303540E+00
         21   -1    0    0  504  501  0.00000000000E+00  0.00000000000E+00  0.75129943753E+03  0.75129943753E+03  0.00000000000E+00 0. -1.
         21   -1    0    0  503  502 -0.00000000000E+00 -0.00000000000E+00 -0.80998981061E+03  0.80998981061E+03  0.00000000000E+00 0. -1.
         21    1    1    2  503  506 -0.42997700623E+02 -0.12427195307E+02 -0.73451037566E+03  0.73587276712E+03  0.00000000000E+00 0. -1.
         21    1    1    2  504  502 -0.93732827428E+02  0.80413694962E+01  0.66213779118E+03  0.66878768011E+03  0.00000000000E+00 0. -1.
         21    1    1    2  505  501  0.63686514346E+02  0.26511706121E+02  0.35042442249E+02  0.77374514084E+02  0.00000000000E+00 0. -1.
         21    1    1    2  506  505  0.73044013705E+02 -0.22125880311E+02 -0.21360230848E+02  0.79254286822E+02  0.00000000000E+00 0. -1.
<scales pt_clust_3="44.75754" pt_clust_4="14000.00000" pt_clust_5="89.71626" pt_clust_6="53.63104"></scales>
<clustering>
<clus scale="   44.758">  2  3  1 -1</clus>
<clus scale="   53.631">  2  6  1 -1</clus>
<clus scale="   89.716">  2  5  1 -1</clus>
<clus scale="   89.716">  1  3  2 -1</clus>
</clustering>
</event>
<event>
 6    0  0.8777103E+002  0.1094355E+03  0.7546771E-02  0.1261619E+00
         21   -1    0    0  505  501  0.00000000000E+00  0.00000000000E+00  0.39780569629E+03  0.39780569629E+03  0.00000000000E+00 0.  1.
         21   -1    0    0  504  502 -0.00000000000E+00 -0.00000000000E+00 -0.50258458753E+03  0.50258458753E+03  0.00000000000E+00 0. -1.
         21    1    1    2  503  501  0.11719693497E+03  0.37106792140E+02  0.73715320145E+02  0.14333870382E+03  0.00000000000E+00 0. -1.
         21    1    1    2  504  503 -0.77575779518E+02 -0.70383115275E+01 -0.43995949492E+03  0.44680185381E+03  0.00000000000E+00 0. -1.
         21    1    1    2  505  506 -0.63043938422E+01 -0.47005341028E+02  0.26812438197E+03  0.27228648823E+03  0.00000000000E+00 0.  1.
         21    1    1    2  506  502 -0.33316761606E+02  0.16936860415E+02 -0.66590984285E+01  0.37963237962E+02  0.00000000000E+00 0. -1.
<scales pt_clust_3="14000.00000" pt_clust_4="109.43553" pt_clust_5="47.37293" pt_clust_6="37.37464"></scales>
<clustering>
<clus scale="   37.375">  2  6  1 -1</clus>
<clus scale="   47.373">  1  5  2 -1</clus>
<clus scale="  109.436">  2  4  1 -1</clus>
<clus scale="   47.373">  1  3  2 -1</clus>
</clustering>
</event>
<event>
 6    0  0.8777103E+002  0.1185442E+03  0.7546771E-02  0.1245518E+00
         21   -1    0    0  506  501  0.00000000000E+00  0.00000000000E+00  0.20653510440E+03  0.20653510440E+03  0.00000000000E+00 0.  1.
         21   -1    0    0  504  502 -0.00000000000E+00 -0.00000000000E+00 -0.88629532763E+03  0.88629532763E+03  0.00000000000E+00 0. -1.
         21    1    1    2  503  501 -0.33199780150E+02 -0.35582520104E+02  0.12321425740E+03  0.13247676916E+03  0.00000000000E+00 0.  1.
         21    1    1    2  504  503 -0.97404297678E+02  0.13163949274E+03 -0.97022872009E+02  0.19034177405E+03  0.00000000000E+00 0.  1.
         21    1    1    2  505  502  0.58483845085E+02 -0.97913371045E+02 -0.68564299508E+03  0.69506381366E+03  0.00000000000E+00 0. -1.
         21    1    1    2  506  505  0.72120232743E+02  0.18563984062E+01 -0.20308613540E+02  0.74948075158E+02  0.00000000000E+00 0.  1.
<scales pt_clust_3="48.66561" pt_clust_4="118.54422" pt_clust_5="14000.00000" pt_clust_6="61.49637"></scales>
<clustering>
<clus scale="   48.666">  1  3  2 -1</clus>
<clus scale="   61.496">  1  6  2 -1</clus>
<clus scale="  118.544">  1  4  2 -1</clus>
<clus scale="   48.666">  1  3  2 -1</clus>
</clustering>
</event>
<event>
 6    0  0.8777103E+002  0.1353721E+03  0.7546771E-02  0.1219695E+00
         21   -1    0    0  503  501  0.00000000000E+00  0.00000000000E+00  0.15322045972E+04  0.15322045972E+04  0.00000000000E+00 0. -1.
         21   -1    0    0  504  502 -0.00000000000E+00 -0.00000000000E+00 -0.18383889395E+02  0.18383889395E+02  0.00000000000E+00 0. -1.
         21    1    1    2  503  502  0.32438547697E+02  0.21283426064E+02  0.10692056674E+03  0.11374203794E+03  0.00000000000E+00 0. -1.
         21    1    1    2  504  505 -0.33266110257E+02 -0.10780511410E+03  0.34565452434E+03  0.36360091709E+03  0.00000000000E+00 0. -1.
         21    1    1    2  505  506  0.20488847376E+02 -0.29817604254E+02  0.14551638426E+03  0.14994632532E+03  0.00000000000E+00 0. -1.
         21    1    1    2  506  501 -0.19661284815E+02  0.11633929229E+03  0.91572923245E+03  0.92329920622E+03  0.00000000000E+00 0. -1.
<scales pt_clust_3="38.79747" pt_clust_4="32.91554" pt_clust_5="32.91554" pt_clust_6="122.25784"></scales>
<clustering>
<clus scale="   32.916">  4  5 -1 -1</clus>
<clus scale="   38.797">  2  3  1 -1</clus>
<clus scale="  122.258">  1  6  2 -1</clus>
<clus scale="  122.258">  1  3  2 -1</clus>
</clustering>
</event>
<event>
 6    0  0.8777103E+002  0.1795048E+03  0.7546771E-02  0.1168283E+00
         21   -1    0    0  505  501  0.00000000000E+00  0.00000000000E+00  0.68816226273E+03  0.68816226273E+03  0.00000000000E+00 0. -1.
         21   -1    0    0  504  502 -0.00000000000E+00 -0.00000000000E+00 -0.18572379763E+03  0.18572379763E+03  0.00000000000E+00 0. -1.
         21    1    1    2  503  506  0.14963948536E+03  0.19811577705E+03  0.35506493678E+03  0.43325852100E+03  0.00000000000E+00 0. -1.
         21    1    1    2  504  501 -0.19950697520E+02 -0.23648465974E+02  0.14547433154E+03  0.14872814599E+03  0.00000000000E+00 0. -1.
         21    1    1    2  505  503 -0.69561654661E+02 -0.14406516749E+02  0.77340636082E+02  0.10501402532E+03  0.00000000000E+00 0. -1.
         21    1    1    2  506  502 -0.60127133177E+02 -0.16006079433E+03 -0.75441439298E+02  0.18688536804E+03  0.00000000000E+00 0. -1.
<scales pt_clust_3="179.50482" pt_clust_4="30.93995" pt_clust_5="75.20714" pt_clust_6="14000.00000"></scales>
<clustering>
<clus scale="   30.940">  1  4  2 -1</clus>
<clus scale="   75.207">  1  5  2 -1</clus>
<clus scale="  179.505">  1  3  2 -1</clus>
<clus scale="   30.940">  1  3  2 -1</clus>
</clustering>
</event>
<event>
 6    0  0.8777103E+002  0.1155927E+03  0.7546771E-02  0.1250550E+00
         21   -1    0    0  504  501  0.00000000000E+00  0.00000000000E+00  0.27641648304E+02  0.27641648304E+02  0.00000000000E+00 0. -1.
         21   -1    0    0  505  502 -0.00000000000E+00 -0.00000000000E+00 -0.14998617138E+04  0.14998617138E+04  0.00000000000E+00 0. -1.
         21    1    1    2  503  501  0.10720190479E+02  0.50556076019E+02 -0.13332925132E+03  0.14299485502E+03  0.00000000000E+00 0. -1.
         21    1    1    2  504  502  0.46844355327E+02  0.49470008603E+02 -0.52817658442E+03  0.53255251357E+03  0.00000000000E+00 0. -1.
         21    1    1    2  505  506  0.84001871353E+02 -0.68289892284E+02 -0.45693854282E+03  0.46958775080E+03  0.00000000000E+00 0. -1.
         21    1    1    2  506  503 -0.14156641716E+03 -0.31736192338E+02 -0.35377568690E+03  0.38236824268E+03  0.00000000000E+00 0. -1.
<scales pt_clust_3="51.68016" pt_clust_4="72.40456" pt_clust_5="14000.00000" pt_clust_6="115.59273"></scales>
<clustering>
<clus scale="   51.680">  1  3  2 -1</clus>
<clus scale="   72.405">  2  4  1 -1</clus>
<clus scale="  115.593">  1  6  2 -1</clus>
<clus scale="   51.680">  1  3  2 -1</clus>
</clustering>
</event>
<event>
 6    0  0.8777103E+002  0.7324515E+02  0.7546771E-02  0.1349393E+00
         21   -1    0    0  504  501  0.00000000000E+00  0.00000000000E+00  0.27911960548E+03  0.27911960548E+03  0.00000000000E+00 0.  1.
         21   -1    0    0  506  502 -0.00000000000E+00 -0.00000000000E+00 -0.60278301343E+03  0.60278301343E+03  0.00000000000E+00 0.  1.
         21    1    1    2  503  505  0.65888602198E+02  0.24271788998E+01  0.85897387156E+02  0.10828462595E+03  0.00000000000E+00 0. -1.
         21    1    1    2  504  502 -0.38805803984E+02 -0.91622815105E+02  0.14856906168E+02  0.10060496176E+03  0.00000000000E+00 0. -1.
         21    1    1    2  505  501  0.14052964224E+02  0.29384324327E+02  0.11971121479E+03  0.12406328734E+03  0.00000000000E+00 0.  1.
         21    1    1    2  506  503 -0.41135762438E+02  0.59811311878E+02 -0.54412891606E+03  0.54894974385E+03  0.00000000000E+00 0.  1.
<scales pt_clust_3="73.24515" pt_clust_4="14000.00000" pt_clust_5="32.57183" pt_clust_6="72.84199"></scales>
<clustering>
<clus scale="   32.572">  1  5  2 -1</clus>
<clus scale="   72.842">  2  6  1 -1</clus>
<clus scale="   73.245">  1  3  2 -1</clus>
<clus scale="   32.572">  1  3  2 -1</clus>
</clustering>
</event>
<event>
 6    0  0.8777103E+002  0.1259007E+03  0.7546771E-02  0.1233668E+00
         21   -1    0    0  503  501  0.00000000000E+00  0.00000000000E+00  0.70355962153E+03  0.70355962153E+03  0.00000000000E+00 0. -1.
         21   -1    0    0  505  502 -0.00000000000E+00 -0.00000000000E+00 -0.53592956692E+02  0.53592956692E+02  0.00000000000E+00 0. -1.
         21    1    1    2  503  506 -0.31373209070E+02  0.13357636276E+03  0.32251243584E+03  0.35048708138E+03  0.00000000000E+00 0. -1.
         21    1    1    2  504  501  0.34327676575E+02 -0.11020639753E+03  0.24033304366E+03  0.26661547463E+03  0.00000000000E+00 0. -1.
         21    1    1    2  505  504 -0.47000384219E+02 -0.39181709160E+02  0.37138542015E+02  0.71578724160E+02  0.00000000000E+00 0. -1.
         21    1    1    2  506  502  0.44045916714E+02  0.15811743921E+02  0.49982643313E+02  0.68471298057E+02  0.00000000000E+00 0. -1.
<scales pt_clust_3="125.90067" pt_clust_4="14000.00000" pt_clust_5="44.56081" pt_clust_6="46.79801"></scales>
<clustering>
<clus scale="   46.798">  2  6  1 -1</clus>
<clus scale="   44.561">  2  5  1 -1</clus>
<clus scale="  125.901">  2  3  1 -1</clus>
<clus scale="  125.901">  1  3  2 -1</clus>
</clustering>
</event>
<event>
 6    0  0.8777103E+002  0.1148667E+03  0.7546771E-02  0.1251814E+00
         21   -1    0    0  506  501  0.00000000000E+00  0.00000000000E+00  0.59774007129E+02  0.59774007129E+02  0.00000000000E+00 0.  1.
         21   -1    0    0  505  502 -0.00000000000E+00 -0.00000000000E+00 -0.15856435764E+04  0.15856435764E+04  0.00000000000E+00 0.  1.
         21    1    1    2  503  502  0.33446165674E+02  0.21509796045E+02 -0.31778507249E+03  0.32026343785E+03  0.00000000000E+00 0.  1.
         21    1    1    2  504  503  0.34392797732E+02 -0.14875987055E+03 -0.49306177842E+03  0.51616109982E+03  0.00000000000E+00 0.  1.
         21    1    1    2  505  501 -0.19510469398E+02  0.90572689986E+02 -0.73824074409E+03  0.74403189906E+03  0.00000000000E+00 0.  1.
         21    1    1    2  506  504 -0.48328494007E+02  0.36677384519E+02  0.23218025772E+02  0.64961146764E+02  0.00000000000E+00 0.  1.
<scales pt_clust_3="39.76578" pt_clust_4="14000.00000" pt_clust_5="114.86673" pt_clust_6="60.44859"></scales>
<clustering>
<clus scale="   39.766">  2  3  1 -1</clus>
<clus scale="   60.449">  1  6  2 -1</clus>
<clus scale="  114.867">  2  5  1 -1</clus>
<clus scale="   60.449">  1  3  2 -1</clus>
</clustering>
</event>
<event>
 6    0  0.8777103E+002  0.1445350E+03  0.7546771E-02  0.1207354E+00
         21   -1    0    0  503  501  0.00000000000E+00  0.00000000000E+00  0.27808598879E+04  0.27808598879E+04  0.00000000000E+00 0. -1.
         21   -1    0    0  501  502 -0.00000000000E+00 -0.00000000000E+00 -0.65311645273E+02  0.65311645273E+02  0.00000000000E+00 0.  1.
         21    1    1    2  503  504  0.49087750442E+02 -0.21021432195E+02  0.15184361425E+04  0.15193748144E+04  0.00000000000E+00 0. -1.
         21    1    1    2  504  505  0.10565978316E+02  0.65496844144E+02  0.67062605128E+03  0.67389967885E+03  0.00000000000E+00 0. -1.
         21    1    1    2  505  506  0.89826716003E+02 -0.76455472396E+02  0.47828242462E+03  0.49261379992E+03  0.00000000000E+00 0. -1.
         21    1    1    2  506  502 -0.14948044476E+03  0.31980060446E+02  0.48203624224E+02  0.16028323999E+03  0.00000000000E+00 0.  1.
<scales pt_clust_3="53.39951" pt_clust_4="65.54667" pt_clust_5="144.53499" pt_clust_6="14000.00000"></scales>
<clustering>
<clus scale="   53.400">  1  3  2 -1</clus>
<clus scale="   65.547">  1  4  2 -1</clus>
<clus scale="  144.535">  1  5  2 -1</clus>
<clus scale="   53.400">  1  3  2 -1</clus>
</clustering>
</event>
<event>
 6    0  0.8777103E+002  0.8133672E+02  0.7546771E-02  0.1325300E+00
         21   -1    0    0  505  501  0.00000000000E+00  0.00000000000E+00  0.19311042332E+04  0.19311042332E+04  0.00000000000E+00 0.  1.
         21   -1    0    0  503  502 -0.00000000000E+00 -0.00000000000E+00 -0.68414059864E+02  0.68414059864E+02  0.00000000000E+00 0. -1.
         21    1    1    2  503  506  0.32554293236E+02 -0.85358143310E+02  0.32464416018E+03  0.33725305837E+03  0.00000000000E+00 0.  1.
         21    1    1    2  504  502 -0.45371407685E+02  0.66693466367E+02 -0.28015598985E+02  0.85390027977E+02  0.00000000000E+00 0. -1.
         21    1    1    2  505  504 -0.92348883825E+01  0.85249014062E+02  0.41970618879E+03  0.42837595925E+03  0.00000000000E+00 0.  1.
         21    1    1    2  506  501  0.22052002831E+02 -0.66584337119E+02  0.11463554233E+04  0.11484992474E+04  0.00000000000E+00 0.  1.
<scales pt_clust_3="81.33672" pt_clust_4="14000.00000" pt_clust_5="49.29463" pt_clust_6="70.14103"></scales>
<clustering>
<clus scale="   70.141">  1  6  2 -1</clus>
<clus scale="   49.295">  1  5  2 -1</clus>
<clus scale="   81.337">  1  3  2 -1</clus>
<clus scale="   70.141">  1  3  2 -1</clus>
</clustering>
</event>
<event>
 6    0  0.8777103E+002  0.9994563E+02  0.7546771E-02  0.1280410E+00
         21   -1    0    0  505  501  0.00000000000E+00  0.00000000000E+00  0.66817327823E+03  0.66817327823E+03  0.00000000000E+00 0.  1.
         21   -1    0    0  504  502 -0.00000000000E+00 -0.00000000000E+00 -0.42216228586E+03  0.42216228586E+03  0.00000000000E+00 0.  1.
         21    1    1    2  503  506 -0.67174645868E+02 -0.65963175387E+01 -0.16875689362E+03  0.18175487227E+03  0.00000000000E+00 0.  1.
         21    1    1    2  504  501  0.65342664319E+02 -0.25614114307E+02  0.36849528545E+03  0.37511934372E+03  0.00000000000E+00 0.  1.
         21    1    1    2  505  503  0.31746127054E+02  0.63041824675E+02  0.28361312635E+03  0.29226442425E+03  0.00000000000E+00 0.  1.
         21    1    1    2  506  502 -0.29914145505E+02 -0.30831392830E+02 -0.23734052581E+03  0.24119692386E+03  0.00000000000E+00 0.  1.
<scales pt_clust_3="14000.00000" pt_clust_4="99.94563" pt_clust_5="69.61508" pt_clust_6="42.95848"></scales>
<clustering>
<clus scale="   42.958">  2  6  1 -1</clus>
<clus scale="   69.615">  1  5  2 -1</clus>
<clus scale="   99.946">  1  4  2 -1</clus>
<clus scale="   69.615">  1  3  2 -1</clus>
</clustering>
</event>
<event>
 6    0  0.8777103E+002  0.1365616E+03  0.7546771E-02  0.1218032E+00
         21   -1    0    0  506  501  0.00000000000E+00  0.00000000000E+00  0.17804017617E+04  0.17804017617E+04  0.00000000000E+00 0.  1.
         21   -1    0    0  504  502 -0.00000000000E+00 -0.00000000000E+00 -0.24282049100E+03  0.24282049100E+03  0.00000000000E+00 0. -1.
         21    1    1    2  503  501  0.66793434272E+02 -0.88697897897E+01  0.13148560026E+04  0.13165813091E+04  0.00000000000E+00 0.  1.
         21    1    1    2  504  505 -0.51809991580E+02  0.59532457585E+02 -0.19754690326E+03  0.21272791947E+03  0.00000000000E+00 0. -1.
         21    1    1    2  505  503  0.43872975201E+02 -0.86964497410E+02  0.41305702794E+03  0.42438634532E+03  0.00000000000E+00 0.  1.
         21    1    1    2  506  502 -0.58856417892E+02  0.36301829615E+02  0.72151433806E+01  0.69526678725E+02  0.00000000000E+00 0.  1.
<scales pt_clust_3="67.37979" pt_clust_4="14000.00000" pt_clust_5="136.56162" pt_clust_6="64.11275"></scales>
<clustering>
<clus scale="   67.380">  1  3  2 -1</clus>
<clus scale="   64.113">  2  6  1 -1</clus>
<clus scale="  136.562">  1  5  2 -1</clus>
<clus scale="   67.380">  1  3  2 -1</clus>
</clustering>
</event>
<event>
 6    0  0.8777103E+002  0.9699647E+02  0.7546771E-02  0.1286742E+00
         21   -1    0    0  505  501  0.00000000000E+00  0.00000000000E+00  0.80871142150E+03  0.80871142150E+03  0.00000000000E+00 0. -1.
         21   -1    0    0  503  502 -0.00000000000E+00 -0.00000000000E+00 -0.10479387335E+03  0.10479387335E+03  0.00000000000E+00 0.  1.
         21    1    1    2  503  504  0.10932519788E+03  0.64493527935E+02 -0.21538149589E+02  0.12874512001E+03  0.00000000000E+00 0.  1.
         21    1    1    2  504  506 -0.32049798948E+02 -0.66379447489E+02  0.32106470787E+02  0.80400535620E+02  0.00000000000E+00 0.  1.
         21    1    1    2  505  502 -0.36530831633E+02  0.21361150196E+02  0.59072177611E+03  0.59223560951E+03  0.00000000000E+00 0. -1.
         21    1    1    2  506  501 -0.40744567303E+02 -0.19475230642E+02  0.10262745084E+03  0.11212402971E+03  0.00000000000E+00 0.  1.
<scales pt_clust_3="96.99647" pt_clust_4="14000.00000" pt_clust_5="42.31785" pt_clust_6="59.47357"></scales>
<clustering>
<clus scale="   42.318">  1  5  2 -1</clus>
<clus scale="   59.474">  1  6  2 -1</clus>
<clus scale="   96.996">  2  3  1 -1</clus>
<clus scale="   42.318">  1  3  2 -1</clus>
</clustering>
</event>
<event>
 6    0  0.8777103E+002  0.2113871E+03  0.7546771E-02  0.1140472E+00
         21   -1    0    0  504  501  0.00000000000E+00  0.00000000000E+00  0.93046908596E+03  0.93046908596E+03  0.00000000000E+00 0. -1.
         21   -1    0    0  505  502 -0.00000000000E+00 -0.00000000000E+00 -0.29881063882E+03  0.29881063882E+03  0.00000000000E+00 0. -1.
         21    1    1    2  503  501 -0.13948335527E+03 -0.19343669992E+03  0.35391587751E+03  0.42676669461E+03  0.00000000000E+00 0. -1.
         21    1    1    2  504  506  0.14913799074E+03  0.13208456929E+03  0.50714849845E+03  0.54487436461E+03  0.00000000000E+00 0. -1.
         21    1    1    2  505  503  0.31033837118E+02  0.68735638731E+02 -0.13658908886E+03  0.15602649222E+03  0.00000000000E+00 0. -1.
         21    1    1    2  506  502 -0.40688472581E+02 -0.73835081012E+01 -0.92816839958E+02  0.10161217335E+03  0.00000000000E+00 0. -1.
<scales pt_clust_3="211.38705" pt_clust_4="14000.00000" pt_clust_5="63.39493" pt_clust_6="41.35297"></scales>
<clustering>
<clus scale="   41.353">  2  6  1 -1</clus>
<clus scale="   63.395">  2  5  1 -1</clus>
<clus scale="  211.387">  2  3  1 -1</clus>
<clus scale="  211.387">  1  3  2 -1</clus>
</clustering>
</event>
<event>
 6    0  0.8777103E+002  0.1065697E+03  0.7546771E-02  0.1267057E+00
         21   -1    0    0  503  501  0.00000000000E+00  0.00000000000E+00  0.11605402551E+04  0.11605402551E+04  0.00000000000E+00 0. -1.
         21   -1    0    0  506  502 -0.00000000000E+00 -0.00000000000E+00 -0.50809904878E+03  0.50809904878E+03  0.00000000000E+00 0.  1.
         21    1    1    2  503  505 -0.29932010773E+02 -0.13854242111E+02  0.82118086920E+03  0.82184298089E+03  0.00000000000E+00 0. -1.
         21    1    1    2  504  501  0.12859003143E+02  0.53467403891E+02  0.16449031927E+03  0.17343927575E+03  0.00000000000E+00 0.  1.
         21    1    1    2  505  502  0.11542253449E+03  0.13547952974E+01  0.14390036271E+03  0.18447631644E+03  0.00000000000E+00 0.  1.
         21    1    1    2  506  504 -0.98349526858E+02 -0.40967957077E+02 -0.47713034487E+03  0.48888073079E+03  0.00000000000E+00 0.  1.
<scales pt_clust_3="32.98280" pt_clust_4="46.60821" pt_clust_5="106.56974" pt_clust_6="14000.00000"></scales>
<clustering>
<clus scale="   32.983">  1  3  2 -1</clus>
<clus scale="   46.608">  1  4  2 -1</clus>
<clus scale="  106.570">  1  5  2 -1</clus>
<clus scale="   32.983">  1  3  2 -1</clus>
</clustering>
</event>
<event>
 6    0  0.8777103E+002  0.8799890E+02  0.7546771E-02  0.1307771E+00
         21   -1    0    0  504  501  0.00000000000E+00  0.00000000000E+00  0.99845618056E+02  0.99845618056E+02  0.00000000000E+00 0. -1.
         21   -1    0    0  505  502 -0.00000000000E+00 -0.00000000000E+00 -0.78840555494E+03  0.78840555494E+03  0.00000000000E+00 0.  1.
         21    1    1    2  503  506 -0.76227577903E+02  0.29669437834E+02 -0.57597803639E+03  0.58175735284E+03  0.00000000000E+00 0.  1.
         21    1    1    2  504  502  0.30060303703E+02 -0.29122922826E+02 -0.64998945507E+02  0.77308663226E+02  0.00000000000E+00 0.  1.
         21    1    1    2  505  503 -0.42261089423E+02  0.55568817582E+00 -0.11204382604E+03  0.11975027107E+03  0.00000000000E+00 0. -1.
         21    1    1    2  506  501  0.88428363624E+02 -0.11022031835E+01  0.64460871057E+02  0.10943488586E+03  0.00000000000E+00 0. -1.
<scales pt_clust_3="14000.00000" pt_clust_4="41.85411" pt_clust_5="37.63333" pt_clust_6="87.99890"></scales>
<clustering>
<clus scale="   41.854">  2  4  1 -1</clus>
<clus scale="   37.633">  2  5  1 -1</clus>
<clus scale="   87.999">  1  6  2 -1</clus>
<clus scale="   87.999">  1  3  2 -1</clus>
</clustering>
</event>
<event>
 6    0  0.8777103E+002  0.1424008E+03  0.7546771E-02  0.1210134E+00
         21   -1    0    0  506  501  0.00000000000E+00  0.00000000000E+00  0.88334480960E+03  0.88334480960E+03  0.00000000000E+00 0.  1.
         21   -1    0    0  504  502 -0.00000000000E+00 -0.00000000000E+00 -0.30439798592E+03  0.30439798592E+03  0.00000000000E+00 0.  1.
         21    1    1    2  503  501  0.11627568468E+03  0.82083251589E+02  0.79189353581E+03  0.80458254213E+03  0.00000000000E+00 0.  1.
         21    1    1    2  504  505  0.42207483362E+02 -0.58838345847E+01 -0.77449521381E+02  0.88399771060E+02  0.00000000000E+00 0.  1.
         21    1    1    2  505  503  0.18936088031E+02 -0.80982539651E+02 -0.56151007685E+02  0.10034780926E+03  0.00000000000E+00 0.  1.
         21    1    1    2  506  502 -0.17741925607E+03  0.47831226477E+01 -0.79346183066E+02  0.19441267308E+03  0.00000000000E+00 0.  1.
<scales pt_clust_3="142.40084" pt_clust_4="42.61562" pt_clust_5="89.69345" pt_clust_6="14000.00000"></scales>
<clustering>
<clus scale="   42.616">  2  4  1 -1</clus>
<clus scale="   89.693">  2  5  1 -1</clus>
<clus scale="  142.401">  1  3  2 -1</clus>
<clus scale="  142.401">  1  3  2 -1</clus>
</clustering>
</event>
<event>
 6    0  0.8777103E+002  0.7414579E+02  0.7546771E-02  0.1346537E+00
         21   -1    0    0  504  501  0.00000000000E+00  0.00000000000E+00  0.20051477393E+03  0.20051477393E+03  0.00000000000E+00 0.  1.
         21   -1    0    0  505  502 -0.00000000000E+00 -0.00000000000E+00 -0.22717248928E+03  0.22717248928E+03  0.00000000000E+00 0.  1.
         21    1    1    2  503  502 -0.34501542596E+02 -0.10873927237E+02 -0.60599285363E+02  0.70575293988E+02  0.00000000000E+00 0.  1.
         21    1    1    2  504  506 -0.63476854886E+02 -0.32805447657E+02  0.13488818009E+03  0.15264445496E+03  0.00000000000E+00 0.  1.
         21    1    1    2  505  501  0.12153999656E+03 -0.70425988776E+01 -0.72906250761E+02  0.14190451143E+03  0.00000000000E+00 0.  1.
         21    1    1    2  506  503 -0.23561599081E+02  0.50721973771E+02 -0.28040359308E+02  0.62563002843E+02  0.00000000000E+00 0.  1.
<scales pt_clust_3="36.17456" pt_clust_4="74.14579" pt_clust_5="14000.00000" pt_clust_6="58.11433"></scales>
<clustering>
<clus scale="   36.175">  2  3  1 -1</clus>
<clus scale="   58.114">  2  6  1 -1</clus>
<clus scale="   74.146">  1  4  2 -1</clus>
<clus scale="   74.146">  1  3  2 -1</clus>
</clustering>
</event>
<event>
 6    0  0.8777103E+002  0.1970693E+03  0.7546771E-02  0.1152235E+00
         21   -1    0    0  506  501  0.00000000000E+00  0.00000000000E+00  0.25826663811E+03  0.25826663811E+03  0.00000000000E+00 0.  1.
         21   -1    0    0  504  502 -0.00000000000E+00 -0.00000000000E+00 -0.82662661708E+03  0.82662661708E+03  0.00000000000E+00 0.  1.
         21    1    1    2  503  502  0.15974977272E+02  0.31141611663E+02 -0.43484509487E+02  0.55820269088E+02  0.00000000000E+00 0.  1.
         21    1    1    2  504  505 -0.65621730768E+00  0.75778721928E+02 -0.50732030100E+03  0.51294905509E+03  0.00000000000E+00 0.  1.
         21    1    1    2  505  501 -0.14868443079E+03  0.55565106422E+02 -0.18760549363E+03  0.24574450604E+03  0.00000000000E+00 0.  1.
         21    1    1    2  506  503  0.13336567082E+03 -0.16248544001E+03  0.17005032514E+03  0.27037942497E+03  0.00000000000E+00 0.  1.
<scales pt_clust_3="35.00000" pt_clust_4="96.72628" pt_clust_5="14000.00000" pt_clust_6="197.06931"></scales>
<clustering>
<clus scale="   35.000">  2  3  1 -1</clus>
<clus scale="   96.726">  2  4  1 -1</clus>
<clus scale="  197.069">  1  6  2 -1</clus>
<clus scale="  197.069">  1  3  2 -1</clus>
</clustering>
</event>
<event>
 6    0  0.8777103E+002  0.7406722E+02  0.7546771E-02  0.1346784E+00
         21   -1    0    0  504  501  0.00000000000E+00  0.00000000000E+00  0.26798589110E+03  0.26798589110E+03  0.00000000000E+00 0. -1.
         21   -1    0    0  503  502 -0.00000000000E+00 -0.00000000000E+00 -0.91283120260E+02  0.91283120260E+02  0.00000000000E+00 0. -1.
         21    1    1    2  503  501  0.72006290766E+02 -0.13887363811E+02  0.49041437922E+02  0.88220334487E+02  0.00000000000E+00 0. -1.
         21    1    1    2  504  506 -0.14635301291E+01  0.56394125869E+02  0.10774547716E+03  0.12162042263E+03  0.00000000000E+00 0. -1.
         21    1    1    2  505  502  0.50106386456E+01 -0.44398838870E+02 -0.34373831404E+02  0.56373075825E+02  0.00000000000E+00 0. -1.
         21    1    1    2  506  505 -0.75553399282E+02  0.18920768119E+01  0.54289687163E+02  0.93055178416E+02  0.00000000000E+00 0. -1.
<scales pt_clust_3="74.06722" pt_clust_4="49.68998" pt_clust_5="44.68068" pt_clust_6="14000.00000"></scales>
<clustering>
<clus scale="   44.681">  2  5  1 -1</clus>
<clus scale="   49.690">  1  4  2 -1</clus>
<clus scale="   74.067">  1  3  2 -1</clus>
<clus scale="   49.690">  1  3  2 -1</clus>
</clustering>
</event>
<event>
 6    0  0.8777103E+002  0.9593148E+02  0.7546771E-02  0.1289092E+00
         21   -1    0    0  503  501  0.00000000000E+00  0.00000000000E+00  0.38582521298E+03  0.38582521298E+03  0.00000000000E+00 0.  1.
         21   -1    0    0  505  502 -0.00000000000E+00 -0.00000000000E+00 -0.20465439547E+03  0.20465439547E+03  0.00000000000E+00 0.  1.
         21    1    1    2  503  506  0.15610063190E+01 -0.10074216316E+03  0.30838006253E+03  0.32442207561E+03  0.00000000000E+00 0.  1.
         21    1    1    2  504  501 -0.75002370299E+02  0.59404321340E+02 -0.89275119411E+01  0.96093336990E+02  0.00000000000E+00 0. -1.
         21    1    1    2  505  504  0.51759603712E+02  0.66575136429E+02 -0.10363912764E+03  0.13361277687E+03  0.00000000000E+00 0.  1.
         21    1    1    2  506  502  0.21681760267E+02 -0.25237294609E+02 -0.14642605447E+02  0.36351418979E+02  0.00000000000E+00 0.  1.
<scales pt_clust_3="14000.00000" pt_clust_4="95.93148" pt_clust_5="82.81176" pt_clust_6="33.27191"></scales>
<clustering>
<clus scale="   33.272">  2  6  1 -1</clus>
<clus scale="   82.812">  2  5  1 -1</clus>
<clus scale="   95.931">  2  4  1 -1</clus>
<clus scale="   95.931">  1  3  2 -1</clus>
</clustering>
</event>
<event>
 6    0  0.8777103E+002  0.1100210E+03  0.7546771E-02  0.1260531E+00
         21   -1    0    0  503  501  0.00000000000E+00  0.00000000000E+00  0.33625760929E+03  0.33625760929E+03  0.00000000000E+00 0.  1.
         21   -1    0    0  506  502 -0.00000000000E+00 -0.00000000000E+00 -0.27518560211E+03  0.27518560211E+03  0.00000000000E+00 0. -1.
         21    1    1    2  503  504  0.23922302303E+01 -0.85219916792E+02  0.25957259783E+03  0.27321436735E+03  0.00000000000E+00 0.  1.
         21    1    1    2  504  502 -0.81829523060E+01  0.14472819525E+03 -0.21323959748E+03  0.25784556840E+03  0.00000000000E+00 0. -1.
         21    1    1    2  505  501  0.27510859035E+02 -0.21791832509E+02  0.10608045618E+02  0.36664178168E+02  0.00000000000E+00 0. -1.
         21    1    1    2  506  505 -0.21720136959E+02 -0.37716445948E+02  0.41309612130E+01  0.43719097486E+02  0.00000000000E+00 0.  1.
<scales pt_clust_3="110.02097" pt_clust_4="14000.00000" pt_clust_5="35.09603" pt_clust_6="43.99831"></scales>
<clustering>
<clus scale="   35.096">  1  5  2 -1</clus>
<clus scale="   43.998">  2  6  1 -1</clus>
<clus scale="  110.021">  1  3  2 -1</clus>
<clus scale="   35.096">  1  3  2 -1</clus>
</clustering>
</event>
<event>
 6    0  0.8777103E+002  0.1140764E+03  0.7546771E-02  0.1253202E+00
         21   -1    0    0  505  501  0.00000000000E+00  0.00000000000E+00  0.23448568473E+03  0.23448568473E+03  0.00000000000E+00 0.  1.
         21   -1    0    0  504  502 -0.00000000000E+00 -0.00000000000E+00 -0.11504166433E+04  0.11504166433E+04  0.00000000000E+00 0. -1.
         21    1    1    2  503  502  0.28663672092E+02 -0.64740708410E+02 -0.37234208185E+03  0.37901397249E+03  0.00000000000E+00 0. -1.
         21    1    1    2  504  506  0.18221777343E+02  0.30782877390E+02 -0.70939639914E+03  0.71029773323E+03  0.00000000000E+00 0. -1.
         21    1    1    2  505  503 -0.12987244230E+03 -0.33441355473E+02  0.66569763473E+02  0.14972210570E+03  0.00000000000E+00 0.  1.
         21    1    1    2  506  501  0.82986992869E+02  0.67399186492E+02  0.99237758975E+02  0.14586851659E+03  0.00000000000E+00 0.  1.
<scales pt_clust_3="58.61229" pt_clust_4="35.77176" pt_clust_5="114.07645" pt_clust_6="14000.00000"></scales>
<clustering>
<clus scale="   35.772">  2  4  1 -1</clus>
<clus scale="   58.612">  2  3  1 -1</clus>
<clus scale="  114.076">  2  5  1 -1</clus>
<clus scale="  114.076">  1  3  2 -1</clus>
</clustering>
</event>
<event>
 6    0  0.8777103E+002  0.1340860E+03  0.7546771E-02  0.1221516E+00
         21   -1    0    0  503  501  0.00000000000E+00  0.00000000000E+00  0.92322640894E+03  0.92322640894E+03  0.00000000000E+00 0. -1.
         21   -1    0    0  505  502 -0.00000000000E+00 -0.00000000000E+00 -0.11414728301E+04  0.11414728301E+04  0.00000000000E+00 0. -1.
         21    1    1    2  503  506  0.13704157760E+03 -0.10653724910E+03  0.73563363978E+03  0.75583558491E+03  0.00000000000E+00 0. -1.
         21    1    1    2  504  501 -0.20798113800E+02  0.43158698908E+02  0.15803950488E+03  0.16514151487E+03  0.00000000000E+00 0. -1.
         21    1    1    2  505  504 -0.15652036549E+03  0.10933002235E+03 -0.64023698590E+03  0.66809810411E+03  0.00000000000E+00 0. -1.
         21    1    1    2  506  502  0.40276901692E+02 -0.45951472158E+02 -0.47168257989E+03  0.47562403511E+03  0.00000000000E+00 0.  1.
<scales pt_clust_3="134.08599" pt_clust_4="47.90861" pt_clust_5="14000.00000" pt_clust_6="60.98511"></scales>
<clustering>
<clus scale="   47.909">  1  4  2 -1</clus>
<clus scale="   60.985">  2  6  1 -1</clus>
<clus scale="  134.086">  1  3  2 -1</clus>
<clus scale="   47.909">  1  3  2 -1</clus>
</clustering>
</event>
<event>
 6    0  0.8777103E+002  0.9003769E+02  0.7546771E-02  0.1302760E+00
         21   -1    0    0  505  501  0.00000000000E+00  0.00000000000E+00  0.27911664779E+04  0.27911664779E+04  0.00000000000E+00 0. -1.
         21   -1    0    0  504  502 -0.00000000000E+00 -0.00000000000E+00 -0.25553071659E+02  0.25553071659E+02  0.00000000000E+00 0. -1.
         21    1    1    2  503  502 -0.36641786676E+02  0.41427906999E+02  0.14674624919E+03  0.15682268222E+03  0.00000000000E+00 0. -1.
         21    1    1    2  504  506 -0.82517525251E+01 -0.94832493213E+02  0.25663333405E+03  0.27371876321E+03  0.00000000000E+00 0. -1.
         21    1    1    2  505  503  0.12944087974E+03  0.30911504451E+02  0.39144805558E+03  0.41345137885E+03  0.00000000000E+00 0. -1.
         21    1    1    2  506  501 -0.84547340543E+02  0.22493081762E+02  0.19707857674E+04  0.19727267252E+04  0.00000000000E+00 0. -1.
<scales pt_clust_3="55.30725" pt_clust_4="81.06522" pt_clust_5="90.03769" pt_clust_6="14000.00000"></scales>
<clustering>
<clus scale="   55.307">  2  3  1 -1</clus>
<clus scale="   81.065">  2  4  1 -1</clus>
<clus scale="   90.038">  2  5  1 -1</clus>
<clus scale="   90.038">  1  3  2 -1</clus>
</clustering>
</event>
<event>
 6    0  0.8777103E+002  0.6052263E+02  0.7546771E-02  0.1395651E+00
         21   -1    0    0  504  501  0.00000000000E+00  0.00000000000E+00  0.15004299220E+03  0.15004299220E+03  0.00000000000E+00 0. -1.
         21   -1    0    0  506  502 -0.00000000000E+00 -0.00000000000E+00 -0.20770691040E+04  0.20770691040E+04  0.00000000000E+00 0. -1.
         21    1    1    2  503  501  0.16784153809E+02  0.52046180051E+02  0.76554748147E+01  0.55218828053E+02  0.00000000000E+00 0. -1.
         21    1    1    2  504  502 -0.11533354116E+03 -0.77620365439E+01 -0.18237681233E+04  0.18274277667E+04  0.00000000000E+00 0. -1.
         21    1    1    2  505  503  0.42303054050E+02 -0.38164735760E+02  0.10597463944E+03  0.12031924053E+03  0.00000000000E+00 0. -1.
         21    1    1    2  506  505  0.56246333306E+02 -0.61194077469E+01 -0.21688810274E+03  0.22414626089E+03  0.00000000000E+00 0.  1.
<scales pt_clust_3="54.68558" pt_clust_4="60.52263" pt_clust_5="14000.00000" pt_clust_6="56.94013"></scales>
<clustering>
<clus scale="   54.686">  1  3  2 -1</clus>
<clus scale="   56.940">  2  6  1 -1</clus>
<clus scale="   60.523">  2  4  1 -1</clus>
<clus scale="   54.686">  1  3  2 -1</clus>
</clustering>
</event>
<event>
 6    0  0.8777103E+002  0.1794778E+03  0.7546771E-02  0.1168309E+00
         21   -1    0    0  505  501  0.00000000000E+00  0.00000000000E+00  0.15310499646E+03  0.15310499646E+03  0.00000000000E+00 0. -1.
         21   -1    0    0  506  502 -0.00000000000E+00 -0.00000000000E+00 -0.47716674657E+03  0.47716674657E+03  0.00000000000E+00 0. -1.
         21    1    1    2  503  502 -0.20489212776E+02  0.24063270902E+02 -0.84530820353E+02  0.90245822264E+02  0.00000000000E+00 0.  1.
         21    1    1    2  504  501  0.42920977999E+02 -0.31455305261E+02 -0.11729293741E+02  0.54490576370E+02  0.00000000000E+00 0. -1.
         21    1    1    2  505  503 -0.20474515646E+03  0.53410630658E+01 -0.15079507474E+02  0.20536917392E+03  0.00000000000E+00 0. -1.
         21    1    1    2  506  504  0.18231339124E+03  0.20509712930E+01 -0.21272212854E+03  0.28016617048E+03  0.00000000000E+00 0. -1.
<scales pt_clust_3="31.60457" pt_clust_4="50.60490" pt_clust_5="14000.00000" pt_clust_6="179.47781"></scales>
<clustering>
<clus scale="   31.605">  2  3  1 -1</clus>
<clus scale="   50.605">  1  4  2 -1</clus>
<clus scale="  179.478">  2  6  1 -1</clus>
<clus scale="   50.605">  1  3  2 -1</clus>
</clustering>
</event>
<event>
 6    0  0.8777103E+002  0.8468307E+02  0.7546771E-02  0.1316263E+00
         21   -1    0    0  505  501  0.00000000000E+00  0.00000000000E+00  0.10339348683E+03  0.10339348683E+03  0.00000000000E+00 0. -1.
         21   -1    0    0  504  502 -0.00000000000E+00 -0.00000000000E+00 -0.47593880046E+03  0.47593880046E+03  0.00000000000E+00 0. -1.
         21    1    1    2  503  506 -0.58293069925E+02 -0.12209789559E+02  0.44186198769E+02  0.74159160756E+02  0.00000000000E+00 0. -1.
         21    1    1    2  504  503  0.17474107222E+02  0.87200422526E+02 -0.33793627115E+03  0.34944267265E+03  0.00000000000E+00 0. -1.
         21    1    1    2  505  502  0.56291207616E+02 -0.23232113399E+02 -0.81385711178E+02  0.10164676646E+03  0.00000000000E+00 0. -1.
         21    1    1    2  506  501 -0.15472244912E+02 -0.51758519569E+02  0.25904699232E+01  0.54083687420E+02  0.00000000000E+00 0. -1.
<scales pt_clust_3="84.68307" pt_clust_4="14000.00000" pt_clust_5="62.05711" pt_clust_6="54.02161"></scales>
<clustering>
<clus scale="   54.022">  1  6  2 -1</clus>
<clus scale="   62.057">  2  5  1 -1</clus>
<clus scale="   84.683">  1  3  2 -1</clus>
<clus scale="   54.022">  1  3  2 -1</clus>
</clustering>
</event>
<event>
 6    0  0.8777103E+002  0.1122508E+03  0.7546771E-02  0.1256458E+00
         21   -1    0    0  504  501  0.00000000000E+00  0.00000000000E+00  0.10392140900E+04  0.10392140900E+04  0.00000000000E+00 0.  1.
         21   -1    0    0  506  502 -0.00000000000E+00 -0.00000000000E+00 -0.44567429766E+02  0.44567429766E+02  0.00000000000E+00 0.  1.
         21    1    1    2  503  502  0.37653444755E+02 -0.32553626215E+02  0.81730756080E+02  0.95694498123E+02  0.00000000000E+00 0.  1.
         21    1    1    2  504  503 -0.44841688708E+02 -0.98033413305E+02  0.36098971211E+03  0.37674248422E+03  0.00000000000E+00 0.  1.
         21    1    1    2  505  501  0.35778398374E+02  0.11024114310E+03  0.56279796267E+03  0.57460834506E+03  0.00000000000E+00 0.  1.
         21    1    1    2  506  505 -0.28590154421E+02  0.20345896417E+02 -0.10871770645E+02  0.36736192342E+02  0.00000000000E+00 0.  1.
<scales pt_clust_3="38.04398" pt_clust_4="112.25076" pt_clust_5="14000.00000" pt_clust_6="35.09063"></scales>
<clustering>
<clus scale="   35.091">  2  6  1 -1</clus>
<clus scale="   38.044">  2  3  1 -1</clus>
<clus scale="  112.251">  2  4  1 -1</clus>
<clus scale="  112.251">  1  3  2 -1</clus>
</clustering>
</event>
<event>
 6    0  0.8777103E+002  0.9561400E+02  0.7546771E-02  0.1289799E+00
         21   -1    0    0  506  501  0.00000000000E+00  0.00000000000E+00  0.11448293994E+03  0.11448293994E+03  0.00000000000E+00 0. -1.
         21   -1    0    0  503  502 -0.00000000000E+00 -0.00000000000E+00 -0.23381140032E+03  0.23381140032E+03  0.00000000000E+00 0. -1.
         21    1    1    2  503  505  0.36163861148E+02 -0.39183393176E+01 -0.88580660419E+02  0.95758611291E+02  0.00000000000E+00 0. -1.
         21    1    1    2  504  501 -0.44760726360E+02 -0.61962177922E+02  0.11259254791E+02  0.77263218517E+02  0.00000000000E+00 0. -1.
         21    1    1    2  505  504  0.49739921253E+02 -0.24529081911E+02 -0.51248498811E+02  0.75512543700E+02  0.00000000000E+00 0. -1.
         21    1    1    2  506  502 -0.41143056041E+02  0.90409599150E+02  0.92414440552E+01  0.99759966756E+02  0.00000000000E+00 0. -1.
<scales pt_clust_3="32.32299" pt_clust_4="76.43843" pt_clust_5="32.32299" pt_clust_6="86.88578"></scales>
<clustering>
<clus scale="   32.323">  3  5 -1 -1</clus>
<clus scale="   76.438">  1  4  2 -1</clus>
<clus scale="   86.886">  1  6  2 -1</clus>
<clus scale="   76.438">  1  3  2 -1</clus>
</clustering>
</event>
<event>
 6    0  0.8777103E+002  0.7118867E+02  0.7546771E-02  0.1356097E+00
         21   -1    0    0  503  501  0.00000000000E+00  0.00000000000E+00  0.36448842470E+03  0.36448842470E+03  0.00000000000E+00 0.  1.
         21   -1    0    0  505  502 -0.00000000000E+00 -0.00000000000E+00 -0.10561048557E+04  0.10561048557E+04  0.00000000000E+00 0. -1.
         21    1    1    2  503  504 -0.65066073538E+02  0.60204891238E+02  0.27137440625E+03  0.28548606135E+03  0.00000000000E+00 0.  1.
         21    1    1    2  504  502 -0.89168773760E+01 -0.10659702443E+03 -0.98399692526E+03  0.98979411255E+03  0.00000000000E+00 0. -1.
         21    1    1    2  505  506  0.40450933433E+02  0.43883740091E+02 -0.42626576150E+02  0.73342250131E+02  0.00000000000E+00 0. -1.
         21    1    1    2  506  501  0.33532017481E+02  0.25083931047E+01  0.63632664109E+02  0.71970856421E+02  0.00000000000E+00 0.  1.
<scales pt_clust_3="14000.00000" pt_clust_4="71.18867" pt_clust_5="60.96650" pt_clust_6="33.62571"></scales>
<clustering>
<clus scale="   33.626">  1  6  2 -1</clus>
<clus scale="   60.966">  2  5  1 -1</clus>
<clus scale="   71.189">  2  4  1 -1</clus>
<clus scale="   33.626">  1  3  2 -1</clus>
</clustering>
</event>
<event>
 6    0  0.8777103E+002  0.8744934E+02  0.7546771E-02  0.1309149E+00
         21   -1    0    0  505  501  0.00000000000E+00  0.00000000000E+00  0.31669595857E+04  0.31669595857E+04  0.00000000000E+00 0. -1.
         21   -1    0    0  504  502 -0.00000000000E+00 -0.00000000000E+00 -0.31782884342E+03  0.31782884342E+03  0.00000000000E+00 0.  1.
         21    1    1    2  503  506 -0.61087166746E+02  0.90999093083E+02  0.52207151073E+03  0.53345209644E+03  0.00000000000E+00 0. -1.
         21    1    1    2  504  503 -0.40911245925E+02 -0.18502970002E+02 -0.47683053532E+02  0.65496286431E+02  0.00000000000E+00 0.  1.
         21    1    1    2  505  502  0.18793539616E+02 -0.46123873839E+02 -0.25239044544E+03  0.25725774200E+03  0.00000000000E+00 0.  1.
         21    1    1    2  506  501  0.83204873056E+02 -0.26372249242E+02  0.26271327306E+04  0.26285823043E+04  0.00000000000E+00 0. -1.
<scales pt_clust_3="87.44934" pt_clust_4="44.90089" pt_clust_5="67.55641" pt_clust_6="14000.00000"></scales>
<clustering>
<clus scale="   44.901">  2  4  1 -1</clus>
<clus scale="   67.556">  2  5  1 -1</clus>
<clus scale="   87.449">  2  3  1 -1</clus>
<clus scale="   87.449">  1  3  2 -1</clus>
</clustering>
</event>
<event>
 6    0  0.8777103E+002  0.9902572E+02  0.7546771E-02  0.1282358E+00
         21   -1    0    0  506  501  0.00000000000E+00  0.00000000000E+00  0.15396505296E+04  0.15396505296E+04  0.00000000000E+00 0. -1.
         21   -1    0    0  503  502 -0.00000000000E+00 -0.00000000000E+00 -0.17205047801E+03  0.17205047801E+03  0.00000000000E+00 0.  1.
         21    1    1    2  503  501  0.88222773869E+02  0.10181680249E+02  0.10744655023E+04  0.10781294171E+04  0.00000000000E+00 0. -1.
         21    1    1    2  504  502 -0.43799426799E+02 -0.23780643451E+02 -0.13408308106E+03  0.14304608145E+03  0.00000000000E+00 0.  1.
         21    1    1    2  505  504  0.10784319386E+02 -0.84658881193E+02  0.54787719235E+02  0.10141558997E+03  0.00000000000E+00 0.  1.
         21    1    1    2  506  505 -0.55207666456E+02  0.98257844395E+02  0.37242991114E+03  0.38910991909E+03  0.00000000000E+00 0.  1.
<scales pt_clust_3="86.28481" pt_clust_4="49.83883" pt_clust_5="14000.00000" pt_clust_6="99.02572"></scales>
<clustering>
<clus scale="   49.839">  2  4  1 -1</clus>
<clus scale="   86.285">  1  3  2 -1</clus>
<clus scale="   99.026">  1  6  2 -1</clus>
<clus scale="   86.285">  1  3  2 -1</clus>
</clustering>
</event>
<event>
 6    0  0.8777103E+002  0.1468011E+03  0.7546771E-02  0.1204460E+00
         21   -1    0    0  506  501  0.00000000000E+00  0.00000000000E+00  0.13508346181E+03  0.13508346181E+03  0.00000000000E+00 0. -1.
         21   -1    0    0  503  502 -0.00000000000E+00 -0.00000000000E+00 -0.50615848836E+03  0.50615848836E+03  0.00000000000E+00 0. -1.
         21    1    1    2  503  504 -0.11493437849E+03 -0.68738108550E+02 -0.39714724680E+03  0.41911904582E+03  0.00000000000E+00 0. -1.
         21    1    1    2  504  501 -0.37854206522E+02 -0.10646958895E+02  0.15899811246E+02  0.42415830568E+02  0.00000000000E+00 0.  1.
         21    1    1    2  505  502  0.55527196829E+02  0.85129094252E+01  0.18319986965E+02  0.59087741005E+02  0.00000000000E+00 0. -1.
         21    1    1    2  506  505  0.97261388186E+02  0.70872158020E+02 -0.81475779592E+01  0.12061933278E+03  0.00000000000E+00 0. -1.
<scales pt_clust_3="137.86130" pt_clust_4="39.32300" pt_clust_5="34.46604" pt_clust_6="34.46604"></scales>
<clustering>
<clus scale="   34.466">  5  6 -1 -1</clus>
<clus scale="   39.323">  1  4  2 -1</clus>
<clus scale="  137.861">  2  3  1 -1</clus>
<clus scale="   39.323">  1  3  2 -1</clus>
</clustering>
</event>
<event>
 6    0  0.8777103E+002  0.9014330E+02  0.7546771E-02  0.1302505E+00
         21   -1    0    0  505  501  0.00000000000E+00  0.00000000000E+00  0.71411101344E+02  0.71411101344E+02  0.00000000000E+00 0.  1.
         21   -1    0    0  503  502 -0.00000000000E+00 -0.00000000000E+00 -0.16069951744E+04  0.16069951744E+04  0.00000000000E+00 0.  1.
         21    1    1    2  503  504  0.30812844947E+01  0.53377487803E+02 -0.13086877977E+04  0.13097795244E+04  0.00000000000E+00 0.  1.
         21    1    1    2  504  506 -0.87270119680E+02 -0.23869219464E+01 -0.19369990231E+03  0.21246511087E+03  0.00000000000E+00 0.  1.
         21    1    1    2  505  502  0.89921523102E+02 -0.21756952490E+01  0.10290980516E+02  0.90534624574E+02  0.00000000000E+00 0.  1.
         21    1    1    2  506  501 -0.57326879168E+01 -0.48814870608E+02 -0.43487353551E+02  0.65627015947E+02  0.00000000000E+00 0.  1.
<scales pt_clust_3="53.02251" pt_clust_4="90.14330" pt_clust_5="14000.00000" pt_clust_6="49.15033"></scales>
<clustering>
<clus scale="   49.150">  1  6  2 -1</clus>
<clus scale="   53.023">  2  3  1 -1</clus>
<clus scale="   90.143">  2  4  1 -1</clus>
<clus scale="   49.150">  1  3  2 -1</clus>
</clustering>
</event>
<event>
 6    0  0.8777103E+002  0.1179326E+03  0.7546771E-02  0.1246547E+00
         21   -1    0    0  504  501  0.00000000000E+00  0.00000000000E+00  0.12154474250E+03  0.12154474250E+03  0.00000000000E+00 0.  1.
         21   -1    0    0  506  502 -0.00000000000E+00 -0.00000000000E+00 -0.51317121978E+03  0.51317121978E+03  0.00000000000E+00 0.  1.
         21    1    1    2  503  505  0.94566007792E+01  0.51385049976E+02 -0.13019728397E+03  0.14028964115E+03  0.00000000000E+00 0. -1.
         21    1    1    2  504  503 -0.33600288388E+02 -0.11404164703E+03  0.13019034762E+02  0.11959921364E+03  0.00000000000E+00 0.  1.
         21    1    1    2  505  502 -0.16820888227E+02  0.54703680384E+02 -0.31289527270E+03  0.31808628798E+03  0.00000000000E+00 0.  1.
         21    1    1    2  506  501  0.40964575836E+02  0.79529166721E+01  0.38447044631E+02  0.56740819503E+02  0.00000000000E+00 0.  1.
<scales pt_clust_3="48.02813" pt_clust_4="106.95639" pt_clust_5="48.02813" pt_clust_6="41.72943"></scales>
<clustering>
<clus scale="   41.729">  1  6  2 -1</clus>
<clus scale="   48.028">  3  5 -1 -1</clus>
<clus scale="  106.956">  1  4  2 -1</clus>
<clus scale="   41.729">  1  3  2 -1</clus>
</clustering>
</event>
<event>
 6    0  0.8777103E+002  0.7299779E+02  0.7546771E-02  0.1350186E+00
         21   -1    0    0  506  501  0.00000000000E+00  0.00000000000E+00  0.22889570529E+03  0.22889570529E+03  0.00000000000E+00 0. -1.
         21   -1    0    0  505  502 -0.00000000000E+00 -0.00000000000E+00 -0.39153939766E+03  0.39153939766E+03  0.00000000000E+00 0. -1.
         21    1    1    2  503  501  0.45544118563E+01  0.29808272003E+02  0.18575225214E+02  0.35416306116E+02  0.00000000000E+00 0. -1.
         21    1    1    2  504  503 -0.33990172129E+02  0.21419809982E+02  0.81445265649E+02  0.90815589839E+02  0.00000000000E+00 0. -1.
         21    1    1    2  505  504  0.10136210519E+03 -0.53906310258E+02  0.82654235219E+02  0.14146338485E+03  0.00000000000E+00 0. -1.
         21    1    1    2  506  502 -0.71926344918E+02  0.26782282726E+01 -0.34531841846E+03  0.35273982215E+03  0.00000000000E+00 0. -1.
<scales pt_clust_3="30.15420" pt_clust_4="46.82194" pt_clust_5="72.99779" pt_clust_6="14000.00000"></scales>
<clustering>
<clus scale="   30.154">  1  3  2 -1</clus>
<clus scale="   46.822">  1  4  2 -1</clus>
<clus scale="   72.998">  1  5  2 -1</clus>
<clus scale="   30.154">  1  3  2 -1</clus>
</clustering>
</event>
<event>
 6    0  0.8777103E+002  0.1374630E+03  0.7546771E-02  0.1216784E+00
         21   -1    0    0  506  501  0.00000000000E+00  0.00000000000E+00  0.86214667534E+03  0.86214667534E+03  0.00000000000E+00 0.  1.
         21   -1    0    0  504  502 -0.00000000000E+00 -0.00000000000E+00 -0.22929995633E+04  0.22929995633E+04  0.00000000000E+00 0.  1.
         21    1    1    2  503  502  0.15539189136E+02  0.41550920226E+02 -0.29307007061E+03  0.29640852157E+03  0.00000000000E+00 0.  1.
         21    1    1    2  504  505 -0.30434146399E+02 -0.77301544146E+02 -0.19719326823E+04  0.19736819069E+04  0.00000000000E+00 0.  1.
         21    1    1    2  505  501 -0.25249819329E+01 -0.12561498498E+03  0.46750692125E+03  0.48409526067E+03  0.00000000000E+00 0.  1.
         21    1    1    2  506  503  0.17419939195E+02  0.16136560890E+03  0.36664294376E+03  0.40096054947E+03  0.00000000000E+00 0.  1.
<scales pt_clust_3="44.36153" pt_clust_4="39.29408" pt_clust_5="14000.00000" pt_clust_6="137.46295"></scales>
<clustering>
<clus scale="   44.362">  2  3  1 -1</clus>
<clus scale="   39.294">  2  4  1 -1</clus>
<clus scale="  137.463">  2  6  1 -1</clus>
<clus scale="  137.463">  1  3  2 -1</clus>
</clustering>
</event>
<event>
 6    0  0.8777103E+002  0.7422038E+02  0.7546771E-02  0.1346302E+00
         21   -1    0    0  504  501  0.00000000000E+00  0.00000000000E+00  0.83911719303E+02  0.83911719303E+02  0.00000000000E+00 0.  1.
         21   -1    0    0  505  502 -0.00000000000E+00 -0.00000000000E+00 -0.27955832129E+04  0.27955832129E+04  0.00000000000E+00 0. -1.
         21    1    1    2  503  501 -0.63894016986E+02 -0.42078835581E+02  0.52186151369E+02  0.92609223110E+02  0.00000000000E+00 0.  1.
         21    1    1    2  504  502  0.24198636611E+02  0.30377447637E+02 -0.11327439164E+04  0.11334095215E+04  0.00000000000E+00 0.  1.
         21    1    1    2  505  506 -0.42111954344E+02  0.45864560325E+02 -0.14547685265E+04  0.14561004225E+04  0.00000000000E+00 0. -1.
         21    1    1    2  506  503  0.81807334718E+02 -0.34163172381E+02 -0.17634520205E+03  0.19737576510E+03  0.00000000000E+00 0.  1.
<scales pt_clust_3="74.22038" pt_clust_4="38.83765" pt_clust_5="75.41996" pt_clust_6="14000.00000"></scales>
<clustering>
<clus scale="   38.838">  2  4  1 -1</clus>
<clus scale="   75.420">  2  5  1 -1</clus>
<clus scale="   74.220">  1  3  2 -1</clus>
<clus scale="   74.220">  1  3  2 -1</clus>
</clustering>
</event>
<event>
 6    0  0.8777103E+002  0.1119672E+03  0.7546771E-02  0.1256970E+00
         21   -1    0    0  504  501  0.00000000000E+00  0.00000000000E+00  0.32411949804E+03  0.32411949804E+03  0.00000000000E+00 0.  1.
         21   -1    0    0  505  502 -0.00000000000E+00 -0.00000000000E+00 -0.23137273038E+03  0.23137273038E+03  0.00000000000E+00 0.  1.
         21    1    1    2  503  506  0.62182170586E+02  0.76566898591E+02  0.25590464921E+03  0.27425590565E+03  0.00000000000E+00 0.  1.
         21    1    1    2  504  502 -0.19742959999E+02 -0.37095923808E+02 -0.12569836617E+02  0.43862202695E+02  0.00000000000E+00 0.  1.
         21    1    1    2  505  503 -0.73241110484E+02 -0.34459180481E+02 -0.17818961793E+03  0.19571212359E+03  0.00000000000E+00 0.  1.
         21    1    1    2  506  501  0.30801899896E+02 -0.50117943024E+01  0.27601572986E+02  0.41661996480E+02  0.00000000000E+00 0.  1.
<scales pt_clust_3="111.96717" pt_clust_4="41.51022" pt_clust_5="14000.00000" pt_clust_6="31.20697"></scales>
<clustering>
<clus scale="   31.207">  1  6  2 -1</clus>
<clus scale="   41.510">  2  4  1 -1</clus>
<clus scale="  111.967">  1  3  2 -1</clus>
<clus scale="   31.207">  1  3  2 -1</clus>
</clustering>
</event>
<event>
 6    0  0.8777103E+002  0.8359635E+02  0.7546771E-02  0.1319145E+00
         21   -1    0    0  505  501  0.00000000000E+00  0.00000000000E+00  0.27577753413E+03  0.27577753413E+03  0.00000000000E+00 0. -1.
         21   -1    0    0  503  502 -0.00000000000E+00 -0.00000000000E+00 -0.51201652862E+03  0.51201652862E+03  0.00000000000E+00 0. -1.
         21    1    1    2  503  506  0.13054671224E+02 -0.66694226935E+02 -0.11119957524E+03  0.13032225398E+03  0.00000000000E+00 0. -1.
         21    1    1    2  504  502 -0.83922512726E+02  0.44775956757E+02 -0.33868788853E+03  0.35179164329E+03  0.00000000000E+00 0. -1.
         21    1    1    2  505  504  0.54225069584E+02 -0.10984240653E+02 -0.27461676590E+02  0.61766944196E+02  0.00000000000E+00 0. -1.
         21    1    1    2  506  501  0.16642771918E+02  0.32902510830E+02  0.24111014588E+03  0.24391322129E+03  0.00000000000E+00 0. -1.
<scales pt_clust_3="59.95257" pt_clust_4="14000.00000" pt_clust_5="83.59635" pt_clust_6="36.87217"></scales>
<clustering>
<clus scale="   36.872">  1  6  2 -1</clus>
<clus scale="   59.953">  1  3  2 -1</clus>
<clus scale="   83.596">  1  5  2 -1</clus>
<clus scale="   36.872">  1  3  2 -1</clus>
</clustering>
</event>
<event>
 6    0  0.8777103E+002  0.1621149E+03  0.7546771E-02  0.1186330E+00
         21   -1    0    0  505  501  0.00000000000E+00  0.00000000000E+00  0.36159784175E+04  0.36159784175E+04  0.00000000000E+00 0. -1.
         21   -1    0    0  504  502 -0.00000000000E+00 -0.00000000000E+00 -0.10132713251E+03  0.10132713251E+03  0.00000000000E+00 0. -1.
         21    1    1    2  503  502  0.19448803061E+03  0.44968930827E+02  0.81931418539E+02  0.21577895202E+03  0.00000000000E+00 0. -1.
         21    1    1    2  504  506  0.30776781468E+02  0.47465019060E+01  0.63560649708E+02  0.70779204214E+02  0.00000000000E+00 0. -1.
         21    1    1    2  505  503 -0.94883700885E+02 -0.59280335390E+02  0.32557736002E+04  0.32576953220E+04  0.00000000000E+00 0. -1.
         21    1    1    2  506  501 -0.13038111120E+03  0.95649026570E+01  0.11338561650E+03  0.17305207179E+03  0.00000000000E+00 0. -1.
<scales pt_clust_3="162.11491" pt_clust_4="31.14064" pt_clust_5="111.59841" pt_clust_6="14000.00000"></scales>
<clustering>
<clus scale="   31.141">  2  4  1 -1</clus>
<clus scale="  111.598">  1  5  2 -1</clus>
<clus scale="  162.115">  1  3  2 -1</clus>
<clus scale="  111.598">  1  3  2 -1</clus>
</clustering>
</event>
<event>
 6    0  0.8777103E+002  0.1185863E+03  0.7546771E-02  0.1245448E+00
         21   -1    0    0  503  501  0.00000000000E+00  0.00000000000E+00  0.10751247725E+04  0.10751247725E+04  0.00000000000E+00 0.  1.
         21   -1    0    0  506  502 -0.00000000000E+00 -0.00000000000E+00 -0.32937879326E+03  0.32937879326E+03  0.00000000000E+00 0. -1.
         21    1    1    2  503  502  0.10069629856E+03 -0.88889814942E+02  0.99150337776E+03  0.10005598892E+04  0.00000000000E+00 0.  1.
         21    1    1    2  504  505 -0.99007570927E+01  0.47343902168E+02 -0.12828723577E+02  0.50040445763E+02  0.00000000000E+00 0. -1.
         21    1    1    2  505  501 -0.55523906753E+02  0.29013760430E+02  0.42654263436E+02  0.75789766490E+02  0.00000000000E+00 0.  1.
         21    1    1    2  506  504 -0.35271634713E+02  0.12532152344E+02 -0.27558293842E+03  0.27811346427E+03  0.00000000000E+00 0. -1.
<scales pt_clust_3="118.58625" pt_clust_4="63.00192" pt_clust_5="14000.00000" pt_clust_6="37.43185"></scales>
<clustering>
<clus scale="   37.432">  2  6  1 -1</clus>
<clus scale="   63.002">  2  4  1 -1</clus>
<clus scale="  118.586">  1  3  2 -1</clus>
<clus scale="  118.586">  1  3  2 -1</clus>
</clustering>
</event>
<event>
 6    0  0.8777103E+002  0.1217953E+03  0.7546771E-02  0.1240164E+00
         21   -1    0    0  504  501  0.00000000000E+00  0.00000000000E+00  0.12681311708E+03  0.12681311708E+03  0.00000000000E+00 0.  1.
         21   -1    0    0  506  502 -0.00000000000E+00 -0.00000000000E+00 -0.12262883086E+04  0.12262883086E+04  0.00000000000E+00 0.  1.
         21    1    1    2  503  505  0.78495548121E+02 -0.70066351222E+02 -0.15294997392E+03  0.18564627433E+03  0.00000000000E+00 0.  1.
         21    1    1    2  504  503  0.20942954065E+02 -0.61863117637E+02  0.58345084346E+02  0.87577402999E+02  0.00000000000E+00 0.  1.
         21    1    1    2  505  502  0.42804753333E+02  0.68461767367E+02 -0.87029855179E+03  0.87403594305E+03  0.00000000000E+00 0.  1.
         21    1    1    2  506  501 -0.14224325552E+03  0.63467701492E+02 -0.13457175015E+03  0.20584180530E+03  0.00000000000E+00 0.  1.
<scales pt_clust_3="14000.00000" pt_clust_4="65.31196" pt_clust_5="79.32641" pt_clust_6="121.79531"></scales>
<clustering>
<clus scale="   65.312">  1  4  2 -1</clus>
<clus scale="   79.326">  2  5  1 -1</clus>
<clus scale="  121.795">  1  6  2 -1</clus>
<clus scale="   65.312">  1  3  2 -1</clus>
</clustering>
</event>
<event>
 6    0  0.8777103E+002  0.8023593E+02  0.7546771E-02  0.1328383E+00
         21   -1    0    0  504  501  0.00000000000E+00  0.00000000000E+00  0.43675103960E+03  0.43675103960E+03  0.00000000000E+00 0.  1.
         21   -1    0    0  503  502 -0.00000000000E+00 -0.00000000000E+00 -0.38895126771E+03  0.38895126771E+03  0.00000000000E+00 0.  1.
         21    1    1    2  503  505 -0.71407276055E+02 -0.32592928464E+02 -0.29043008066E+02  0.83694649632E+02  0.00000000000E+00 0.  1.
         21    1    1    2  504  506 -0.15635288896E+02  0.98740699353E+02 -0.19715416560E+02  0.10189644556E+03  0.00000000000E+00 0.  1.
         21    1    1    2  505  501  0.80940373231E+02 -0.25835698754E+01  0.36002296764E+03  0.36901836822E+03  0.00000000000E+00 0.  1.
         21    1    1    2  506  502  0.61021917204E+01 -0.63564201013E+02 -0.26346477112E+03  0.27109284391E+03  0.00000000000E+00 0.  1.
<scales pt_clust_3="14000.00000" pt_clust_4="68.14671" pt_clust_5="80.23593" pt_clust_6="63.85644"></scales>
<clustering>
<clus scale="   63.856">  2  6  1 -1</clus>
<clus scale="   68.147">  2  4  1 -1</clus>
<clus scale="   80.236">  1  5  2 -1</clus>
<clus scale="   80.236">  1  3  2 -1</clus>
</clustering>
</event>
<event>
 6    0  0.8777103E+002  0.9705036E+02  0.7546771E-02  0.1286624E+00
         21   -1    0    0  505  501  0.00000000000E+00  0.00000000000E+00  0.39776236448E+03  0.39776236448E+03  0.00000000000E+00 0.  1.
         21   -1    0    0  503  502 -0.00000000000E+00 -0.00000000000E+00 -0.56226039584E+03  0.56226039584E+03  0.00000000000E+00 0.  1.
         21    1    1    2  503  504  0.47767612666E+02 -0.49344517259E+02 -0.18709883565E+03  0.19930529472E+03  0.00000000000E+00 0.  1.
         21    1    1    2  504  501  0.12040277826E+02 -0.72185200813E+02  0.34758826863E+03  0.35520877804E+03  0.00000000000E+00 0.  1.
         21    1    1    2  505  506 -0.10515843411E+03  0.63994245501E+01 -0.84499793262E+02  0.13505355960E+03  0.00000000000E+00 0.  1.
         21    1    1    2  506  502  0.45350543618E+02  0.11513029352E+03 -0.24048767108E+03  0.27045512795E+03  0.00000000000E+00 0.  1.
<scales pt_clust_3="68.67770" pt_clust_4="73.76719" pt_clust_5="14000.00000" pt_clust_6="97.05036"></scales>
<clustering>
<clus scale="   68.678">  2  3  1 -1</clus>
<clus scale="   73.767">  1  4  2 -1</clus>
<clus scale="   97.050">  2  6  1 -1</clus>
<clus scale="   73.767">  1  3  2 -1</clus>
</clustering>
</event>
<event>
 6    0  0.8777103E+002  0.1231976E+03  0.7546771E-02  0.1237913E+00
         21   -1    0    0  505  501  0.00000000000E+00  0.00000000000E+00  0.86810058778E+03  0.86810058778E+03  0.00000000000E+00 0.  1.
         21   -1    0    0  503  502 -0.00000000000E+00 -0.00000000000E+00 -0.45717191243E+03  0.45717191243E+03  0.00000000000E+00 0. -1.
         21    1    1    2  503  506  0.58287573248E+02 -0.18272970585E+02 -0.38625683561E+03  0.39105713867E+03  0.00000000000E+00 0. -1.
         21    1    1    2  504  502 -0.11055829902E+03 -0.72923265548E+01  0.23954703759E+03  0.26393010197E+03  0.00000000000E+00 0.  1.
         21    1    1    2  505  504 -0.33370166944E+02  0.21595949112E+02  0.58025868391E+03  0.58161851184E+03  0.00000000000E+00 0.  1.
         21    1    1    2  506  501  0.85640892713E+02  0.39693480277E+01 -0.22620210531E+02  0.88666747730E+02  0.00000000000E+00 0. -1.
<scales pt_clust_3="60.76464" pt_clust_4="14000.00000" pt_clust_5="39.74862" pt_clust_6="123.19756"></scales>
<clustering>
<clus scale="   39.749">  1  5  2 -1</clus>
<clus scale="   60.765">  2  3  1 -1</clus>
<clus scale="  123.198">  2  6  1 -1</clus>
<clus scale="   39.749">  1  3  2 -1</clus>
</clustering>
</event>
<event>
 6    0  0.8777103E+002  0.7067109E+02  0.7546771E-02  0.1357826E+00
         21   -1    0    0  504  501  0.00000000000E+00  0.00000000000E+00  0.18188240874E+03  0.18188240874E+03  0.00000000000E+00 0.  1.
         21   -1    0    0  505  502 -0.00000000000E+00 -0.00000000000E+00 -0.27109867007E+03  0.27109867007E+03  0.00000000000E+00 0.  1.
         21    1    1    2  503  501 -0.56604196746E+01  0.38974281455E+02  0.63750208217E+01  0.39895812516E+02  0.00000000000E+00 0.  1.
         21    1    1    2  504  506 -0.72120301953E+02  0.90661008722E+01  0.70474760506E+02  0.10124338994E+03  0.00000000000E+00 0.  1.
         21    1    1    2  505  503  0.95544139461E+01 -0.69678861995E+02 -0.21429017258E+03  0.22553649083E+03  0.00000000000E+00 0.  1.
         21    1    1    2  506  502  0.68226307682E+02  0.21638479668E+02  0.48224129923E+02  0.86305385516E+02  0.00000000000E+00 0.  1.
<scales pt_clust_3="39.38318" pt_clust_4="70.67109" pt_clust_5="68.93587" pt_clust_6="14000.00000"></scales>
<clustering>
<clus scale="   39.383">  1  3  2 -1</clus>
<clus scale="   68.936">  2  5  1 -1</clus>
<clus scale="   70.671">  1  4  2 -1</clus>
<clus scale="   39.383">  1  3  2 -1</clus>
</clustering>
</event>
<event>
 6    0  0.8777103E+002  0.1176731E+03  0.7546771E-02  0.1246986E+00
         21   -1    0    0  506  501  0.00000000000E+00  0.00000000000E+00  0.35927529545E+03  0.35927529545E+03  0.00000000000E+00 0. -1.
         21   -1    0    0  503  502 -0.00000000000E+00 -0.00000000000E+00 -0.14685141519E+04  0.14685141519E+04  0.00000000000E+00 0. -1.
         21    1    1    2  503  504  0.31363998350E+02 -0.49246736711E+02 -0.33387663243E+03  0.33894328014E+03  0.00000000000E+00 0.  1.
         21    1    1    2  504  501 -0.66692191254E+02  0.15515672860E+03  0.31745690474E+03  0.35958357189E+03  0.00000000000E+00 0. -1.
         21    1    1    2  505  502  0.34800085804E+02 -0.50990794079E+02 -0.10666323043E+04  0.10684173246E+04  0.00000000000E+00 0. -1.
         21    1    1    2  506  505  0.52810710015E+00 -0.54919197809E+02 -0.26186824436E+02  0.60845270640E+02  0.00000000000E+00 0.  1.
<scales pt_clust_3="58.73182" pt_clust_4="14000.00000" pt_clust_5="117.67314" pt_clust_6="54.92174"></scales>
<clustering>
<clus scale="   54.922">  1  6  2 -1</clus>
<clus scale="   58.732">  2  3  1 -1</clus>
<clus scale="  117.673">  2  5  1 -1</clus>
<clus scale="   54.922">  1  3  2 -1</clus>
</clustering>
</event>
<event>
 6    0  0.8777103E+002  0.1093744E+03  0.7546771E-02  0.1261733E+00
         21   -1    0    0  504  501  0.00000000000E+00  0.00000000000E+00  0.10777738823E+04  0.10777738823E+04  0.00000000000E+00 0. -1.
         21   -1    0    0  503  502 -0.00000000000E+00 -0.00000000000E+00 -0.81572545195E+02  0.81572545195E+02  0.00000000000E+00 0.  1.
         21    1    1    2  503  506 -0.34440157008E+01  0.43848599020E+02 -0.26127839675E+02  0.51158820220E+02  0.00000000000E+00 0.  1.
         21    1    1    2  504  502  0.10136011582E+03 -0.41794328881E+02  0.75735844694E+03  0.76525319742E+03  0.00000000000E+00 0. -1.
         21    1    1    2  505  501 -0.49425325884E+02 -0.42429829263E+02  0.27177202153E+03  0.27946947049E+03  0.00000000000E+00 0.  1.
         21    1    1    2  506  505 -0.48490774239E+02  0.40375559124E+02 -0.68012916856E+01  0.63464939372E+02  0.00000000000E+00 0.  1.
<scales pt_clust_3="39.71992" pt_clust_4="98.48556" pt_clust_5="65.13949" pt_clust_6="39.71992"></scales>
<clustering>
<clus scale="   39.720">  3  6 -1 -1</clus>
<clus scale="   65.139">  1  5  2 -1</clus>
<clus scale="   98.486">  1  4  2 -1</clus>
<clus scale="   65.139">  1  3  2 -1</clus>
</clustering>
</event>
<event>
 6    0  0.8777103E+002  0.1014032E+03  0.7546771E-02  0.1277373E+00
         21   -1    0    0  506  501  0.00000000000E+00  0.00000000000E+00  0.56598068170E+03  0.56598068170E+03  0.00000000000E+00 0.  1.
         21   -1    0    0  504  502 -0.00000000000E+00 -0.00000000000E+00 -0.67813341715E+02  0.67813341715E+02  0.00000000000E+00 0.  1.
         21    1    1    2  503  501  0.77230848889E+02 -0.69721810844E+02  0.12786884427E+03  0.16485198289E+03  0.00000000000E+00 0.  1.
         21    1    1    2  504  503  0.26585757388E+02 -0.43490356172E+02 -0.73517850855E+01  0.51500119609E+02  0.00000000000E+00 0.  1.
         21    1    1    2  505  502 -0.62989369005E+02  0.90328146057E+02  0.15629997997E+03  0.19119758972E+03  0.00000000000E+00 0.  1.
         21    1    1    2  506  505 -0.40827237272E+02  0.22884020958E+02  0.22135030084E+03  0.22624433120E+03  0.00000000000E+00 0.  1.
<scales pt_clust_3="14000.00000" pt_clust_4="48.36201" pt_clust_5="101.40318" pt_clust_6="46.80322"></scales>
<clustering>
<clus scale="   46.803">  1  6  2 -1</clus>
<clus scale="   48.362">  2  4  1 -1</clus>
<clus scale="  101.403">  2  5  1 -1</clus>
<clus scale="   46.803">  1  3  2 -1</clus>
</clustering>
</event>
<event>
 6    0  0.8777103E+002  0.1408245E+03  0.7546771E-02  0.1212224E+00
         21   -1    0    0  504  501  0.00000000000E+00  0.00000000000E+00  0.28287971953E+03  0.28287971953E+03  0.00000000000E+00 0.  1.
         21   -1    0    0  506  502 -0.00000000000E+00 -0.00000000000E+00 -0.39404664419E+03  0.39404664419E+03  0.00000000000E+00 0.  1.
         21    1    1    2  503  502  0.81621794384E+02  0.38415748564E+02 -0.11826897402E+03  0.14874621767E+03  0.00000000000E+00 0.  1.
         21    1    1    2  504  505 -0.10704119403E+02 -0.29000250741E+02  0.30190769584E+02  0.43209666549E+02  0.00000000000E+00 0.  1.
         21    1    1    2  505  503 -0.44126711445E+01 -0.15365627967E+03 -0.19671501620E+03  0.24965280201E+03  0.00000000000E+00 0.  1.
         21    1    1    2  506  501 -0.66505003837E+02  0.14424078185E+03  0.17362629598E+03  0.23531767749E+03  0.00000000000E+00 0.  1.
<scales pt_clust_3="88.85642" pt_clust_4="30.91266" pt_clust_5="14000.00000" pt_clust_6="140.82449"></scales>
<clustering>
<clus scale="   30.913">  1  4  2 -1</clus>
<clus scale="   88.856">  2  3  1 -1</clus>
<clus scale="  140.824">  1  6  2 -1</clus>
<clus scale="   30.913">  1  3  2 -1</clus>
</clustering>
</event>
<event>
 6    0  0.8777103E+002  0.1850712E+03  0.7546771E-02  0.1162983E+00
         21   -1    0    0  503  501  0.00000000000E+00  0.00000000000E+00  0.26731763938E+04  0.26731763938E+04  0.00000000000E+00 0.  1.
         21   -1    0    0  505  502 -0.00000000000E+00 -0.00000000000E+00 -0.52407398496E+02  0.52407398496E+02  0.00000000000E+00 0.  1.
         21    1    1    2  503  506 -0.19880908973E+02  0.59783331819E+02  0.18441651810E+04  0.18452410444E+04  0.00000000000E+00 0.  1.
         21    1    1    2  504  501 -0.57397706156E+02 -0.47955142623E+01  0.54048668708E+02  0.78985772251E+02  0.00000000000E+00 0. -1.
         21    1    1    2  505  504 -0.84432727667E+02 -0.10112661103E+03  0.12877833454E+03  0.18422631844E+03  0.00000000000E+00 0.  1.
         21    1    1    2  506  502  0.16171134280E+03  0.46138793470E+02  0.59377681104E+03  0.61713065714E+03  0.00000000000E+00 0.  1.
<scales pt_clust_3="63.00236" pt_clust_4="44.45183" pt_clust_5="44.45183" pt_clust_6="172.42922"></scales>
<clustering>
<clus scale="   44.452">  4  5 -1 -1</clus>
<clus scale="   63.002">  1  3  2 -1</clus>
<clus scale="  172.429">  1  6  2 -1</clus>
<clus scale="   63.002">  1  3  2 -1</clus>
</clustering>
</event>
<event>
 6    0  0.8777103E+002  0.1157791E+03  0.7546771E-02  0.1250227E+00
         21   -1    0    0  503  501  0.00000000000E+00  0.00000000000E+00  0.12912121957E+04  0.12912121957E+04  0.00000000000E+00 0.  1.
         21   -1    0    0  504  502 -0.00000000000E+00 -0.00000000000E+00 -0.63955733996E+02  0.63955733996E+02  0.00000000000E+00 0.  1.
         21    1    1    2  503  506 -0.38528401623E+02  0.11877480354E+03  0.61152074981E+03  0.62413902228E+03  0.00000000000E+00 0.  1.
         21    1    1    2  504  505 -0.39929854170E+02 -0.45822283255E+01  0.77775953524E+02  0.87547067439E+02  0.00000000000E+00 0. -1.
         21    1    1    2  505  501  0.43664188769E+02 -0.99585017110E+02  0.57818837443E+03  0.58832434366E+03  0.00000000000E+00 0.  1.
         21    1    1    2  506  502  0.34794067024E+02 -0.14607558100E+02 -0.40228616041E+02  0.55157496338E+02  0.00000000000E+00 0.  1.
<scales pt_clust_3="115.77908" pt_clust_4="30.81194" pt_clust_5="14000.00000" pt_clust_6="37.73603"></scales>
<clustering>
<clus scale="   37.736">  2  6  1 -1</clus>
<clus scale="   30.812">  2  4  1 -1</clus>
<clus scale="  115.779">  2  3  1 -1</clus>
<clus scale="  115.779">  1  3  2 -1</clus>
</clustering>
</event>
<event>
 6    0  0.8777103E+002  0.1645608E+03  0.7546771E-02  0.1183642E+00
         21   -1    0    0  504  501  0.00000000000E+00  0.00000000000E+00  0.23438775045E+04  0.23438775045E+04  0.00000000000E+00 0.  1.
         21   -1    0    0  505  502 -0.00000000000E+00 -0.00000000000E+00 -0.44081436582E+02  0.44081436582E+02  0.00000000000E+00 0. -1.
         21    1    1    2  503  502  0.28513061675E+02 -0.27781520286E+02  0.34597669382E+02  0.52742831571E+02  0.00000000000E+00 0. -1.
         21    1    1    2  504  506 -0.26923045904E+02 -0.11112796644E+03  0.10972584888E+04  0.11032001027E+04  0.00000000000E+00 0.  1.
         21    1    1    2  505  501 -0.11153372477E+03  0.18910264638E+03  0.41554346475E+03  0.46997441816E+03  0.00000000000E+00 0. -1.
         21    1    1    2  506  503  0.10994370900E+03 -0.50193159650E+02  0.75239644501E+03  0.76204158869E+03  0.00000000000E+00 0.  1.
<scales pt_clust_3="39.80964" pt_clust_4="116.10070" pt_clust_5="164.56084" pt_clust_6="14000.00000"></scales>
<clustering>
<clus scale="   39.810">  2  3  1 -1</clus>
<clus scale="  116.101">  1  4  2 -1</clus>
<clus scale="  164.561">  2  5  1 -1</clus>
<clus scale="  116.101">  1  3  2 -1</clus>
</clustering>
</event>
<event>
 6    0  0.8777103E+002  0.1759134E+03  0.7546771E-02  0.1171818E+00
         21   -1    0    0  503  501  0.00000000000E+00  0.00000000000E+00  0.70525235252E+03  0.70525235252E+03  0.00000000000E+00 0.  1.
         21   -1    0    0  504  502 -0.00000000000E+00 -0.00000000000E+00 -0.36065519783E+03  0.36065519783E+03  0.00000000000E+00 0. -1.
         21    1    1    2  503  506  0.37452542799E+01  0.30879418240E+02  0.65565020494E+02  0.72569534329E+02  0.00000000000E+00 0.  1.
         21    1    1    2  504  505  0.34490103565E+02 -0.10534731194E+02 -0.10155156241E+01  0.36077403970E+02  0.00000000000E+00 0.  1.
         21    1    1    2  505  501 -0.17888909850E+03 -0.66960964842E+00  0.58989028911E+03  0.61641894125E+03  0.00000000000E+00 0.  1.
         21    1    1    2  506  502  0.14065374065E+03 -0.19675077398E+02 -0.30984263929E+03  0.34084167080E+03  0.00000000000E+00 0. -1.
<scales pt_clust_3="31.10571" pt_clust_4="35.92316" pt_clust_5="175.91339" pt_clust_6="14000.00000"></scales>
<clustering>
<clus scale="   31.106">  1  3  2 -1</clus>
<clus scale="   35.923">  2  4  1 -1</clus>
<clus scale="  175.913">  1  5  2 -1</clus>
<clus scale="   31.106">  1  3  2 -1</clus>
</clustering>
</event>
<event>
 6    0  0.8777103E+002  0.2023383E+03  0.7546771E-02  0.1147781E+00
         21   -1    0    0  504  501  0.00000000000E+00  0.00000000000E+00  0.55963527643E+03  0.55963527643E+03  0.00000000000E+00 0. -1.
         21   -1    0    0  503  502 -0.00000000000E+00 -0.00000000000E+00 -0.26751362562E+03  0.26751362562E+03  0.00000000000E+00 0.  1.
         21    1    1    2  503  506  0.33684816556E+02 -0.16974834314E+02 -0.13609262128E+03  0.14122327512E+03  0.00000000000E+00 0.  1.
         21    1    1    2  504  502  0.17006623420E+03 -0.50085920496E+02  0.11999001157E+03  0.21407644972E+03  0.00000000000E+00 0.  1.
         21    1    1    2  505  501 -0.23298140966E+02 -0.95440232438E+02  0.15876776809E+03  0.18670523700E+03  0.00000000000E+00 0.  1.
         21    1    1    2  506  505 -0.18045290979E+03  0.16250098725E+03  0.14945649244E+03  0.28514394022E+03  0.00000000000E+00 0. -1.
<scales pt_clust_3="37.72018" pt_clust_4="202.33831" pt_clust_5="99.24446" pt_clust_6="14000.00000"></scales>
<clustering>
<clus scale="   37.720">  2  3  1 -1</clus>
<clus scale="   99.244">  1  5  2 -1</clus>
<clus scale="  202.338">  1  4  2 -1</clus>
<clus scale="   99.244">  1  3  2 -1</clus>
</clustering>
</event>
<event>
 6    0  0.8777103E+002  0.1128248E+03  0.7546771E-02  0.1255427E+00
         21   -1    0    0  505  501  0.00000000000E+00  0.00000000000E+00  0.21931628755E+03  0.21931628755E+03  0.00000000000E+00 0.  1.
         21   -1    0    0  504  502 -0.00000000000E+00 -0.00000000000E+00 -0.31558783989E+03  0.31558783989E+03  0.00000000000E+00 0.  1.
         21    1    1    2  503  506 -0.40131923814E+02  0.22432200150E+02 -0.30666494599E+02  0.55264896667E+02  0.00000000000E+00 0.  1.
         21    1    1    2  504  503 -0.28688202306E+01  0.42339099252E+02 -0.37516448110E+02  0.56641975017E+02  0.00000000000E+00 0.  1.
         21    1    1    2  505  502  0.15135162373E+03 -0.44461625182E+02 -0.17740531914E+03  0.23739586639E+03  0.00000000000E+00 0.  1.
         21    1    1    2  506  501 -0.10835087969E+03 -0.20309674221E+02  0.14931670951E+03  0.18560138937E+03  0.00000000000E+00 0.  1.
<scales pt_clust_3="88.73688" pt_clust_4="41.09709" pt_clust_5="112.82476" pt_clust_6="14000.00000"></scales>
<clustering>
<clus scale="   41.097">  3  4 -1 -1</clus>
<clus scale="   88.737">  2  3  1 -1</clus>
<clus scale="  112.825">  2  5  1 -1</clus>
<clus scale="  112.825">  1  3  2 -1</clus>
</clustering>
</event>
<event>
 6    0  0.8777103E+002  0.1127888E+03  0.7546771E-02  0.1255491E+00
         21   -1    0    0  506  501  0.00000000000E+00  0.00000000000E+00  0.74251517209E+03  0.74251517209E+03  0.00000000000E+00 0.  1.
         21   -1    0    0  505  502 -0.00000000000E+00 -0.00000000000E+00 -0.88634138728E+02  0.88634138728E+02  0.00000000000E+00 0.  1.
         21    1    1    2  503  501 -0.95278509679E+01 -0.60397777793E+02  0.18236340121E+02  0.63806234863E+02  0.00000000000E+00 0.  1.
         21    1    1    2  504  502  0.84601033336E+02  0.72185666835E+01  0.55940548187E+02  0.10167982828E+03  0.00000000000E+00 0.  1.
         21    1    1    2  505  503 -0.60531920106E+02 -0.43253496450E+02 -0.33854794994E+01  0.74474423652E+02  0.00000000000E+00 0.  1.
         21    1    1    2  506  504 -0.14541262263E+02  0.96432707559E+02  0.58308962456E+03  0.59118882403E+03  0.00000000000E+00 0.  1.
<scales pt_clust_3="51.67464" pt_clust_4="84.90844" pt_clust_5="51.67464" pt_clust_6="97.32561"></scales>
<clustering>
<clus scale="   51.675">  3  5 -1 -1</clus>
<clus scale="   84.908">  2  4  1 -1</clus>
<clus scale="   97.326">  1  6  2 -1</clus>
<clus scale="   97.326">  1  3  2 -1</clus>
</clustering>
</event>
<event>
 6    0  0.8777103E+002  0.1007062E+03  0.7546771E-02  0.1278818E+00
         21   -1    0    0  506  501  0.00000000000E+00  0.00000000000E+00  0.35151660829E+03  0.35151660829E+03  0.00000000000E+00 0.  1.
         21   -1    0    0  505  502 -0.00000000000E+00 -0.00000000000E+00 -0.18218969017E+03  0.18218969017E+03  0.00000000000E+00 0.  1.
         21    1    1    2  503  502 -0.92320579567E+02  0.61833603551E+02 -0.51922782559E+02  0.12264770397E+03  0.00000000000E+00 0.  1.
         21    1    1    2  504  501 -0.20706037536E+02 -0.21762690802E+02  0.19134326061E+03  0.19368685573E+03  0.00000000000E+00 0.  1.
         21    1    1    2  505  504  0.81233137821E+02  0.55948130356E+02  0.55309383671E+02  0.11308467576E+03  0.00000000000E+00 0.  1.
         21    1    1    2  506  503  0.31793479282E+02 -0.96019043104E+02 -0.25402943602E+02  0.10428706299E+03  0.00000000000E+00 0.  1.
<scales pt_clust_3="14000.00000" pt_clust_4="30.03922" pt_clust_5="83.13339" pt_clust_6="100.70617"></scales>
<clustering>
<clus scale="   30.039">  1  4  2 -1</clus>
<clus scale="   83.133">  1  5  2 -1</clus>
<clus scale="  100.706">  1  6  2 -1</clus>
<clus scale="   30.039">  1  3  2 -1</clus>
</clustering>
</event>
<event>
 6    0  0.8777103E+002  0.9940261E+02  0.7546771E-02  0.1281557E+00
         21   -1    0    0  504  501  0.00000000000E+00  0.00000000000E+00  0.51009164682E+03  0.51009164682E+03  0.00000000000E+00 0.  1.
         21   -1    0    0  503  502 -0.00000000000E+00 -0.00000000000E+00 -0.51259432592E+02  0.51259432592E+02  0.00000000000E+00 0.  1.
         21    1    1    2  503  505  0.30940458207E+02 -0.40536455365E+01  0.29340977571E+01  0.31342509884E+02  0.00000000000E+00 0.  1.
         21    1    1    2  504  502 -0.87494169748E+02  0.71266160467E+02  0.11639802299E+03  0.16211907699E+03  0.00000000000E+00 0.  1.
         21    1    1    2  505  506  0.86875305232E+02 -0.47008636246E+02  0.19155499613E+03  0.21552365782E+03  0.00000000000E+00 0.  1.
         21    1    1    2  506  501 -0.30321593691E+02 -0.20203878684E+02  0.14794509735E+03  0.15236583471E+03  0.00000000000E+00 0.  1.
<scales pt_clust_3="31.20487" pt_clust_4="14000.00000" pt_clust_5="99.40261" pt_clust_6="35.05577"></scales>
<clustering>
<clus scale="   31.205">  2  3  1 -1</clus>
<clus scale="   35.056">  1  6  2 -1</clus>
<clus scale="   99.403">  1  5  2 -1</clus>
<clus scale="   35.056">  1  3  2 -1</clus>
</clustering>
</event>
<event>
 6    0  0.8777103E+002  0.1222157E+03  0.7546771E-02  0.1239486E+00
         21   -1    0    0  504  501  0.00000000000E+00  0.00000000000E+00  0.72870940429E+03  0.72870940429E+03  0.00000000000E+00 0.  1.
         21   -1    0    0  506  502 -0.00000000000E+00 -0.00000000000E+00 -0.24840476544E+03  0.24840476544E+03  0.00000000000E+00 0.  1.
         21    1    1    2  503  505  0.80194059666E+01  0.73013569572E+02  0.27575685971E+03  0.28537192906E+03  0.00000000000E+00 0.  1.
         21    1    1    2  504  503 -0.30510554264E+02 -0.11058445219E+02  0.32155039618E+03  0.32318391113E+03  0.00000000000E+00 0.  1.
         21    1    1    2  505  502  0.14204662767E+02  0.69391826363E+02  0.95319765163E+02  0.11875544468E+03  0.00000000000E+00 0.  1.
         21    1    1    2  506  501  0.82864855303E+01 -0.13134695072E+03 -0.21232238220E+03  0.24980288487E+03  0.00000000000E+00 0.  1.
<scales pt_clust_3="66.66726" pt_clust_4="32.45278" pt_clust_5="122.21565" pt_clust_6="14000.00000"></scales>
<clustering>
<clus scale="   32.453">  1  4  2 -1</clus>
<clus scale="   66.667">  1  3  2 -1</clus>
<clus scale="  122.216">  1  5  2 -1</clus>
<clus scale="   32.453">  1  3  2 -1</clus>
</clustering>
</event>
<event>
 6    0  0.8777103E+002  0.7896239E+02  0.7546771E-02  0.1332022E+00
         21   -1    0    0  506  501  0.00000000000E+00  0.00000000000E+00  0.13647196138E+04  0.13647196138E+04  0.00000000000E+00 0.  1.
         21   -1    0    0  504  502 -0.00000000000E+00 -0.00000000000E+00 -0.35155671210E+02  0.35155671210E+02  0.00000000000E+00 0. -1.
         21    1    1    2  503  501  0.62152676941E+02 -0.11967842382E+02  0.10258392838E+04  0.10277900665E+04  0.00000000000E+00 0.  1.
         21    1    1    2  504  505 -0.37294269767E+02  0.22739110203E+02  0.84385999501E+02  0.95020664079E+02  0.00000000000E+00 0.  1.
         21    1    1    2  505  503 -0.58184675264E+02 -0.72379495392E+02  0.16119363586E+03  0.18603127702E+03  0.00000000000E+00 0.  1.
         21    1    1    2  506  502  0.33326268091E+02  0.61608227571E+02  0.58145023336E+02  0.91033277367E+02  0.00000000000E+00 0. -1.
<scales pt_clust_3="61.95876" pt_clust_4="43.67985" pt_clust_5="78.96239" pt_clust_6="14000.00000"></scales>
<clustering>
<clus scale="   43.680">  2  4  1 -1</clus>
<clus scale="   61.959">  1  3  2 -1</clus>
<clus scale="   78.962">  1  5  2 -1</clus>
<clus scale="   61.959">  1  3  2 -1</clus>
</clustering>
</event>
<event>
 6    0  0.8777103E+002  0.1053617E+03  0.7546771E-02  0.1269409E+00
         21   -1    0    0  503  501  0.00000000000E+00  0.00000000000E+00  0.35910904139E+02  0.35910904139E+02  0.00000000000E+00 0.  1.
         21   -1    0    0  505  502 -0.00000000000E+00 -0.00000000000E+00 -0.21745350471E+04  0.21745350471E+04  0.00000000000E+00 0.  1.
         21    1    1    2  503  506 -0.21375019203E+02  0.21422784697E+02  0.13469243318E+02  0.33124728914E+02  0.00000000000E+00 0.  1.
         21    1    1    2  504  501  0.17037969342E+01 -0.11042427385E+03 -0.53480726761E+03  0.54609086851E+03  0.00000000000E+00 0. -1.
         21    1    1    2  505  504  0.36545503526E+02 -0.87887781358E+01 -0.12560307421E+04  0.12565930294E+04  0.00000000000E+00 0.  1.
         21    1    1    2  506  502 -0.16874281258E+02  0.97790267290E+02 -0.36125537664E+03  0.37463732448E+03  0.00000000000E+00 0. -1.
<scales pt_clust_3="30.26264" pt_clust_4="105.36168" pt_clust_5="37.01428" pt_clust_6="14000.00000"></scales>
<clustering>
<clus scale="   30.263">  1  3  2 -1</clus>
<clus scale="   37.014">  2  5  1 -1</clus>
<clus scale="  105.362">  1  4  2 -1</clus>
<clus scale="   30.263">  1  3  2 -1</clus>
</clustering>
</event>
<event>
 6    0  0.8777103E+002  0.9987946E+02  0.7546771E-02  0.1280550E+00
         21   -1    0    0  503  501  0.00000000000E+00  0.00000000000E+00  0.21183696470E+03  0.21183696470E+03  0.00000000000E+00 0.  1.
         21   -1    0    0  506  502 -0.00000000000E+00 -0.00000000000E+00 -0.14866462267E+04  0.14866462267E+04  0.00000000000E+00 0.  1.
         21    1    1    2  503  502 -0.34368373041E+02 -0.12756029703E+02  0.16525127239E+03  0.16926867515E+03  0.00000000000E+00 0.  1.
         21    1    1    2  504  501 -0.76795061989E+02  0.25328470147E+02 -0.70678298520E+01  0.81172453239E+02  0.00000000000E+00 0.  1.
         21    1    1    2  505  504  0.74069337332E+02  0.70654918522E+02 -0.48526339237E+03  0.49594248076E+03  0.00000000000E+00 0. -1.
         21    1    1    2  506  505  0.37094097698E+02 -0.83227358966E+02 -0.94772931213E+03  0.95209958220E+03  0.00000000000E+00 0.  1.
<scales pt_clust_3="36.65926" pt_clust_4="99.87946" pt_clust_5="14000.00000" pt_clust_6="91.02248"></scales>
<clustering>
<clus scale="   36.659">  1  3  2 -1</clus>
<clus scale="   91.022">  2  6  1 -1</clus>
<clus scale="   99.879">  1  4  2 -1</clus>
<clus scale="   36.659">  1  3  2 -1</clus>
</clustering>
</event>
<event>
 6    0  0.8777103E+002  0.1697966E+03  0.7546771E-02  0.1178060E+00
         21   -1    0    0  505  501  0.00000000000E+00  0.00000000000E+00  0.14315991933E+03  0.14315991933E+03  0.00000000000E+00 0. -1.
         21   -1    0    0  506  502 -0.00000000000E+00 -0.00000000000E+00 -0.15018608879E+04  0.15018608879E+04  0.00000000000E+00 0.  1.
         21    1    1    2  503  501  0.78232496966E+02  0.14596209011E+03  0.20787061739E+02  0.16690523439E+03  0.00000000000E+00 0.  1.
         21    1    1    2  504  503 -0.53395737916E+01 -0.21705475573E+03 -0.45919996409E+03  0.50794279703E+03  0.00000000000E+00 0. -1.
         21    1    1    2  505  502 -0.22702432670E+02  0.12512348374E+03 -0.15124278580E+03  0.19759976439E+03  0.00000000000E+00 0.  1.
         21    1    1    2  506  504 -0.50190490504E+02 -0.54030818114E+02 -0.76904528038E+03  0.77257301139E+03  0.00000000000E+00 0. -1.
<scales pt_clust_3="14000.00000" pt_clust_4="169.79655" pt_clust_5="117.46748" pt_clust_6="73.74561"></scales>
<clustering>
<clus scale="   73.746">  2  6  1 -1</clus>
<clus scale="  117.467">  2  5  1 -1</clus>
<clus scale="  169.797">  2  4  1 -1</clus>
<clus scale="  169.797">  1  3  2 -1</clus>
</clustering>
</event>
<event>
 6    0  0.8777103E+002  0.8160693E+02  0.7546771E-02  0.1324552E+00
         21   -1    0    0  504  501  0.00000000000E+00  0.00000000000E+00  0.21959621823E+03  0.21959621823E+03  0.00000000000E+00 0. -1.
         21   -1    0    0  506  502 -0.00000000000E+00 -0.00000000000E+00 -0.97562439959E+02  0.97562439959E+02  0.00000000000E+00 0.  1.
         21    1    1    2  503  501 -0.94934122832E+02  0.53727693510E+01  0.11389953812E+03  0.14837270339E+03  0.00000000000E+00 0. -1.
         21    1    1    2  504  505  0.64088071408E+02 -0.10371793628E+02  0.27097262577E+02  0.70349958344E+02  0.00000000000E+00 0. -1.
         21    1    1    2  505  502  0.36342443363E+02 -0.35899034137E+02 -0.24755425352E+02  0.56765702021E+02  0.00000000000E+00 0.  1.
         21    1    1    2  506  503 -0.54963919392E+01  0.40898058413E+02  0.57924029289E+01  0.41670294432E+02  0.00000000000E+00 0. -1.
<scales pt_clust_3="14000.00000" pt_clust_4="81.60693" pt_clust_5="36.71591" pt_clust_6="41.26574"></scales>
<clustering>
<clus scale="   41.266">  2  6  1 -1</clus>
<clus scale="   36.716">  2  5  1 -1</clus>
<clus scale="   81.607">  2  4  1 -1</clus>
<clus scale="   81.607">  1  3  2 -1</clus>
</clustering>
</event>
<event>
 6    0  0.8777103E+002  0.6940699E+02  0.7546771E-02  0.1362121E+00
         21   -1    0    0  503  501  0.00000000000E+00  0.00000000000E+00  0.17343057745E+04  0.17343057745E+04  0.00000000000E+00 0. -1.
         21   -1    0    0  505  502 -0.00000000000E+00 -0.00000000000E+00 -0.16190984404E+02  0.16190984404E+02  0.00000000000E+00 0. -1.
         21    1    1    2  503  504  0.70703539459E+02 -0.42455835800E+02  0.96029718267E+03  0.96383202246E+03  0.00000000000E+00 0. -1.
         21    1    1    2  504  502  0.30050060259E+02  0.44860282761E+02  0.19916552922E+03  0.20635493481E+03  0.00000000000E+00 0. -1.
         21    1    1    2  505  506 -0.90243947087E+02 -0.30583130760E+02  0.21287758571E+03  0.23322985308E+03  0.00000000000E+00 0. -1.
         21    1    1    2  506  501 -0.10509652632E+02  0.28178683799E+02  0.34577449247E+03  0.34707994852E+03  0.00000000000E+00 0.  1.
<scales pt_clust_3="14000.00000" pt_clust_4="56.67304" pt_clust_5="69.40699" pt_clust_6="30.07476"></scales>
<clustering>
<clus scale="   30.075">  1  6  2 -1</clus>
<clus scale="   56.673">  2  4  1 -1</clus>
<clus scale="   69.407">  2  5  1 -1</clus>
<clus scale="   30.075">  1  3  2 -1</clus>
</clustering>
</event>
<event>
 6    0  0.8777103E+002  0.7447096E+02  0.7546771E-02  0.1345517E+00
         21   -1    0    0  504  501  0.00000000000E+00  0.00000000000E+00  0.26175717196E+03  0.26175717196E+03  0.00000000000E+00 0. -1.
         21   -1    0    0  505  502 -0.00000000000E+00 -0.00000000000E+00 -0.53816835353E+03  0.53816835353E+03  0.00000000000E+00 0.  1.
         21    1    1    2  503  502  0.67717915446E+02 -0.32513811529E+02 -0.42332225480E+03  0.42993557125E+03  0.00000000000E+00 0.  1.
         21    1    1    2  504  503 -0.21296532576E+02 -0.43128313248E+02  0.18791673026E+03  0.19397497575E+03  0.00000000000E+00 0. -1.
         21    1    1    2  505  506 -0.11485711301E+02  0.11593694346E+03 -0.17808965845E+02  0.11785777737E+03  0.00000000000E+00 0. -1.
         21    1    1    2  506  501 -0.34935671569E+02 -0.40294818685E+02 -0.23196691177E+02  0.58157201123E+02  0.00000000000E+00 0. -1.
<scales pt_clust_3="14000.00000" pt_clust_4="48.09983" pt_clust_5="74.47096" pt_clust_6="64.88826"></scales>
<clustering>
<clus scale="   48.100">  1  4  2 -1</clus>
<clus scale="   64.888">  1  6  2 -1</clus>
<clus scale="   74.471">  1  5  2 -1</clus>
<clus scale="   48.100">  1  3  2 -1</clus>
</clustering>
</event>
<event>
 6    0  0.8777103E+002  0.8254863E+02  0.7546771E-02  0.1321971E+00
         21   -1    0    0  505  501  0.00000000000E+00  0.00000000000E+00  0.15696244373E+04  0.15696244373E+04  0.00000000000E+00 0. -1.
         21   -1    0    0  503  502 -0.00000000000E+00 -0.00000000000E+00 -0.63685002574E+02  0.63685002574E+02  0.00000000000E+00 0. -1.
         21    1    1    2  503  501  0.53644085410E+02 -0.96972411238E+02  0.39243505441E+03  0.40778255035E+03  0.00000000000E+00 0. -1.
         21    1    1    2  504  502 -0.27794217423E+02  0.27325362976E+02 -0.45778628355E+02  0.60123845502E+02  0.00000000000E+00 0. -1.
         21    1    1    2  505  506  0.31474400335E+02  0.21766565657E+02  0.59023821586E+03  0.59147744903E+03  0.00000000000E+00 0. -1.
         21    1    1    2  506  504 -0.57324268322E+02  0.47880482605E+02  0.56904479284E+03  0.57392559501E+03  0.00000000000E+00 0. -1.
<scales pt_clust_3="14000.00000" pt_clust_4="38.92516" pt_clust_5="38.26776" pt_clust_6="82.54863"></scales>
<clustering>
<clus scale="   38.268">  1  5  2 -1</clus>
<clus scale="   38.925">  2  4  1 -1</clus>
<clus scale="   82.549">  1  6  2 -1</clus>
<clus scale="   38.268">  1  3  2 -1</clus>
</clustering>
</event>
<event>
 6    0  0.8777103E+002  0.1796102E+03  0.7546771E-02  0.1168181E+00
         21   -1    0    0  503  501  0.00000000000E+00  0.00000000000E+00  0.11438505923E+03  0.11438505923E+03  0.00000000000E+00 0.  1.
         21   -1    0    0  505  502 -0.00000000000E+00 -0.00000000000E+00 -0.62356013964E+03  0.62356013964E+03  0.00000000000E+00 0.  1.
         21    1    1    2  503  502  0.14211719190E+03  0.68718011476E+02 -0.13880065756E+03  0.21020248303E+03  0.00000000000E+00 0.  1.
         21    1    1    2  504  501  0.14026401368E+01  0.37288969277E+02  0.53005531626E+02  0.64822997555E+02  0.00000000000E+00 0.  1.
         21    1    1    2  505  506 -0.12168809435E+03 -0.72382832096E+02 -0.27619038147E+03  0.31036815801E+03  0.00000000000E+00 0.  1.
         21    1    1    2  506  504 -0.21831737684E+02 -0.33624148658E+02 -0.14718957300E+03  0.15255156028E+03  0.00000000000E+00 0.  1.
<scales pt_clust_3="170.44403" pt_clust_4="37.31534" pt_clust_5="30.14157" pt_clust_6="30.14157"></scales>
<clustering>
<clus scale="   30.142">  5  6 -1 -1</clus>
<clus scale="   37.315">  1  4  2 -1</clus>
<clus scale="  170.444">  1  3  2 -1</clus>
<clus scale="   37.315">  1  3  2 -1</clus>
</clustering>
</event>
<event>
 6    0  0.8777103E+002  0.7433442E+02  0.7546771E-02  0.1345945E+00
         21   -1    0    0  503  501  0.00000000000E+00  0.00000000000E+00  0.25998845636E+03  0.25998845636E+03  0.00000000000E+00 0.  1.
         21   -1    0    0  504  502 -0.00000000000E+00 -0.00000000000E+00 -0.11451990952E+03  0.11451990952E+03  0.00000000000E+00 0. -1.
         21    1    1    2  503  506  0.15922930207E+02  0.66927902127E+02  0.14041390799E+03  0.15636159806E+03  0.00000000000E+00 0.  1.
         21    1    1    2  504  501 -0.19045781179E+02 -0.31468787992E+02  0.42190748482E+02  0.55973973023E+02  0.00000000000E+00 0.  1.
         21    1    1    2  505  502  0.18108604105E+02  0.59187812464E+02 -0.17934663429E+02  0.64441995928E+02  0.00000000000E+00 0.  1.
         21    1    1    2  506  505 -0.14985753133E+02 -0.94646926599E+02 -0.19201446200E+02  0.97730798870E+02  0.00000000000E+00 0. -1.
<scales pt_clust_3="44.85832" pt_clust_4="36.78351" pt_clust_5="74.33442" pt_clust_6="14000.00000"></scales>
<clustering>
<clus scale="   36.784">  1  4  2 -1</clus>
<clus scale="   44.858">  1  3  2 -1</clus>
<clus scale="   74.334">  2  5  1 -1</clus>
<clus scale="   36.784">  1  3  2 -1</clus>
</clustering>
</event>
<event>
 6    0  0.8777103E+002  0.1150116E+03  0.7546771E-02  0.1251561E+00
         21   -1    0    0  503  501  0.00000000000E+00  0.00000000000E+00  0.22889979481E+03  0.22889979481E+03  0.00000000000E+00 0. -1.
         21   -1    0    0  505  502 -0.00000000000E+00 -0.00000000000E+00 -0.75250613492E+03  0.75250613492E+03  0.00000000000E+00 0. -1.
         21    1    1    2  503  502 -0.43630687346E+01  0.89260636665E+02 -0.16562015128E+03  0.18819280575E+03  0.00000000000E+00 0. -1.
         21    1    1    2  504  501  0.15249780508E+02  0.46994907002E+02  0.19878905574E+03  0.20483692483E+03  0.00000000000E+00 0. -1.
         21    1    1    2  505  506  0.30397366142E+02  0.73441175764E+01 -0.18627828322E+03  0.18888497751E+03  0.00000000000E+00 0. -1.
         21    1    1    2  506  504 -0.41284077915E+02 -0.14359966124E+03 -0.37049696136E+03  0.39949122165E+03  0.00000000000E+00 0. -1.
<scales pt_clust_3="115.01164" pt_clust_4="49.49508" pt_clust_5="31.27197" pt_clust_6="14000.00000"></scales>
<clustering>
<clus scale="   31.272">  2  5  1 -1</clus>
<clus scale="   49.495">  1  4  2 -1</clus>
<clus scale="  115.012">  2  3  1 -1</clus>
<clus scale="   49.495">  1  3  2 -1</clus>
</clustering>
</event>
<event>
 6    0  0.8777103E+002  0.8112294E+02  0.7546771E-02  0.1325895E+00
         21   -1    0    0  504  501  0.00000000000E+00  0.00000000000E+00  0.44257021637E+03  0.44257021637E+03  0.00000000000E+00 0.  1.
         21   -1    0    0  503  502 -0.00000000000E+00 -0.00000000000E+00 -0.30485899560E+03  0.30485899560E+03  0.00000000000E+00 0. -1.
         21    1    1    2  503  506 -0.53631424534E+02  0.70365271660E+02 -0.25815615096E+03  0.27289594983E+03  0.00000000000E+00 0. -1.
         21    1    1    2  504  505 -0.17339316047E+02 -0.71420737889E+02  0.25055811163E+03  0.26111480422E+03  0.00000000000E+00 0.  1.
         21    1    1    2  505  502  0.44298588783E+02 -0.35236508541E+02 -0.46954913647E+01  0.56798099805E+02  0.00000000000E+00 0.  1.
         21    1    1    2  506  501  0.26672151798E+02  0.36291974770E+02  0.15000475146E+03  0.15662035811E+03  0.00000000000E+00 0.  1.
<scales pt_clust_3="14000.00000" pt_clust_4="39.81576" pt_clust_5="81.12294" pt_clust_6="45.03900"></scales>
<clustering>
<clus scale="   45.039">  1  6  2 -1</clus>
<clus scale="   39.816">  1  4  2 -1</clus>
<clus scale="   81.123">  1  5  2 -1</clus>
<clus scale="   45.039">  1  3  2 -1</clus>
</clustering>
</event>
<event>
 6    0  0.8777103E+002  0.1271818E+03  0.7546771E-02  0.1231698E+00
         21   -1    0    0  503  501  0.00000000000E+00  0.00000000000E+00  0.50219551257E+02  0.50219551257E+02  0.00000000000E+00 0. -1.
         21   -1    0    0  506  502 -0.00000000000E+00 -0.00000000000E+00 -0.70533312107E+03  0.70533312107E+03  0.00000000000E+00 0. -1.
         21    1    1    2  503  504 -0.27582470303E+02  0.34189282349E+02 -0.57772221882E+02  0.72576368859E+02  0.00000000000E+00 0. -1.
         21    1    1    2  504  502 -0.55943805472E+02 -0.68326444400E+01 -0.46730702008E+02  0.73213065165E+02  0.00000000000E+00 0. -1.
         21    1    1    2  505  501 -0.33670130326E+02  0.19830008246E+02  0.55190423939E+01  0.39463486062E+02  0.00000000000E+00 0. -1.
         21    1    1    2  506  505  0.11719640610E+03 -0.47186646156E+02 -0.55612968832E+03  0.57029975224E+03  0.00000000000E+00 0. -1.
<scales pt_clust_3="44.13592" pt_clust_4="44.13592" pt_clust_5="39.07566" pt_clust_6="116.47550"></scales>
<clustering>
<clus scale="   39.076">  1  5  2 -1</clus>
<clus scale="   44.136">  3  4 -1 -1</clus>
<clus scale="  116.476">  2  6  1 -1</clus>
<clus scale="   39.076">  1  3  2 -1</clus>
</clustering>
</event>
<event>
 6    0  0.8777103E+002  0.6865546E+02  0.7546771E-02  0.1364726E+00
         21   -1    0    0  503  501  0.00000000000E+00  0.00000000000E+00  0.11211333782E+04  0.11211333782E+04  0.00000000000E+00 0. -1.
         21   -1    0    0  505  502 -0.00000000000E+00 -0.00000000000E+00 -0.22129906109E+03  0.22129906109E+03  0.00000000000E+00 0. -1.
         21    1    1    2  503  504  0.22907721091E+02 -0.35612408973E+02  0.10112414391E+04  0.10121275885E+04  0.00000000000E+00 0. -1.
         21    1    1    2  504  502 -0.11844187274E+03 -0.37587037664E+02 -0.13785257781E+03  0.18559255327E+03  0.00000000000E+00 0. -1.
         21    1    1    2  505  506  0.51546830622E+02  0.27936378815E+02 -0.24556603481E+02  0.63565271832E+02  0.00000000000E+00 0. -1.
         21    1    1    2  506  501  0.43987321028E+02  0.45263067823E+02  0.51002059379E+02  0.81147025706E+02  0.00000000000E+00 0. -1.
<scales pt_clust_3="42.34392" pt_clust_4="68.65546" pt_clust_5="59.67184" pt_clust_6="14000.00000"></scales>
<clustering>
<clus scale="   42.344">  1  3  2 -1</clus>
<clus scale="   59.672">  2  5  1 -1</clus>
<clus scale="   68.655">  2  4  1 -1</clus>
<clus scale="   42.344">  1  3  2 -1</clus>
</clustering>
</event>
<event>
 6    0  0.8777103E+002  0.5914243E+02  0.7546771E-02  0.1401466E+00
         21   -1    0    0  505  501  0.00000000000E+00  0.00000000000E+00  0.15308288543E+02  0.15308288543E+02  0.00000000000E+00 0.  1.
         21   -1    0    0  503  502 -0.00000000000E+00 -0.00000000000E+00 -0.21385948220E+04  0.21385948220E+04  0.00000000000E+00 0.  1.
         21    1    1    2  503  506 -0.27660567754E+02 -0.51299295686E+02 -0.14472652800E+04  0.14484383023E+04  0.00000000000E+00 0.  1.
         21    1    1    2  504  501  0.49716335643E+02  0.12405387671E+02 -0.12593263032E+03  0.13595821068E+03  0.00000000000E+00 0.  1.
         21    1    1    2  505  502  0.95271797593E+01 -0.50943424723E+02 -0.17447082350E+03  0.18200568104E+03  0.00000000000E+00 0.  1.
         21    1    1    2  506  504 -0.31582947648E+02  0.89837332738E+02 -0.37561779960E+03  0.38750091653E+03  0.00000000000E+00 0.  1.
<scales pt_clust_3="14000.00000" pt_clust_4="51.24068" pt_clust_5="54.05289" pt_clust_6="59.14243"></scales>
<clustering>
<clus scale="   51.241">  1  4  2 -1</clus>
<clus scale="   54.053">  1  5  2 -1</clus>
<clus scale="   59.142">  1  6  2 -1</clus>
<clus scale="   51.241">  1  3  2 -1</clus>
</clustering>
</event>
<event>
 6    0  0.8777103E+002  0.1366847E+03  0.7546771E-02  0.1217861E+00
         21   -1    0    0  505  501  0.00000000000E+00  0.00000000000E+00  0.62216147916E+02  0.62216147916E+02  0.00000000000E+00 0.  1.
         21   -1    0    0  506  502 -0.00000000000E+00 -0.00000000000E+00 -0.16485754346E+04  0.16485754346E+04  0.00000000000E+00 0.  1.
         21    1    1    2  503  501 -0.55907742092E+02 -0.60556838756E+02 -0.27733837582E+02  0.86959600350E+02  0.00000000000E+00 0.  1.
         21    1    1    2  504  502  0.10761618475E+03 -0.65389802205E+02 -0.11676935744E+04  0.11744638578E+04  0.00000000000E+00 0.  1.
         21    1    1    2  505  504 -0.37743702617E+02  0.16294555679E+03 -0.23465108963E+03  0.28816137047E+03  0.00000000000E+00 0.  1.
         21    1    1    2  506  503 -0.13964740046E+02 -0.36998915833E+02 -0.15628078508E+03  0.16120675396E+03  0.00000000000E+00 0.  1.
<scales pt_clust_3="83.83146" pt_clust_4="136.68468" pt_clust_5="14000.00000" pt_clust_6="39.54660"></scales>
<clustering>
<clus scale="   39.547">  2  6  1 -1</clus>
<clus scale="   83.831">  1  3  2 -1</clus>
<clus scale="  136.685">  2  4  1 -1</clus>
<clus scale="   83.831">  1  3  2 -1</clus>
</clustering>
</event>
<event>
 6    0  0.8777103E+002  0.7809229E+02  0.7546771E-02  0.1334554E+00
         21   -1    0    0  504  501  0.00000000000E+00  0.00000000000E+00  0.34863269393E+03  0.34863269393E+03  0.00000000000E+00 0. -1.
         21   -1    0    0  503  502 -0.00000000000E+00 -0.00000000000E+00 -0.30396196091E+03  0.30396196091E+03  0.00000000000E+00 0. -1.
         21    1    1    2  503  501 -0.64724134989E+02  0.20756647844E+02  0.12066254158E+03  0.13849007553E+03  0.00000000000E+00 0. -1.
         21    1    1    2  504  506  0.49939151989E+02  0.54468004253E+02  0.16893400626E+03  0.18438921026E+03  0.00000000000E+00 0. -1.
         21    1    1    2  505  502  0.84331742475E+01  0.28886399456E+02 -0.22055897825E+03  0.22260234812E+03  0.00000000000E+00 0. -1.
         21    1    1    2  506  505  0.63518087526E+01 -0.10411105155E+03 -0.24366836559E+02  0.10711302093E+03  0.00000000000E+00 0. -1.
<scales pt_clust_3="68.13433" pt_clust_4="78.09229" pt_clust_5="30.09223" pt_clust_6="14000.00000"></scales>
<clustering>
<clus scale="   30.092">  2  5  1 -1</clus>
<clus scale="   68.134">  1  3  2 -1</clus>
<clus scale="   78.092">  1  4  2 -1</clus>
<clus scale="   68.134">  1  3  2 -1</clus>
</clustering>
</event>
<event>
 6    0  0.8777103E+002  0.1584898E+03  0.7546771E-02  0.1190412E+00
         21   -1    0    0  506  501  0.00000000000E+00  0.00000000000E+00  0.23977838401E+03  0.23977838401E+03  0.00000000000E+00 0. -1.
         21   -1    0    0  503  502 -0.00000000000E+00 -0.00000000000E+00 -0.29559839326E+03  0.29559839326E+03  0.00000000000E+00 0. -1.
         21    1    1    2  503  504  0.31183344841E+01  0.53542076161E+02 -0.73685652401E+02  0.91137551533E+02  0.00000000000E+00 0.  1.
         21    1    1    2  504  505  0.13344461339E+03 -0.66401332759E+02 -0.11802003445E+02  0.14951885875E+03  0.00000000000E+00 0. -1.
         21    1    1    2  505  501  0.31943550280E+02 -0.38486292480E+01  0.10468259760E+03  0.10951551759E+03  0.00000000000E+00 0. -1.
         21    1    1    2  506  502 -0.16850649816E+03  0.16707885845E+02 -0.75014951010E+02  0.18520484941E+03  0.00000000000E+00 0. -1.
<scales pt_clust_3="53.54394" pt_clust_4="158.48979" pt_clust_5="32.17456" pt_clust_6="14000.00000"></scales>
<clustering>
<clus scale="   32.175">  1  5  2 -1</clus>
<clus scale="   53.544">  2  3  1 -1</clus>
<clus scale="  158.490">  1  4  2 -1</clus>
<clus scale="   32.175">  1  3  2 -1</clus>
</clustering>
</event>
<event>
 6    0  0.8777103E+002  0.1461244E+03  0.7546771E-02  0.1205318E+00
         21   -1    0    0  505  501  0.00000000000E+00  0.00000000000E+00  0.24239281965E+02  0.24239281965E+02  0.00000000000E+00 0. -1.
         21   -1    0    0  504  502 -0.00000000000E+00 -0.00000000000E+00 -0.12844459837E+04  0.12844459837E+04  0.00000000000E+00 0. -1.
         21    1    1    2  503  506  0.89114957774E+02 -0.17532339044E+02 -0.28466999646E+03  0.29880740535E+03  0.00000000000E+00 0. -1.
         21    1    1    2  504  501 -0.11682547351E+03  0.84728581613E+02 -0.80955470547E+03  0.82231742348E+03  0.00000000000E+00 0. -1.
         21    1    1    2  505  503 -0.70427736538E+01 -0.31764067772E+02 -0.36518452767E+02  0.48909651958E+02  0.00000000000E+00 0. -1.
         21    1    1    2  506  502  0.34753289394E+02 -0.35432174797E+02 -0.12946354704E+03  0.13865078487E+03  0.00000000000E+00 0. -1.
<scales pt_clust_3="30.60876" pt_clust_4="140.13514" pt_clust_5="32.53547" pt_clust_6="30.60876"></scales>
<clustering>
<clus scale="   30.609">  3  6 -1 -1</clus>
<clus scale="   32.535">  1  5  2 -1</clus>
<clus scale="  140.135">  2  4  1 -1</clus>
<clus scale="   32.535">  1  3  2 -1</clus>
</clustering>
</event>
<event>
 6    0  0.8777103E+002  0.1042185E+03  0.7546771E-02  0.1271667E+00
         21   -1    0    0  504  501  0.00000000000E+00  0.00000000000E+00  0.14762299900E+04  0.14762299900E+04  0.00000000000E+00 0.  1.
         21   -1    0    0  506  502 -0.00000000000E+00 -0.00000000000E+00 -0.13093524033E+03  0.13093524033E+03  0.00000000000E+00 0. -1.
         21    1    1    2  503  501 -0.57628637405E+02  0.16634136654E+02  0.16451905754E+03  0.17511217732E+03  0.00000000000E+00 0.  1.
         21    1    1    2  504  502  0.66542308480E+02  0.36364033238E+02  0.52810211126E+02  0.92407467936E+02  0.00000000000E+00 0. -1.
         21    1    1    2  505  503 -0.64833794600E+02 -0.26662078212E+02  0.12236914280E+04  0.12256977598E+04  0.00000000000E+00 0.  1.
         21    1    1    2  506  505  0.55920123526E+02 -0.26336091680E+02 -0.95725947050E+02  0.11394782525E+03  0.00000000000E+00 0. -1.
<scales pt_clust_3="59.98128" pt_clust_4="14000.00000" pt_clust_5="104.21848" pt_clust_6="61.39842"></scales>
<clustering>
<clus scale="   59.981">  1  3  2 -1</clus>
<clus scale="   61.398">  2  6  1 -1</clus>
<clus scale="  104.218">  1  5  2 -1</clus>
<clus scale="   59.981">  1  3  2 -1</clus>
</clustering>
</event>
<event>
 6    0  0.8777103E+002  0.9959484E+02  0.7546771E-02  0.1281150E+00
         21   -1    0    0  505  501  0.00000000000E+00  0.00000000000E+00  0.14644346597E+03  0.14644346597E+03  0.00000000000E+00 0. -1.
         21   -1    0    0  504  502 -0.00000000000E+00 -0.00000000000E+00 -0.69403005535E+03  0.69403005535E+03  0.00000000000E+00 0. -1.
         21    1    1    2  503  506  0.76084959681E+02  0.50742873636E+02 -0.47288457961E+03  0.48164674394E+03  0.00000000000E+00 0. -1.
         21    1    1    2  504  501  0.17484397559E+02  0.31231115889E+02  0.65153212083E+01  0.36380436613E+02  0.00000000000E+00 0.  1.
         21    1    1    2  505  503 -0.11376198729E+03 -0.55587524547E+02  0.85285276827E+02  0.15266086952E+03  0.00000000000E+00 0. -1.
         21    1    1    2  506  502  0.20192630052E+02 -0.26386464977E+02 -0.16650260781E+03  0.16978547125E+03  0.00000000000E+00 0. -1.
<scales pt_clust_3="99.59484" pt_clust_4="35.42919" pt_clust_5="14000.00000" pt_clust_6="33.22631"></scales>
<clustering>
<clus scale="   33.226">  2  6  1 -1</clus>
<clus scale="   35.429">  1  4  2 -1</clus>
<clus scale="   99.595">  2  3  1 -1</clus>
<clus scale="   35.429">  1  3  2 -1</clus>
</clustering>
</event>
<event>
 6    0  0.8777103E+002  0.1238576E+03  0.7546771E-02  0.1236866E+00
         21   -1    0    0  506  501  0.00000000000E+00  0.00000000000E+00  0.13061350126E+04  0.13061350126E+04  0.00000000000E+00 0.  1.
         21   -1    0    0  504  502 -0.00000000000E+00 -0.00000000000E+00 -0.18865489373E+03  0.18865489373E+03  0.00000000000E+00 0.  1.
         21    1    1    2  503  501  0.13000895814E+02  0.12830731542E+03  0.10653164465E+04  0.10730940880E+04  0.00000000000E+00 0.  1.
         21    1    1    2  504  503 -0.35476831884E+02 -0.32437463344E+02  0.33058526032E+02  0.58340901365E+02  0.00000000000E+00 0.  1.
         21    1    1    2  505  502 -0.76085779084E+02 -0.14772001361E+01 -0.13656333490E+03  0.15633544811E+03  0.00000000000E+00 0.  1.
         21    1    1    2  506  505  0.98561715154E+02 -0.94392651944E+02  0.15566848116E+03  0.20701946880E+03  0.00000000000E+00 0.  1.
<scales pt_clust_3="14000.00000" pt_clust_4="48.07073" pt_clust_5="109.37309" pt_clust_6="123.85757"></scales>
<clustering>
<clus scale="   48.071">  2  4  1 -1</clus>
<clus scale="  109.373">  2  5  1 -1</clus>
<clus scale="  123.858">  2  6  1 -1</clus>
<clus scale="  123.858">  1  3  2 -1</clus>
</clustering>
</event>
<event>
 6    0  0.8777103E+002  0.1222821E+03  0.7546771E-02  0.1239379E+00
         21   -1    0    0  503  501  0.00000000000E+00  0.00000000000E+00  0.15401583593E+04  0.15401583593E+04  0.00000000000E+00 0.  1.
         21   -1    0    0  505  502 -0.00000000000E+00 -0.00000000000E+00 -0.83576949610E+02  0.83576949610E+02  0.00000000000E+00 0. -1.
         21    1    1    2  503  502  0.43267467201E+02 -0.67655863843E+02  0.57586582157E+02  0.98821071007E+02  0.00000000000E+00 0. -1.
         21    1    1    2  504  501  0.12450958303E+02 -0.57170221916E+02  0.13717426993E+04  0.13729899831E+04  0.00000000000E+00 0.  1.
         21    1    1    2  505  506 -0.45916747728E+00  0.51249715561E+02 -0.10753505924E+02  0.52367757920E+02  0.00000000000E+00 0. -1.
         21    1    1    2  506  504 -0.55259258027E+02  0.73576370198E+02  0.38005634215E+02  0.99556496931E+02  0.00000000000E+00 0. -1.
<scales pt_clust_3="106.30474" pt_clust_4="58.51035" pt_clust_5="45.10231" pt_clust_6="45.10231"></scales>
<clustering>
<clus scale="   45.102">  5  6 -1 -1</clus>
<clus scale="   58.510">  1  4  2 -1</clus>
<clus scale="  106.305">  1  3  2 -1</clus>
<clus scale="   58.510">  1  3  2 -1</clus>
</clustering>
</event>
<event>
 6    0  0.8777103E+002  0.7236194E+02  0.7546771E-02  0.1352240E+00
         21   -1    0    0  505  501  0.00000000000E+00  0.00000000000E+00  0.17157621466E+04  0.17157621466E+04  0.00000000000E+00 0. -1.
         21   -1    0    0  503  502 -0.00000000000E+00 -0.00000000000E+00 -0.14821737809E+04  0.14821737809E+04  0.00000000000E+00 0. -1.
         21    1    1    2  503  506 -0.62184779474E+02 -0.19590278658E+02 -0.14666392852E+04  0.14680877081E+04  0.00000000000E+00 0. -1.
         21    1    1    2  504  501 -0.88335277652E+01  0.48625174222E+02  0.12450346261E+04  0.12460151119E+04  0.00000000000E+00 0. -1.
         21    1    1    2  505  502  0.42208387941E+02 -0.84870360296E+02  0.20470057731E+03  0.22558114376E+03  0.00000000000E+00 0. -1.
         21    1    1    2  506  504  0.28809919298E+02  0.55835464732E+02  0.25049244739E+03  0.25825196373E+03  0.00000000000E+00 0. -1.
<scales pt_clust_3="65.18811" pt_clust_4="49.42104" pt_clust_5="14000.00000" pt_clust_6="72.36194"></scales>
<clustering>
<clus scale="   49.421">  1  4  2 -1</clus>
<clus scale="   65.188">  2  3  1 -1</clus>
<clus scale="   72.362">  2  6  1 -1</clus>
<clus scale="   49.421">  1  3  2 -1</clus>
</clustering>
</event>
<event>
 6    0  0.8777103E+002  0.1101617E+03  0.7546771E-02  0.1260271E+00
         21   -1    0    0  504  501  0.00000000000E+00  0.00000000000E+00  0.78212190532E+03  0.78212190532E+03  0.00000000000E+00 0.  1.
         21   -1    0    0  505  502 -0.00000000000E+00 -0.00000000000E+00 -0.11800556894E+03  0.11800556894E+03  0.00000000000E+00 0.  1.
         21    1    1    2  503  502 -0.94493210538E+02 -0.95269033980E+02  0.76353666116E+02  0.15438600326E+03  0.00000000000E+00 0.  1.
         21    1    1    2  504  503 -0.38995645596E+02  0.21654129461E+02  0.24971545161E+03  0.25366783097E+03  0.00000000000E+00 0.  1.
         21    1    1    2  505  506  0.86302710984E+00  0.63232684892E+02 -0.50789837194E+02  0.81109338652E+02  0.00000000000E+00 0.  1.
         21    1    1    2  506  501  0.13262582902E+03  0.10382219627E+02  0.38883705584E+03  0.41096430137E+03  0.00000000000E+00 0.  1.
<scales pt_clust_3="14000.00000" pt_clust_4="44.60450" pt_clust_5="63.85206" pt_clust_6="110.16171"></scales>
<clustering>
<clus scale="   44.605">  1  4  2 -1</clus>
<clus scale="   63.852">  2  5  1 -1</clus>
<clus scale="  110.162">  1  6  2 -1</clus>
<clus scale="   44.605">  1  3  2 -1</clus>
</clustering>
</event>
<event>
 6    0  0.8777103E+002  0.8393859E+02  0.7546771E-02  0.1318232E+00
         21   -1    0    0  505  501  0.00000000000E+00  0.00000000000E+00  0.33052392428E+03  0.33052392428E+03  0.00000000000E+00 0. -1.
         21   -1    0    0  504  502 -0.00000000000E+00 -0.00000000000E+00 -0.79118294166E+02  0.79118294166E+02  0.00000000000E+00 0. -1.
         21    1    1    2  503  502 -0.29438610170E+02 -0.75910652358E+02 -0.20079509361E+02  0.83858485595E+02  0.00000000000E+00 0. -1.
         21    1    1    2  504  501  0.78291550072E+01  0.10081218391E+03  0.15827509329E+03  0.18781745725E+03  0.00000000000E+00 0. -1.
         21    1    1    2  505  506 -0.20812088602E+02 -0.27916243764E+02  0.37822124297E+02  0.51409851042E+02  0.00000000000E+00 0. -1.
         21    1    1    2  506  503  0.42421543765E+02  0.30147122116E+01  0.75387921885E+02  0.86556424552E+02  0.00000000000E+00 0. -1.
<scales pt_clust_3="83.93859" pt_clust_4="14000.00000" pt_clust_5="34.82039" pt_clust_6="36.85340"></scales>
<clustering>
<clus scale="   34.820">  1  5  2 -1</clus>
<clus scale="   36.853">  1  6  2 -1</clus>
<clus scale="   83.939">  2  3  1 -1</clus>
<clus scale="   34.820">  1  3  2 -1</clus>
</clustering>
</event>
<event>
 6    0  0.8777103E+002  0.2502607E+03  0.7546771E-02  0.1113140E+00
         21   -1    0    0  503  501  0.00000000000E+00  0.00000000000E+00  0.68409546527E+02  0.68409546527E+02  0.00000000000E+00 0.  1.
         21   -1    0    0  504  502 -0.00000000000E+00 -0.00000000000E+00 -0.43059345719E+04  0.43059345719E+04  0.00000000000E+00 0. -1.
         21    1    1    2  503  505  0.43253188420E+02 -0.76894775037E+01 -0.36494816470E+02  0.57112503027E+02  0.00000000000E+00 0.  1.
         21    1    1    2  504  501 -0.29723879520E+02  0.52687694481E+01 -0.46810199047E+02  0.55699763734E+02  0.00000000000E+00 0.  1.
         21    1    1    2  505  506  0.91273322135E+02  0.22996368862E+03 -0.25870503849E+03  0.35796985118E+03  0.00000000000E+00 0.  1.
         21    1    1    2  506  502 -0.10480263104E+03 -0.22754298056E+03 -0.38955149714E+04  0.39035620005E+04  0.00000000000E+00 0. -1.
<scales pt_clust_3="39.06628" pt_clust_4="30.18723" pt_clust_5="250.26070" pt_clust_6="14000.00000"></scales>
<clustering>
<clus scale="   30.187">  1  4  2 -1</clus>
<clus scale="   39.066">  1  3  2 -1</clus>
<clus scale="  250.261">  1  5  2 -1</clus>
<clus scale="   30.187">  1  3  2 -1</clus>
</clustering>
</event>
<event>
 6    0  0.8777103E+002  0.8724880E+02  0.7546771E-02  0.1309654E+00
         21   -1    0    0  503  501  0.00000000000E+00  0.00000000000E+00  0.17425093143E+03  0.17425093143E+03  0.00000000000E+00 0.  1.
         21   -1    0    0  504  502 -0.00000000000E+00 -0.00000000000E+00 -0.28347530851E+03  0.28347530851E+03  0.00000000000E+00 0. -1.
         21    1    1    2  503  502  0.73905164554E+02 -0.43886961383E+02 -0.47480980045E+02  0.98196141437E+02  0.00000000000E+00 0.  1.
         21    1    1    2  504  505  0.30558567700E+02  0.27564749012E+02 -0.11605958932E+03  0.12314004109E+03  0.00000000000E+00 0. -1.
         21    1    1    2  505  506 -0.69118286078E+02  0.57661217439E+02 -0.61106806408E+02  0.10879427952E+03  0.00000000000E+00 0. -1.
         21    1    1    2  506  501 -0.35345446175E+02 -0.41339005068E+02  0.11542299869E+03  0.12759577788E+03  0.00000000000E+00 0.  1.
<scales pt_clust_3="87.24880" pt_clust_4="41.15388" pt_clust_5="14000.00000" pt_clust_6="52.87416"></scales>
<clustering>
<clus scale="   41.154">  2  4  1 -1</clus>
<clus scale="   52.874">  1  6  2 -1</clus>
<clus scale="   87.249">  1  3  2 -1</clus>
<clus scale="   52.874">  1  3  2 -1</clus>
</clustering>
</event>
<event>
 6    0  0.8777103E+002  0.1317946E+03  0.7546771E-02  0.1224817E+00
         21   -1    0    0  506  501  0.00000000000E+00  0.00000000000E+00  0.34272756361E+03  0.34272756361E+03  0.00000000000E+00 0. -1.
         21   -1    0    0  503  502 -0.00000000000E+00 -0.00000000000E+00 -0.62171944633E+03  0.62171944633E+03  0.00000000000E+00 0.  1.
         21    1    1    2  503  504  0.85305372542E+02 -0.80515809290E+02 -0.50420544260E+03  0.51767067763E+03  0.00000000000E+00 0.  1.
         21    1    1    2  504  505 -0.84763890403E+02  0.51319617880E+02 -0.86515177800E+01  0.99465919065E+02  0.00000000000E+00 0. -1.
         21    1    1    2  505  501 -0.43956915725E+02  0.26014480874E+02  0.27956651158E+03  0.28419429631E+03  0.00000000000E+00 0. -1.
         21    1    1    2  506  502  0.43415433586E+02  0.31817105361E+01 -0.45701433919E+02  0.63116116941E+02  0.00000000000E+00 0.  1.
<scales pt_clust_3="131.79458" pt_clust_4="14000.00000" pt_clust_5="50.93233" pt_clust_6="43.53186"></scales>
<clustering>
<clus scale="   43.532">  2  6  1 -1</clus>
<clus scale="   50.932">  1  5  2 -1</clus>
<clus scale="  131.795">  2  3  1 -1</clus>
<clus scale="   50.932">  1  3  2 -1</clus>
</clustering>
</event>
<event>
 6    0  0.8777103E+002  0.8779026E+02  0.7546771E-02  0.1308293E+00
         21   -1    0    0  504  501  0.00000000000E+00  0.00000000000E+00  0.65397582735E+03  0.65397582735E+03  0.00000000000E+00 0. -1.
         21   -1    0    0  506  502 -0.00000000000E+00 -0.00000000000E+00 -0.52353238928E+02  0.52353238928E+02  0.00000000000E+00 0. -1.
         21    1    1    2  503  501 -0.68200829822E+02  0.19004577642E+01  0.19191459176E+03  0.20368155405E+03  0.00000000000E+00 0. -1.
         21    1    1    2  504  505  0.14521535610E+03  0.48232726103E+02  0.30704820824E+03  0.34306340187E+03  0.00000000000E+00 0. -1.
         21    1    1    2  505  502 -0.59561766396E+02  0.68585211814E+01  0.35035892982E+02  0.69441753477E+02  0.00000000000E+00 0. -1.
         21    1    1    2  506  503 -0.17452759879E+02 -0.56991705049E+02  0.67623895434E+02  0.90142356889E+02  0.00000000000E+00 0. -1.
<scales pt_clust_3="14000.00000" pt_clust_4="87.79026" pt_clust_5="68.99494" pt_clust_6="59.60414"></scales>
<clustering>
<clus scale="   59.604">  2  6  1 -1</clus>
<clus scale="   68.995">  2  5  1 -1</clus>
<clus scale="   87.790">  2  4  1 -1</clus>
<clus scale="   87.790">  1  3  2 -1</clus>
</clustering>
</event>
<event>
 6    0  0.8777103E+002  0.8453541E+02  0.7546771E-02  0.1316652E+00
         21   -1    0    0  504  501  0.00000000000E+00  0.00000000000E+00  0.65449664584E+03  0.65449664584E+03  0.00000000000E+00 0. -1.
         21   -1    0    0  503  502 -0.00000000000E+00 -0.00000000000E+00 -0.52870052486E+03  0.52870052486E+03  0.00000000000E+00 0.  1.
         21    1    1    2  503  505 -0.96006000347E+01  0.76649638525E+02 -0.34679220501E+03  0.35529167182E+03  0.00000000000E+00 0.  1.
         21    1    1    2  504  502 -0.31610040526E+01  0.46598953951E+02  0.55935107187E+03  0.56129767153E+03  0.00000000000E+00 0. -1.
         21    1    1    2  505  506  0.52323562015E+02 -0.12237997348E+03 -0.14459975511E+03  0.19652913837E+03  0.00000000000E+00 0.  1.
         21    1    1    2  506  501 -0.39561957928E+02 -0.86861900018E+00  0.57837009228E+02  0.70078688989E+02  0.00000000000E+00 0.  1.
<scales pt_clust_3="84.53541" pt_clust_4="61.25131" pt_clust_5="14000.00000" pt_clust_6="39.57149"></scales>
<clustering>
<clus scale="   39.571">  1  6  2 -1</clus>
<clus scale="   61.251">  1  4  2 -1</clus>
<clus scale="   84.535">  2  3  1 -1</clus>
<clus scale="   39.571">  1  3  2 -1</clus>
</clustering>
</event>
<event>
 6    0  0.8777103E+002  0.8691743E+02  0.7546771E-02  0.1310493E+00
         21   -1    0    0  505  501  0.00000000000E+00  0.00000000000E+00  0.28871668425E+03  0.28871668425E+03  0.00000000000E+00 0. -1.
         21   -1    0    0  504  502 -0.00000000000E+00 -0.00000000000E+00 -0.98312692540E+03  0.98312692540E+03  0.00000000000E+00 0. -1.
         21    1    1    2  503  506  0.27952439435E+02  0.15938365684E+03  0.12189630211E+02  0.16227469311E+03  0.00000000000E+00 0. -1.
         21    1    1    2  504  501  0.50308478598E+02 -0.62559116875E+02  0.17058943224E+03  0.18853471965E+03  0.00000000000E+00 0. -1.
         21    1    1    2  505  503 -0.82080905432E+02 -0.11813769687E+02 -0.67610724123E+02  0.10699556162E+03  0.00000000000E+00 0. -1.
         21    1    1    2  506  502  0.38199873985E+01 -0.85010770280E+02 -0.80957857947E+03  0.81403863527E+03  0.00000000000E+00 0. -1.
<scales pt_clust_3="86.91743" pt_clust_4="80.27818" pt_clust_5="76.57228" pt_clust_6="14000.00000"></scales>
<clustering>
<clus scale="   80.278">  1  4  2 -1</clus>
<clus scale="   76.572">  1  5  2 -1</clus>
<clus scale="   86.917">  1  3  2 -1</clus>
<clus scale="   80.278">  1  3  2 -1</clus>
</clustering>
</event>
<event>
 6    0  0.8777103E+002  0.9639751E+02  0.7546771E-02  0.1288059E+00
         21   -1    0    0  505  501  0.00000000000E+00  0.00000000000E+00  0.56689259268E+02  0.56689259268E+02  0.00000000000E+00 0.  1.
         21   -1    0    0  503  502 -0.00000000000E+00 -0.00000000000E+00 -0.61634931365E+03  0.61634931365E+03  0.00000000000E+00 0.  1.
         21    1    1    2  503  501  0.53723021228E+02  0.10067369948E+03 -0.15818115671E+03  0.19504521300E+03  0.00000000000E+00 0.  1.
         21    1    1    2  504  506  0.27068029600E+02 -0.32929123415E+02 -0.65355656808E+02  0.78027990312E+02  0.00000000000E+00 0.  1.
         21    1    1    2  505  504  0.81262825966E+01 -0.29985402843E+02  0.15919987160E+02  0.34908549721E+02  0.00000000000E+00 0.  1.
         21    1    1    2  506  502 -0.88917333424E+02 -0.37759173223E+02 -0.35204322803E+03  0.36505681989E+03  0.00000000000E+00 0.  1.
<scales pt_clust_3="14000.00000" pt_clust_4="48.43376" pt_clust_5="31.06704" pt_clust_6="96.39751"></scales>
<clustering>
<clus scale="   31.067">  1  5  2 -1</clus>
<clus scale="   48.434">  1  4  2 -1</clus>
<clus scale="   96.398">  2  6  1 -1</clus>
<clus scale="   31.067">  1  3  2 -1</clus>
</clustering>
</event>
<event>
 6    0  0.8777103E+002  0.8932854E+02  0.7546771E-02  0.1304486E+00
         21   -1    0    0  504  501  0.00000000000E+00  0.00000000000E+00  0.30709691963E+03  0.30709691963E+03  0.00000000000E+00 0. -1.
         21   -1    0    0  505  502 -0.00000000000E+00 -0.00000000000E+00 -0.14257095291E+03  0.14257095291E+03  0.00000000000E+00 0. -1.
         21    1    1    2  503  506 -0.10015081985E+03 -0.74343197315E+01  0.53734586174E+01  0.10057002478E+03  0.00000000000E+00 0. -1.
         21    1    1    2  504  502  0.55801391584E+02  0.62926624017E+02  0.94136582329E+02  0.12623490581E+03  0.00000000000E+00 0. -1.
         21    1    1    2  505  503  0.15670320675E+02 -0.41293160581E+02 -0.70734788344E+02  0.83391212624E+02  0.00000000000E+00 0. -1.
         21    1    1    2  506  501  0.28679107593E+02 -0.14199143705E+02  0.13575071413E+03  0.13947172932E+03  0.00000000000E+00 0. -1.
<scales pt_clust_3="14000.00000" pt_clust_4="89.32854" pt_clust_5="45.04948" pt_clust_6="32.00167"></scales>
<clustering>
<clus scale="   32.002">  1  6  2 -1</clus>
<clus scale="   45.049">  2  5  1 -1</clus>
<clus scale="   89.329">  1  4  2 -1</clus>
<clus scale="   32.002">  1  3  2 -1</clus>
</clustering>
</event>
<event>
 6    0  0.8777103E+002  0.2504221E+03  0.7546771E-02  0.1113038E+00
         21   -1    0    0  503  501  0.00000000000E+00  0.00000000000E+00  0.11035484611E+04  0.11035484611E+04  0.00000000000E+00 0. -1.
         21   -1    0    0  505  502 -0.00000000000E+00 -0.00000000000E+00 -0.23123865632E+03  0.23123865632E+03  0.00000000000E+00 0. -1.
         21    1    1    2  503  504 -0.21445914217E+03 -0.19773577751E+03 -0.46257189802E+02  0.29535045112E+03  0.00000000000E+00 0. -1.
         21    1    1    2  504  502  0.92183499003E+01 -0.70469024867E+02  0.42958315798E+02  0.83043833827E+02  0.00000000000E+00 0. -1.
         21    1    1    2  505  506  0.73374981440E+02  0.59510603714E+02  0.81409525334E+02  0.12471130931E+03  0.00000000000E+00 0. -1.
         21    1    1    2  506  501  0.13186581083E+03  0.20869419867E+03  0.79419915348E+03  0.83168152319E+03  0.00000000000E+00 0. -1.
<scales pt_clust_3="250.42207" pt_clust_4="71.06941" pt_clust_5="90.86987" pt_clust_6="14000.00000"></scales>
<clustering>
<clus scale="   71.069">  2  4  1 -1</clus>
<clus scale="   90.870">  2  5  1 -1</clus>
<clus scale="  250.422">  2  3  1 -1</clus>
<clus scale="  250.422">  1  3  2 -1</clus>
</clustering>
</event>
<event>
 6    0  0.8777103E+002  0.9799126E+02  0.7546771E-02  0.1284578E+00
         21   -1    0    0  506  501  0.00000000000E+00  0.00000000000E+00  0.46467669791E+03  0.46467669791E+03  0.00000000000E+00 0.  1.
         21   -1    0    0  504  502 -0.00000000000E+00 -0.00000000000E+00 -0.41404601092E+03  0.41404601092E+03  0.00000000000E+00 0.  1.
         21    1    1    2  503  505 -0.10750851380E+03  0.18097530070E+02  0.42278455458E+02  0.11693189869E+03  0.00000000000E+00 0.  1.
         21    1    1    2  504  501  0.31337512011E+02 -0.13589018686E+02  0.35320771892E+02  0.49135099623E+02  0.00000000000E+00 0.  1.
         21    1    1    2  505  502  0.91579297917E+02  0.35580790776E+02 -0.36189114343E+03  0.37499061344E+03  0.00000000000E+00 0.  1.
         21    1    1    2  506  503 -0.15408296126E+02 -0.40089302161E+02  0.33492260307E+03  0.33766509708E+03  0.00000000000E+00 0.  1.
<scales pt_clust_3="14000.00000" pt_clust_4="34.15701" pt_clust_5="97.99126" pt_clust_6="51.79281"></scales>
<clustering>
<clus scale="   34.157">  1  4  2 -1</clus>
<clus scale="   51.793">  1  6  2 -1</clus>
<clus scale="   97.991">  2  5  1 -1</clus>
<clus scale="   34.157">  1  3  2 -1</clus>
</clustering>
</event>
<event>
 6    0  0.8777103E+002  0.1434935E+03  0.7546771E-02  0.1208704E+00
         21   -1    0    0  506  501  0.00000000000E+00  0.00000000000E+00  0.22639692740E+03  0.22639692740E+03  0.00000000000E+00 0. -1.
         21   -1    0    0  503  502 -0.00000000000E+00 -0.00000000000E+00 -0.12118901708E+03  0.12118901708E+03  0.00000000000E+00 0.  1.
         21    1    1    2  503  504 -0.53584258105E+02 -0.57772960423E+02  0.66944882008E+02  0.10339538142E+03  0.00000000000E+00 0. -1.
         21    1    1    2  504  501 -0.97184530619E+01 -0.55124203274E+02  0.77340892224E+02  0.95471146042E+02  0.00000000000E+00 0. -1.
         21    1    1    2  505  502  0.26690206438E+02  0.50685242547E+02 -0.49597351811E+02  0.75771091047E+02  0.00000000000E+00 0.  1.
         21    1    1    2  506  505  0.36612504729E+02  0.62211921150E+02  0.10519487898E+02  0.72948325967E+02  0.00000000000E+00 0.  1.
<scales pt_clust_3="136.85580" pt_clust_4="37.47042" pt_clust_5="55.18296" pt_clust_6="55.18296"></scales>
<clustering>
<clus scale="   37.470">  3  4 -1 -1</clus>
<clus scale="   55.183">  5  6 -1 -1</clus>
<clus scale="  136.856">  1  3  2 -1</clus>
<clus scale="  136.856">  1  3  2 -1</clus>
</clustering>
</event>
<event>
 6    0  0.8777103E+002  0.7728348E+02  0.7546771E-02  0.1336942E+00
         21   -1    0    0  506  501  0.00000000000E+00  0.00000000000E+00  0.19073545357E+04  0.19073545357E+04  0.00000000000E+00 0.  1.
         21   -1    0    0  504  502 -0.00000000000E+00 -0.00000000000E+00 -0.14664305687E+03  0.14664305687E+03  0.00000000000E+00 0.  1.
         21    1    1    2  503  505 -0.49568031197E+02 -0.56134667237E+02 -0.60826517400E+02  0.96477747702E+02  0.00000000000E+00 0. -1.
         21    1    1    2  504  503  0.55308663624E+02 -0.16749710678E+02 -0.50313384897E+02  0.76622697548E+02  0.00000000000E+00 0.  1.
         21    1    1    2  505  501 -0.79282966337E+02  0.68852415964E+02  0.86390077219E+03  0.87025914998E+03  0.00000000000E+00 0.  1.
         21    1    1    2  506  502  0.73542333910E+02  0.40319619508E+01  0.10079506089E+04  0.10106379973E+04  0.00000000000E+00 0.  1.
<scales pt_clust_3="72.02544" pt_clust_4="57.78928" pt_clust_5="14000.00000" pt_clust_6="77.28348"></scales>
<clustering>
<clus scale="   57.789">  2  4  1 -1</clus>
<clus scale="   72.025">  2  3  1 -1</clus>
<clus scale="   77.283">  1  6  2 -1</clus>
<clus scale="   77.283">  1  3  2 -1</clus>
</clustering>
</event>
<event>
 6    0  0.8777103E+002  0.1573392E+03  0.7546771E-02  0.1191734E+00
         21   -1    0    0  506  501  0.00000000000E+00  0.00000000000E+00  0.82258723518E+02  0.82258723518E+02  0.00000000000E+00 0.  1.
         21   -1    0    0  505  502 -0.00000000000E+00 -0.00000000000E+00 -0.11453855671E+04  0.11453855671E+04  0.00000000000E+00 0.  1.
         21    1    1    2  503  502 -0.14338026884E+03 -0.78275722472E+02 -0.40391382173E+03  0.43569641450E+03  0.00000000000E+00 0.  1.
         21    1    1    2  504  501  0.25032247592E+02  0.46084284466E+02 -0.48934076196E+02  0.71728087298E+02  0.00000000000E+00 0.  1.
         21    1    1    2  505  504  0.12045609964E+03  0.97159971269E+02 -0.63278260935E+03  0.65143193247E+03  0.00000000000E+00 0.  1.
         21    1    1    2  506  503 -0.21080783829E+01 -0.64968533263E+02  0.22503663649E+02  0.68787856388E+02  0.00000000000E+00 0.  1.
<scales pt_clust_3="157.33922" pt_clust_4="52.44401" pt_clust_5="14000.00000" pt_clust_6="37.96536"></scales>
<clustering>
<clus scale="   52.444">  1  4  2 -1</clus>
<clus scale="   37.965">  1  6  2 -1</clus>
<clus scale="  157.339">  1  3  2 -1</clus>
<clus scale="   52.444">  1  3  2 -1</clus>
</clustering>
</event>
<event>
 6    0  0.8777103E+002  0.5916821E+02  0.7546771E-02  0.1401356E+00
         21   -1    0    0  503  501  0.00000000000E+00  0.00000000000E+00  0.82578298298E+03  0.82578298298E+03  0.00000000000E+00 0. -1.
         21   -1    0    0  505  502 -0.00000000000E+00 -0.00000000000E+00 -0.25915211291E+03  0.25915211291E+03  0.00000000000E+00 0. -1.
         21    1    1    2  503  502 -0.35852753696E+02  0.88700372771E+02  0.13939007481E+03  0.16906439315E+03  0.00000000000E+00 0.  1.
         21    1    1    2  504  501  0.88636178868E+01 -0.55288332215E+02  0.57146538434E+03  0.57420209761E+03  0.00000000000E+00 0. -1.
         21    1    1    2  505  506 -0.40685955002E+02 -0.38377275058E+02 -0.22748450527E+03  0.23425917765E+03  0.00000000000E+00 0. -1.
         21    1    1    2  506  504  0.67675090811E+02  0.49652345016E+01  0.83259916191E+02  0.10740942749E+03  0.00000000000E+00 0. -1.
<scales pt_clust_3="14000.00000" pt_clust_4="59.16821" pt_clust_5="55.92998" pt_clust_6="51.58366"></scales>
<clustering>
<clus scale="   55.930">  2  5  1 -1</clus>
<clus scale="   51.584">  2  6  1 -1</clus>
<clus scale="   59.168">  1  4  2 -1</clus>
<clus scale="   59.168">  1  3  2 -1</clus>
</clustering>
</event>
<event>
 6    0  0.8777103E+002  0.8737386E+02  0.7546771E-02  0.1309339E+00
         21   -1    0    0  504  501  0.00000000000E+00  0.00000000000E+00  0.41377438609E+02  0.41377438609E+02  0.00000000000E+00 0. -1.
         21   -1    0    0  505  502 -0.00000000000E+00 -0.00000000000E+00 -0.32685047396E+04  0.32685047396E+04  0.00000000000E+00 0.  1.
         21    1    1    2  503  502 -0.73048181076E+01 -0.35145368531E+02 -0.18404211265E+04  0.18407711645E+04  0.00000000000E+00 0.  1.
         21    1    1    2  504  506  0.77240639155E+02  0.38776570734E+02 -0.13422950898E+02  0.87463788997E+02  0.00000000000E+00 0. -1.
         21    1    1    2  505  501 -0.10027345714E+03 -0.36675723096E+02 -0.99602541957E+03  0.10017317562E+04  0.00000000000E+00 0.  1.
         21    1    1    2  506  503  0.30337636095E+02  0.33044520893E+02 -0.37725780398E+03  0.37991546848E+03  0.00000000000E+00 0.  1.
<scales pt_clust_3="35.89648" pt_clust_4="87.37386" pt_clust_5="14000.00000" pt_clust_6="37.00740"></scales>
<clustering>
<clus scale="   35.896">  2  3  1 -1</clus>
<clus scale="   37.007">  2  6  1 -1</clus>
<clus scale="   87.374">  1  4  2 -1</clus>
<clus scale="   87.374">  1  3  2 -1</clus>
</clustering>
</event>
<event>
 6    0  0.8777103E+002  0.1014604E+03  0.7546771E-02  0.1277255E+00
         21   -1    0    0  503  501  0.00000000000E+00  0.00000000000E+00  0.32420411332E+03  0.32420411332E+03  0.00000000000E+00 0. -1.
         21   -1    0    0  506  502 -0.00000000000E+00 -0.00000000000E+00 -0.25195371251E+03  0.25195371251E+03  0.00000000000E+00 0. -1.
         21    1    1    2  503  505  0.10652000840E+02  0.33879794518E+02  0.56483494566E+02  0.66720991876E+02  0.00000000000E+00 0. -1.
         21    1    1    2  504  502  0.34429442074E+02  0.26070832683E+02 -0.41741258212E+02  0.60061696907E+02  0.00000000000E+00 0. -1.
         21    1    1    2  505  504  0.15690239898E+02 -0.11655446789E+03 -0.17026540541E+03  0.20693340932E+03  0.00000000000E+00 0. -1.
         21    1    1    2  506  501 -0.60771682811E+02  0.56603840689E+02  0.22777356987E+03  0.24244172773E+03  0.00000000000E+00 0. -1.
<scales pt_clust_3="35.51486" pt_clust_4="44.20200" pt_clust_5="101.46041" pt_clust_6="14000.00000"></scales>
<clustering>
<clus scale="   35.515">  1  3  2 -1</clus>
<clus scale="   44.202">  2  4  1 -1</clus>
<clus scale="  101.460">  2  5  1 -1</clus>
<clus scale="   35.515">  1  3  2 -1</clus>
</clustering>
</event>
<event>
 6    0  0.8777103E+002  0.1235183E+03  0.7546771E-02  0.1237403E+00
         21   -1    0    0  504  501  0.00000000000E+00  0.00000000000E+00  0.33430125948E+03  0.33430125948E+03  0.00000000000E+00 0.  1.
         21   -1    0    0  505  502 -0.00000000000E+00 -0.00000000000E+00 -0.26336977120E+03  0.26336977120E+03  0.00000000000E+00 0.  1.
         21    1    1    2  503  501 -0.54870421301E+01  0.29682868725E+02  0.88128551899E+02  0.93154828038E+02  0.00000000000E+00 0.  1.
         21    1    1    2  504  502 -0.49670743934E+02  0.66811718017E+02  0.37021919530E+02  0.91113176836E+02  0.00000000000E+00 0. -1.
         21    1    1    2  505  506 -0.81799071114E+01  0.80319510185E+02 -0.17318527669E+03  0.19107923659E+03  0.00000000000E+00 0.  1.
         21    1    1    2  506  503  0.63337693175E+02 -0.17681409693E+03  0.11896629355E+03  0.22232378921E+03  0.00000000000E+00 0.  1.
<scales pt_clust_3="30.18576" pt_clust_4="123.51827" pt_clust_5="81.83975" pt_clust_6="14000.00000"></scales>
<clustering>
<clus scale="   30.186">  1  3  2 -1</clus>
<clus scale="   81.840">  2  5  1 -1</clus>
<clus scale="  123.518">  1  4  2 -1</clus>
<clus scale="   30.186">  1  3  2 -1</clus>
</clustering>
</event>
<event>
 6    0  0.8777103E+002  0.9773731E+02  0.7546771E-02  0.1285127E+00
         21   -1    0    0  503  501  0.00000000000E+00  0.00000000000E+00  0.75519930636E+03  0.75519930636E+03  0.00000000000E+00 0. -1.
         21   -1    0    0  504  502 -0.00000000000E+00 -0.00000000000E+00 -0.15005932877E+03  0.15005932877E+03  0.00000000000E+00 0. -1.
         21    1    1    2  503  505  0.11473418838E+01 -0.12264412416E+03  0.59854867404E+03  0.61098560767E+03  0.00000000000E+00 0. -1.
         21    1    1    2  504  501 -0.65853250096E+02  0.35561228974E+02 -0.28473934599E+02  0.80075067942E+02  0.00000000000E+00 0. -1.
         21    1    1    2  505  506  0.35315740773E+02  0.57341995978E+02  0.10965748462E+03  0.12868593545E+03  0.00000000000E+00 0.  1.
         21    1    1    2  506  502  0.29390167439E+02  0.29740899210E+02 -0.74592246466E+02  0.85512024071E+02  0.00000000000E+00 0. -1.
<scales pt_clust_3="97.73731" pt_clust_4="72.73906" pt_clust_5="14000.00000" pt_clust_6="41.81271"></scales>
<clustering>
<clus scale="   41.813">  2  6  1 -1</clus>
<clus scale="   72.739">  2  4  1 -1</clus>
<clus scale="   97.737">  1  3  2 -1</clus>
<clus scale="   97.737">  1  3  2 -1</clus>
</clustering>
</event>
<event>
 6    0  0.8777103E+002  0.1179609E+03  0.7546771E-02  0.1246499E+00
         21   -1    0    0  506  501  0.00000000000E+00  0.00000000000E+00  0.67426197546E+03  0.67426197546E+03  0.00000000000E+00 0.  1.
         21   -1    0    0  505  502 -0.00000000000E+00 -0.00000000000E+00 -0.54124618042E+03  0.54124618042E+03  0.00000000000E+00 0. -1.
         21    1    1    2  503  501 -0.16757669064E+02 -0.25573154413E+02  0.47135299268E+03  0.47234357136E+03  0.00000000000E+00 0.  1.
         21    1    1    2  504  503 -0.57151286936E+02  0.12353344427E+03  0.15568082176E+03  0.20679289087E+03  0.00000000000E+00 0.  1.
         21    1    1    2  505  504 -0.45941259986E+01 -0.46923496882E+02 -0.40313721727E+03  0.40588488085E+03  0.00000000000E+00 0. -1.
         21    1    1    2  506  502  0.78503081999E+02 -0.51036792972E+02 -0.90880802134E+02  0.13048681281E+03  0.00000000000E+00 0. -1.
<scales pt_clust_3="30.57459" pt_clust_4="117.96086" pt_clust_5="47.33178" pt_clust_6="14000.00000"></scales>
<clustering>
<clus scale="   30.575">  1  3  2 -1</clus>
<clus scale="   47.332">  2  5  1 -1</clus>
<clus scale="  117.961">  1  4  2 -1</clus>
<clus scale="   30.575">  1  3  2 -1</clus>
</clustering>
</event>
<event>
 6    0  0.8777103E+002  0.8913146E+02  0.7546771E-02  0.1304969E+00
         21   -1    0    0  505  501  0.00000000000E+00  0.00000000000E+00  0.24009622786E+03  0.24009622786E+03  0.00000000000E+00 0.  1.
         21   -1    0    0  506  502 -0.00000000000E+00 -0.00000000000E+00 -0.19529221695E+04  0.19529221695E+04  0.00000000000E+00 0.  1.
         21    1    1    2  503  502  0.11418413632E+03  0.33240168847E+02 -0.16780709623E+04  0.16822797271E+04  0.00000000000E+00 0.  1.
         21    1    1    2  504  501 -0.95314236089E+02 -0.90348790103E+02  0.20384115771E+03  0.24248489654E+03  0.00000000000E+00 0.  1.
         21    1    1    2  505  503  0.13938131184E+02  0.59091887529E+02 -0.55587391166E+02  0.82316952867E+02  0.00000000000E+00 0.  1.
         21    1    1    2  506  504 -0.32808031420E+02 -0.19832662730E+01 -0.18300874594E+03  0.18593682088E+03  0.00000000000E+00 0. -1.
<scales pt_clust_3="89.13146" pt_clust_4="14000.00000" pt_clust_5="60.35700" pt_clust_6="32.86792"></scales>
<clustering>
<clus scale="   32.868">  2  6  1 -1</clus>
<clus scale="   60.357">  1  5  2 -1</clus>
<clus scale="   89.131">  2  3  1 -1</clus>
<clus scale="   60.357">  1  3  2 -1</clus>
</clustering>
</event>
<event>
 6    0  0.8777103E+002  0.7563311E+02  0.7546771E-02  0.1341922E+00
         21   -1    0    0  503  501  0.00000000000E+00  0.00000000000E+00  0.14449021284E+04  0.14449021284E+04  0.00000000000E+00 0.  1.
         21   -1    0    0  506  502 -0.00000000000E+00 -0.00000000000E+00 -0.62764861983E+02  0.62764861983E+02  0.00000000000E+00 0. -1.
         21    1    1    2  503  505  0.19449026209E+02 -0.63316771668E+02  0.12631627301E+03  0.14262916610E+03  0.00000000000E+00 0. -1.
         21    1    1    2  504  501 -0.43553063590E+02  0.41385910395E+02  0.11738208196E+04  0.11753573837E+04  0.00000000000E+00 0.  1.
         21    1    1    2  505  502  0.53697614858E+02 -0.53148413859E+02  0.13163401315E+01  0.75564015831E+02  0.00000000000E+00 0. -1.
         21    1    1    2  506  504 -0.29593577477E+02  0.75079275132E+02  0.80683833729E+02  0.11411642479E+03  0.00000000000E+00 0.  1.
<scales pt_clust_3="42.78600" pt_clust_4="60.08047" pt_clust_5="75.63311" pt_clust_6="14000.00000"></scales>
<clustering>
<clus scale="   60.080">  1  4  2 -1</clus>
<clus scale="   42.786">  1  3  2 -1</clus>
<clus scale="   75.633">  2  5  1 -1</clus>
<clus scale="   60.080">  1  3  2 -1</clus>
</clustering>
</event>
<event>
 6    0  0.8777103E+002  0.1200897E+03  0.7546771E-02  0.1242949E+00
         21   -1    0    0  502  501  0.00000000000E+00  0.00000000000E+00  0.54829184193E+03  0.54829184193E+03  0.00000000000E+00 0. -1.
         21   -1    0    0  505  502 -0.00000000000E+00 -0.00000000000E+00 -0.12861835918E+04  0.12861835918E+04  0.00000000000E+00 0. -1.
         21    1    1    2  503  504  0.55458839869E+02  0.83580512432E+02  0.11309392765E+03  0.15116752776E+03  0.00000000000E+00 0. -1.
         21    1    1    2  504  501  0.73233630953E+01  0.32951246458E+02  0.37497014329E+03  0.37648642027E+03  0.00000000000E+00 0. -1.
         21    1    1    2  505  506  0.20249320509E+02 -0.31879119948E+02 -0.11784946799E+04  0.11790996666E+04  0.00000000000E+00 0. -1.
         21    1    1    2  506  503 -0.83031523474E+02 -0.84652638942E+02 -0.47461140885E+02  0.12772181906E+03  0.00000000000E+00 0. -1.
<scales pt_clust_3="14000.00000" pt_clust_4="33.75524" pt_clust_5="37.72471" pt_clust_6="120.08971"></scales>
<clustering>
<clus scale="   33.755">  1  4  2 -1</clus>
<clus scale="   37.725">  2  5  1 -1</clus>
<clus scale="  120.090">  2  6  1 -1</clus>
<clus scale="   33.755">  1  3  2 -1</clus>
</clustering>
</event>
<event>
 6    0  0.8777103E+002  0.1191315E+03  0.7546771E-02  0.1244537E+00
         21   -1    0    0  504  501  0.00000000000E+00  0.00000000000E+00  0.13172278678E+04  0.13172278678E+04  0.00000000000E+00 0. -1.
         21   -1    0    0  503  502 -0.00000000000E+00 -0.00000000000E+00 -0.98781587204E+02  0.98781587204E+02  0.00000000000E+00 0.  1.
         21    1    1    2  503  501 -0.19905381072E+02 -0.25818885825E+02  0.10182394212E+03  0.10691564081E+03  0.00000000000E+00 0. -1.
         21    1    1    2  504  506  0.11892676629E+03 -0.18983912406E+02  0.11718212933E+04  0.11779936791E+04  0.00000000000E+00 0. -1.
         21    1    1    2  505  502 -0.44291987043E+02 -0.40542487491E+01 -0.12437799105E+02  0.46183502420E+02  0.00000000000E+00 0.  1.
         21    1    1    2  506  505 -0.54729398173E+02  0.48857046981E+02 -0.42761155699E+02  0.84916632651E+02  0.00000000000E+00 0.  1.
<scales pt_clust_3="32.60121" pt_clust_4="108.92440" pt_clust_5="37.70680" pt_clust_6="37.70680"></scales>
<clustering>
<clus scale="   32.601">  1  3  2 -1</clus>
<clus scale="   37.707">  5  6 -1 -1</clus>
<clus scale="  108.924">  1  4  2 -1</clus>
<clus scale="   32.601">  1  3  2 -1</clus>
</clustering>
</event>
<event>
 6    0  0.8777103E+002  0.8294707E+02  0.7546771E-02  0.1320890E+00
         21   -1    0    0  504  501  0.00000000000E+00  0.00000000000E+00  0.25761527408E+03  0.25761527408E+03  0.00000000000E+00 0.  1.
         21   -1    0    0  505  502 -0.00000000000E+00 -0.00000000000E+00 -0.22688608063E+03  0.22688608063E+03  0.00000000000E+00 0.  1.
         21    1    1    2  503  506  0.78228541405E+02 -0.77348752282E+02 -0.96134537999E+02  0.14609717166E+03  0.00000000000E+00 0.  1.
         21    1    1    2  504  503 -0.76335731809E+02  0.55963812289E+02  0.18091102529E+02  0.96365866506E+02  0.00000000000E+00 0.  1.
         21    1    1    2  505  501  0.30849427229E+02 -0.87421749683E+01  0.16627135470E+03  0.16933480498E+03  0.00000000000E+00 0.  1.
         21    1    1    2  506  502 -0.32742236826E+02  0.30127114962E+02 -0.57498725776E+02  0.72703511567E+02  0.00000000000E+00 0. -1.
<scales pt_clust_3="82.94707" pt_clust_4="14000.00000" pt_clust_5="32.06420" pt_clust_6="42.08888"></scales>
<clustering>
<clus scale="   32.064">  1  5  2 -1</clus>
<clus scale="   42.089">  2  6  1 -1</clus>
<clus scale="   82.947">  2  3  1 -1</clus>
<clus scale="   32.064">  1  3  2 -1</clus>
</clustering>
</event>
<event>
 6    0  0.8777103E+002  0.2354274E+03  0.7546771E-02  0.1122877E+00
         21   -1    0    0  505  501  0.00000000000E+00  0.00000000000E+00  0.55961286018E+03  0.55961286018E+03  0.00000000000E+00 0. -1.
         21   -1    0    0  506  502 -0.00000000000E+00 -0.00000000000E+00 -0.16234348273E+04  0.16234348273E+04  0.00000000000E+00 0.  1.
         21    1    1    2  503  502  0.37382350337E+02  0.23137268618E+03 -0.10744445687E+04  0.10997099123E+04  0.00000000000E+00 0.  1.
         21    1    1    2  504  501  0.22809288480E+02 -0.54000161479E+02  0.49324949284E+03  0.49672058873E+03  0.00000000000E+00 0. -1.
         21    1    1    2  505  503 -0.26982355208E+02 -0.19639472195E+03 -0.14200777416E+03  0.24385475641E+03  0.00000000000E+00 0.  1.
         21    1    1    2  506  504 -0.33209283608E+02  0.19022197247E+02 -0.34061911709E+03  0.34276243002E+03  0.00000000000E+00 0. -1.
<scales pt_clust_3="235.42744" pt_clust_4="58.57859" pt_clust_5="14000.00000" pt_clust_6="38.27141"></scales>
<clustering>
<clus scale="   38.271">  2  6  1 -1</clus>
<clus scale="   58.579">  1  4  2 -1</clus>
<clus scale="  235.427">  2  3  1 -1</clus>
<clus scale="   58.579">  1  3  2 -1</clus>
</clustering>
</event>
<event>
 6    0  0.8777103E+002  0.8277055E+02  0.7546771E-02  0.1321368E+00
         21   -1    0    0  504  501  0.00000000000E+00  0.00000000000E+00  0.50645227969E+03  0.50645227969E+03  0.00000000000E+00 0. -1.
         21   -1    0    0  506  502 -0.00000000000E+00 -0.00000000000E+00 -0.17318187705E+04  0.17318187705E+04  0.00000000000E+00 0.  1.
         21    1    1    2  503  505  0.42246448536E+02 -0.81956232851E+02 -0.79287072898E+03  0.79821399348E+03  0.00000000000E+00 0.  1.
         21    1    1    2  504  502 -0.13996944677E+02 -0.67782293528E+02  0.14065284517E+03  0.15675961416E+03  0.00000000000E+00 0. -1.
         21    1    1    2  505  501 -0.26152451347E+02  0.69671898818E+02  0.34942089490E+03  0.35725773049E+03  0.00000000000E+00 0. -1.
         21    1    1    2  506  503 -0.20970525126E+01  0.80066627561E+02 -0.92256950194E+03  0.92603971210E+03  0.00000000000E+00 0.  1.
<scales pt_clust_3="82.77055" pt_clust_4="69.21238" pt_clust_5="40.06972" pt_clust_6="14000.00000"></scales>
<clustering>
<clus scale="   69.212">  1  4  2 -1</clus>
<clus scale="   40.070">  1  5  2 -1</clus>
<clus scale="   82.771">  1  3  2 -1</clus>
<clus scale="   69.212">  1  3  2 -1</clus>
</clustering>
</event>
<event>
 6    0  0.8777103E+002  0.7998925E+02  0.7546771E-02  0.1329082E+00
         21   -1    0    0  504  501  0.00000000000E+00  0.00000000000E+00  0.58575508363E+02  0.58575508363E+02  0.00000000000E+00 0.  1.
         21   -1    0    0  503  502 -0.00000000000E+00 -0.00000000000E+00 -0.27951193191E+04  0.27951193191E+04  0.00000000000E+00 0. -1.
         21    1    1    2  503  501  0.79127199033E+02  0.87965637853E+02 -0.21778966114E+04  0.21811081397E+04  0.00000000000E+00 0. -1.
         21    1    1    2  504  506 -0.78443185353E+02 -0.14616477807E+02  0.23727189971E+02  0.83246347042E+02  0.00000000000E+00 0.  1.
         21    1    1    2  505  502  0.20324800580E+02 -0.29125580049E+02 -0.35397467062E+03  0.35575197030E+03  0.00000000000E+00 0.  1.
         21    1    1    2  506  505 -0.21008814259E+02 -0.44223579997E+02 -0.22839971870E+03  0.23358837045E+03  0.00000000000E+00 0.  1.
<scales pt_clust_3="14000.00000" pt_clust_4="79.98925" pt_clust_5="35.51615" pt_clust_6="50.70906"></scales>
<clustering>
<clus scale="   35.516">  2  5  1 -1</clus>
<clus scale="   50.709">  2  6  1 -1</clus>
<clus scale="   79.989">  1  4  2 -1</clus>
<clus scale="   79.989">  1  3  2 -1</clus>
</clustering>
</event>
<event>
 6    0  0.8777103E+002  0.1875958E+03  0.7546771E-02  0.1160648E+00
         21   -1    0    0  504  501  0.00000000000E+00  0.00000000000E+00  0.23484646741E+03  0.23484646741E+03  0.00000000000E+00 0.  1.
         21   -1    0    0  505  502 -0.00000000000E+00 -0.00000000000E+00 -0.52421048859E+03  0.52421048859E+03  0.00000000000E+00 0.  1.
         21    1    1    2  503  501  0.18547715945E+03 -0.91102352184E+02  0.71750801845E+02  0.21874549782E+03  0.00000000000E+00 0.  1.
         21    1    1    2  504  506 -0.32575186848E+02  0.17907646448E+02  0.28378488266E+02  0.46767137990E+02  0.00000000000E+00 0.  1.
         21    1    1    2  505  503  0.42298791488E+02 -0.52940708581E+02 -0.61172617280E+02  0.91290719634E+02  0.00000000000E+00 0.  1.
         21    1    1    2  506  502 -0.19520076409E+03  0.12613541432E+03 -0.32832069401E+03  0.40225360055E+03  0.00000000000E+00 0.  1.
<scales pt_clust_3="14000.00000" pt_clust_4="37.17293" pt_clust_5="65.15255" pt_clust_6="187.59579"></scales>
<clustering>
<clus scale="   37.173">  1  4  2 -1</clus>
<clus scale="   65.153">  2  5  1 -1</clus>
<clus scale="  187.596">  2  6  1 -1</clus>
<clus scale="   37.173">  1  3  2 -1</clus>
</clustering>
</event>
<event>
 6    0  0.8777103E+002  0.1519970E+03  0.7546771E-02  0.1198040E+00
         21   -1    0    0  506  501  0.00000000000E+00  0.00000000000E+00  0.99173758295E+03  0.99173758295E+03  0.00000000000E+00 0. -1.
         21   -1    0    0  504  502 -0.00000000000E+00 -0.00000000000E+00 -0.19460727103E+03  0.19460727103E+03  0.00000000000E+00 0. -1.
         21    1    1    2  503  501  0.90135820357E+02 -0.14571549552E+01  0.52956646946E+03  0.53718454463E+03  0.00000000000E+00 0. -1.
         21    1    1    2  504  505 -0.21379009364E+03 -0.25316487815E+02  0.22323476209E+01  0.21529540653E+03  0.00000000000E+00 0. -1.
         21    1    1    2  505  503  0.53532992427E+02  0.88830433162E+02  0.31232602228E+03  0.32909599105E+03  0.00000000000E+00 0. -1.
         21    1    1    2  506  502  0.70121280858E+02 -0.62056790392E+02 -0.46994527445E+02  0.10476891177E+03  0.00000000000E+00 0. -1.
<scales pt_clust_3="90.14760" pt_clust_4="14000.00000" pt_clust_5="151.99703" pt_clust_6="98.02233"></scales>
<clustering>
<clus scale="   90.148">  1  3  2 -1</clus>
<clus scale="   98.022">  2  6  1 -1</clus>
<clus scale="  151.997">  1  5  2 -1</clus>
<clus scale="   90.148">  1  3  2 -1</clus>
</clustering>
</event>
<event>
 6    0  0.8777103E+002  0.7092745E+02  0.7546771E-02  0.1356967E+00
         21   -1    0    0  504  501  0.00000000000E+00  0.00000000000E+00  0.49202217542E+03  0.49202217542E+03  0.00000000000E+00 0.  1.
         21   -1    0    0  506  502 -0.00000000000E+00 -0.00000000000E+00 -0.59930076876E+02  0.59930076876E+02  0.00000000000E+00 0.  1.
         21    1    1    2  503  501 -0.37914504681E+02  0.75668833693E+02  0.20181996159E+03  0.21884830123E+03  0.00000000000E+00 0.  1.
         21    1    1    2  504  505  0.58505673803E+02 -0.10652260172E+02  0.20483496694E+03  0.21329263511E+03  0.00000000000E+00 0.  1.
         21    1    1    2  505  502  0.13188065909E+02 -0.78052316999E+02  0.26816993921E+02  0.83577750833E+02  0.00000000000E+00 0.  1.
         21    1    1    2  506  503 -0.33779235031E+02  0.13035743477E+02 -0.13798238961E+01  0.36233565120E+02  0.00000000000E+00 0.  1.
<scales pt_clust_3="70.92745" pt_clust_4="55.81430" pt_clust_5="14000.00000" pt_clust_6="36.20728"></scales>
<clustering>
<clus scale="   36.207">  2  6  1 -1</clus>
<clus scale="   55.814">  1  4  2 -1</clus>
<clus scale="   70.927">  1  3  2 -1</clus>
<clus scale="   55.814">  1  3  2 -1</clus>
</clustering>
</event>
<event>
 6    0  0.8777103E+002  0.9510812E+02  0.7546771E-02  0.1290933E+00
         21   -1    0    0  503  501  0.00000000000E+00  0.00000000000E+00  0.29557003489E+04  0.29557003489E+04  0.00000000000E+00 0. -1.
         21   -1    0    0  504  502 -0.00000000000E+00 -0.00000000000E+00 -0.70611832697E+02  0.70611832697E+02  0.00000000000E+00 0.  1.
         21    1    1    2  503  505 -0.26928625002E+02 -0.31119599121E+02  0.17333900939E+04  0.17338785419E+04  0.00000000000E+00 0. -1.
         21    1    1    2  504  501  0.11576682190E+03  0.67851057619E+02  0.10189204103E+04  0.10277181158E+04  0.00000000000E+00 0. -1.
         21    1    1    2  505  506 -0.57446977610E+02 -0.42744270172E+02  0.18785345912E+03  0.20103768297E+03  0.00000000000E+00 0. -1.
         21    1    1    2  506  502 -0.31391219289E+02  0.60128116733E+01 -0.55075447115E+02  0.63677840946E+02  0.00000000000E+00 0.  1.
<scales pt_clust_3="41.50516" pt_clust_4="95.10812" pt_clust_5="14000.00000" pt_clust_6="31.96189"></scales>
<clustering>
<clus scale="   31.962">  2  6  1 -1</clus>
<clus scale="   41.505">  1  3  2 -1</clus>
<clus scale="   95.108">  1  4  2 -1</clus>
<clus scale="   41.505">  1  3  2 -1</clus>
</clustering>
</event>
<event>
 6    0  0.8777103E+002  0.1232308E+03  0.7546771E-02  0.1237860E+00
         21   -1    0    0  505  501  0.00000000000E+00  0.00000000000E+00  0.13808192168E+03  0.13808192168E+03  0.00000000000E+00 0. -1.
         21   -1    0    0  504  502 -0.00000000000E+00 -0.00000000000E+00 -0.72367007665E+03  0.72367007665E+03  0.00000000000E+00 0. -1.
         21    1    1    2  503  502  0.14453840098E+03 -0.26431834282E+02 -0.12923287593E+03  0.19568118827E+03  0.00000000000E+00 0. -1.
         21    1    1    2  504  501 -0.11829966485E+03 -0.18980460626E+02 -0.52838018540E+03  0.54179395429E+03  0.00000000000E+00 0. -1.
         21    1    1    2  505  506 -0.44309332731E+02  0.17113913539E+01  0.86095553458E+01  0.45170457942E+02  0.00000000000E+00 0. -1.
         21    1    1    2  506  503  0.18070596603E+02  0.43700903553E+02  0.63415351009E+02  0.79106397823E+02  0.00000000000E+00 0. -1.
<scales pt_clust_3="123.23084" pt_clust_4="14000.00000" pt_clust_5="44.34237" pt_clust_6="45.97249"></scales>
<clustering>
<clus scale="   44.342">  1  5  2 -1</clus>
<clus scale="   45.972">  1  6  2 -1</clus>
<clus scale="  123.231">  1  3  2 -1</clus>
<clus scale="   44.342">  1  3  2 -1</clus>
</clustering>
</event>
<event>
 6    0  0.8777103E+002  0.2836202E+03  0.7546771E-02  0.1093728E+00
         21   -1    0    0  504  501  0.00000000000E+00  0.00000000000E+00  0.33887104110E+03  0.33887104110E+03  0.00000000000E+00 0.  1.
         21   -1    0    0  505  502 -0.00000000000E+00 -0.00000000000E+00 -0.57238484889E+03  0.57238484889E+03  0.00000000000E+00 0. -1.
         21    1    1    2  503  501  0.13545200731E+02 -0.44214801123E+02 -0.25782899834E+02  0.52945056663E+02  0.00000000000E+00 0. -1.
         21    1    1    2  504  506  0.57417785818E+02  0.30159066300E+02  0.13470233337E+03  0.14950280942E+03  0.00000000000E+00 0. -1.
         21    1    1    2  505  503  0.15804663925E+03 -0.15853862639E+03 -0.35732477353E+03  0.42165653086E+03  0.00000000000E+00 0. -1.
         21    1    1    2  506  502 -0.22900962580E+03  0.17259436121E+03  0.14891532211E+02  0.28715149305E+03  0.00000000000E+00 0.  1.
<scales pt_clust_3="40.45436" pt_clust_4="64.85654" pt_clust_5="40.45436" pt_clust_6="269.29163"></scales>
<clustering>
<clus scale="   40.454">  3  5 -1 -1</clus>
<clus scale="   64.857">  1  4  2 -1</clus>
<clus scale="  269.292">  1  6  2 -1</clus>
<clus scale="   64.857">  1  3  2 -1</clus>
</clustering>
</event>
<event>
 6    0  0.8777103E+002  0.1065287E+03  0.7546771E-02  0.1267137E+00
         21   -1    0    0  504  501  0.00000000000E+00  0.00000000000E+00  0.34717057656E+03  0.34717057656E+03  0.00000000000E+00 0. -1.
         21   -1    0    0  503  502 -0.00000000000E+00 -0.00000000000E+00 -0.18698604491E+04  0.18698604491E+04  0.00000000000E+00 0. -1.
         21    1    1    2  503  506  0.56386463236E+02 -0.12891313374E+02 -0.10343738821E+04  0.10359898393E+04  0.00000000000E+00 0. -1.
         21    1    1    2  504  505 -0.12054076755E+03  0.59925340920E+02  0.18732012020E+03  0.23067282145E+03  0.00000000000E+00 0. -1.
         21    1    1    2  505  502 -0.29758438742E+02 -0.75069969942E+02 -0.79320562537E+03  0.79730560589E+03  0.00000000000E+00 0.  1.
         21    1    1    2  506  501  0.93912743055E+02  0.28035942396E+02  0.11756951478E+03  0.15306275896E+03  0.00000000000E+00 0. -1.
<scales pt_clust_3="57.84133" pt_clust_4="106.52875" pt_clust_5="90.58011" pt_clust_6="14000.00000"></scales>
<clustering>
<clus scale="   57.841">  2  3  1 -1</clus>
<clus scale="   90.580">  2  5  1 -1</clus>
<clus scale="  106.529">  2  4  1 -1</clus>
<clus scale="  106.529">  1  3  2 -1</clus>
</clustering>
</event>
<event>
 6    0  0.8777103E+002  0.7882146E+02  0.7546771E-02  0.1332430E+00
         21   -1    0    0  504  501  0.00000000000E+00  0.00000000000E+00  0.46315019370E+03  0.46315019370E+03  0.00000000000E+00 0. -1.
         21   -1    0    0  506  502 -0.00000000000E+00 -0.00000000000E+00 -0.53366909487E+03  0.53366909487E+03  0.00000000000E+00 0. -1.
         21    1    1    2  503  501 -0.98525266638E+02 -0.49622683136E+02 -0.80254648150E+02  0.13642011361E+03  0.00000000000E+00 0. -1.
         21    1    1    2  504  505  0.61960289356E+02 -0.18443448792E+02  0.41844742260E+03  0.42341171894E+03  0.00000000000E+00 0. -1.
         21    1    1    2  505  502  0.39137685883E+02 -0.40015512467E+00 -0.23335614378E+02  0.45568294666E+02  0.00000000000E+00 0. -1.
         21    1    1    2  506  503 -0.25727086017E+01  0.68466287053E+02 -0.38537606125E+03  0.39141916135E+03  0.00000000000E+00 0. -1.
<scales pt_clust_3="78.82146" pt_clust_4="64.83413" pt_clust_5="39.13973" pt_clust_6="14000.00000"></scales>
<clustering>
<clus scale="   39.140">  2  5  1 -1</clus>
<clus scale="   64.834">  1  4  2 -1</clus>
<clus scale="   78.821">  1  3  2 -1</clus>
<clus scale="   64.834">  1  3  2 -1</clus>
</clustering>
</event>
<event>
 6    0  0.8777103E+002  0.9759045E+02  0.7546771E-02  0.1285446E+00
         21   -1    0    0  504  501  0.00000000000E+00  0.00000000000E+00  0.15987087623E+04  0.15987087623E+04  0.00000000000E+00 0. -1.
         21   -1    0    0  505  502 -0.00000000000E+00 -0.00000000000E+00 -0.11343089250E+03  0.11343089250E+03  0.00000000000E+00 0.  1.
         21    1    1    2  503  502 -0.59142110628E+02  0.28268063954E+02 -0.42457715844E+02  0.78099489908E+02  0.00000000000E+00 0.  1.
         21    1    1    2  504  503 -0.50504586625E+02 -0.12780178728E+03  0.10617185127E+04  0.10705747103E+04  0.00000000000E+00 0. -1.
         21    1    1    2  505  506  0.12086809827E+03  0.40876139670E+02  0.40628752026E+02  0.13390538251E+03  0.00000000000E+00 0.  1.
         21    1    1    2  506  501 -0.11221401021E+02  0.58657583660E+02  0.42538832093E+03  0.42956007210E+03  0.00000000000E+00 0. -1.
<scales pt_clust_3="66.09352" pt_clust_4="97.59045" pt_clust_5="14000.00000" pt_clust_6="59.72129"></scales>
<clustering>
<clus scale="   59.721">  1  6  2 -1</clus>
<clus scale="   66.094">  2  3  1 -1</clus>
<clus scale="   97.590">  1  4  2 -1</clus>
<clus scale="   59.721">  1  3  2 -1</clus>
</clustering>
</event>
<event>
 6    0  0.8777103E+002  0.1300530E+03  0.7546771E-02  0.1227377E+00
         21   -1    0    0  505  501  0.00000000000E+00  0.00000000000E+00  0.81478173647E+03  0.81478173647E+03  0.00000000000E+00 0.  1.
         21   -1    0    0  503  502 -0.00000000000E+00 -0.00000000000E+00 -0.16185432617E+03  0.16185432617E+03  0.00000000000E+00 0.  1.
         21    1    1    2  503  506  0.44576202851E+02  0.12717513384E+03 -0.98526394141E+02  0.16693712250E+03  0.00000000000E+00 0.  1.
         21    1    1    2  504  501 -0.45037247159E+02 -0.50080489809E+02  0.27243379924E+03  0.28063603486E+03  0.00000000000E+00 0.  1.
         21    1    1    2  505  502  0.16252124592E+02  0.35227669013E+02  0.36903308586E+03  0.37106675771E+03  0.00000000000E+00 0. -1.
         21    1    1    2  506  504 -0.15791080284E+02 -0.11232231304E+03  0.10998691934E+03  0.15799614757E+03  0.00000000000E+00 0.  1.
<scales pt_clust_3="130.05299" pt_clust_4="44.87873" pt_clust_5="38.79588" pt_clust_6="14000.00000"></scales>
<clustering>
<clus scale="   38.796">  1  5  2 -1</clus>
<clus scale="   44.879">  1  4  2 -1</clus>
<clus scale="  130.053">  2  3  1 -1</clus>
<clus scale="   38.796">  1  3  2 -1</clus>
</clustering>
</event>
<event>
 6    0  0.8777103E+002  0.8941396E+02  0.7546771E-02  0.1304277E+00
         21   -1    0    0  504  501  0.00000000000E+00  0.00000000000E+00  0.24719920556E+03  0.24719920556E+03  0.00000000000E+00 0. -1.
         21   -1    0    0  506  502 -0.00000000000E+00 -0.00000000000E+00 -0.19924144638E+03  0.19924144638E+03  0.00000000000E+00 0. -1.
         21    1    1    2  503  502  0.71742732720E+02  0.49521271654E+02 -0.11979848738E+03  0.14815887967E+03  0.00000000000E+00 0. -1.
         21    1    1    2  504  503 -0.53188305208E+01 -0.41819539084E+02  0.11350024424E+03  0.12107629516E+03  0.00000000000E+00 0. -1.
         21    1    1    2  505  501  0.36107936452E+02  0.10311626962E+02  0.62354584044E+02  0.72788782629E+02  0.00000000000E+00 0.  1.
         21    1    1    2  506  505 -0.10253183865E+03 -0.18013359532E+02 -0.80985817231E+01  0.10441669447E+03  0.00000000000E+00 0. -1.
<scales pt_clust_3="89.41396" pt_clust_4="39.55272" pt_clust_5="37.55147" pt_clust_6="14000.00000"></scales>
<clustering>
<clus scale="   37.551">  1  5  2 -1</clus>
<clus scale="   39.553">  1  4  2 -1</clus>
<clus scale="   89.414">  2  3  1 -1</clus>
<clus scale="   37.551">  1  3  2 -1</clus>
</clustering>
</event>
<event>
 6    0  0.8777103E+002  0.8995840E+02  0.7546771E-02  0.1302952E+00
         21   -1    0    0  505  501  0.00000000000E+00  0.00000000000E+00  0.11459149381E+04  0.11459149381E+04  0.00000000000E+00 0.  1.
         21   -1    0    0  503  502 -0.00000000000E+00 -0.00000000000E+00 -0.15915575370E+03  0.15915575370E+03  0.00000000000E+00 0.  1.
         21    1    1    2  503  504 -0.19920663984E+02  0.34775180596E+02  0.42602855132E+02  0.58490591589E+02  0.00000000000E+00 0.  1.
         21    1    1    2  504  506  0.36370032790E+02  0.91562474353E+02  0.35113940584E+03  0.36469898317E+03  0.00000000000E+00 0. -1.
         21    1    1    2  505  502 -0.44363532323E+02 -0.96402555056E+02 -0.12427675693E+03  0.16342058602E+03  0.00000000000E+00 0.  1.
         21    1    1    2  506  501  0.27914163517E+02 -0.29935099893E+02  0.71729368041E+03  0.71846053105E+03  0.00000000000E+00 0.  1.
<scales pt_clust_3="40.07675" pt_clust_4="89.95840" pt_clust_5="14000.00000" pt_clust_6="40.78003"></scales>
<clustering>
<clus scale="   40.077">  2  3  1 -1</clus>
<clus scale="   40.780">  1  6  2 -1</clus>
<clus scale="   89.958">  1  4  2 -1</clus>
<clus scale="   40.780">  1  3  2 -1</clus>
</clustering>
</event>
<event>
 6    0  0.8777103E+002  0.1069463E+03  0.7546771E-02  0.1266332E+00
         21   -1    0    0  506  501  0.00000000000E+00  0.00000000000E+00  0.56887567282E+03  0.56887567282E+03  0.00000000000E+00 0. -1.
         21   -1    0    0  505  502 -0.00000000000E+00 -0.00000000000E+00 -0.19542037420E+04  0.19542037420E+04  0.00000000000E+00 0.  1.
         21    1    1    2  503  504 -0.53438868909E+02 -0.73577242630E+02 -0.21288133465E+03  0.23149035830E+03  0.00000000000E+00 0.  1.
         21    1    1    2  504  502  0.96362594149E+02  0.55825074355E+02 -0.17168419621E+04  0.17204500898E+04  0.00000000000E+00 0.  1.
         21    1    1    2  505  501 -0.28324265308E+02 -0.24603414107E+02  0.15899688704E+02  0.40747909049E+02  0.00000000000E+00 0.  1.
         21    1    1    2  506  503 -0.14599459931E+02  0.42355582383E+02  0.52849553883E+03  0.53039105776E+03  0.00000000000E+00 0. -1.
<scales pt_clust_3="14000.00000" pt_clust_4="106.94628" pt_clust_5="37.51789" pt_clust_6="46.11032"></scales>
<clustering>
<clus scale="   37.518">  1  5  2 -1</clus>
<clus scale="   46.110">  1  6  2 -1</clus>
<clus scale="  106.946">  2  4  1 -1</clus>
<clus scale="   37.518">  1  3  2 -1</clus>
</clustering>
</event>
<event>
 6    0  0.8777103E+002  0.7789449E+02  0.7546771E-02  0.1335135E+00
         21   -1    0    0  504  501  0.00000000000E+00  0.00000000000E+00  0.73741880039E+02  0.73741880039E+02  0.00000000000E+00 0. -1.
         21   -1    0    0  503  502 -0.00000000000E+00 -0.00000000000E+00 -0.91232685165E+03  0.91232685165E+03  0.00000000000E+00 0.  1.
         21    1    1    2  503  506  0.29535625722E+02 -0.12935977449E+02 -0.18119740711E+03  0.18404399758E+03  0.00000000000E+00 0.  1.
         21    1    1    2  504  505 -0.60446827671E+02  0.40531951142E+02 -0.76671412966E+01  0.73180892961E+02  0.00000000000E+00 0. -1.
         21    1    1    2  505  502  0.12012327433E+02  0.78470948424E+02 -0.60823733592E+03  0.61339599164E+03  0.00000000000E+00 0.  1.
         21    1    1    2  506  501  0.18898874516E+02 -0.10606692212E+03 -0.41483087279E+02  0.11544784951E+03  0.00000000000E+00 0. -1.
<scales pt_clust_3="32.24427" pt_clust_4="71.02077" pt_clust_5="14000.00000" pt_clust_6="77.89449"></scales>
<clustering>
<clus scale="   32.244">  2  3  1 -1</clus>
<clus scale="   71.021">  1  4  2 -1</clus>
<clus scale="   77.894">  1  6  2 -1</clus>
<clus scale="   71.021">  1  3  2 -1</clus>
</clustering>
</event>
<event>
 6    0  0.8777103E+002  0.6963594E+02  0.7546771E-02  0.1361335E+00
         21   -1    0    0  506  501  0.00000000000E+00  0.00000000000E+00  0.81009297845E+03  0.81009297845E+03  0.00000000000E+00 0. -1.
         21   -1    0    0  504  502 -0.00000000000E+00 -0.00000000000E+00 -0.23746940174E+04  0.23746940174E+04  0.00000000000E+00 0. -1.
         21    1    1    2  503  505  0.34673960110E+02 -0.77965580168E+02 -0.98570829130E+02  0.13037301698E+03  0.00000000000E+00 0.  1.
         21    1    1    2  504  503  0.29217230739E+02  0.63672814619E+02 -0.22502574739E+04  0.22513477236E+04  0.00000000000E+00 0. -1.
         21    1    1    2  505  501  0.35332247226E+02  0.25746463103E+02  0.49793696795E+03  0.49985245034E+03  0.00000000000E+00 0. -1.
         21    1    1    2  506  502 -0.99223438076E+02 -0.11453697554E+02  0.28629029610E+03  0.30321380492E+03  0.00000000000E+00 0. -1.
<scales pt_clust_3="69.63594" pt_clust_4="14000.00000" pt_clust_5="43.71782" pt_clust_6="67.01799"></scales>
<clustering>
<clus scale="   43.718">  1  5  2 -1</clus>
<clus scale="   67.018">  1  6  2 -1</clus>
<clus scale="   69.636">  1  3  2 -1</clus>
<clus scale="   43.718">  1  3  2 -1</clus>
</clustering>
</event>
<event>
 6    0  0.8777103E+002  0.7766025E+02  0.7546771E-02  0.1335826E+00
         21   -1    0    0  506  501  0.00000000000E+00  0.00000000000E+00  0.48734300130E+02  0.48734300130E+02  0.00000000000E+00 0. -1.
         21   -1    0    0  504  502 -0.00000000000E+00 -0.00000000000E+00 -0.32096805751E+04  0.32096805751E+04  0.00000000000E+00 0.  1.
         21    1    1    2  503  501  0.95828817267E+02  0.81170724669E+02 -0.15977534221E+04  0.16026814551E+04  0.00000000000E+00 0.  1.
         21    1    1    2  504  503  0.21178818116E+02 -0.25106188224E+02 -0.72066415986E+03  0.72141229150E+03  0.00000000000E+00 0.  1.
         21    1    1    2  505  502 -0.66884157270E+02  0.19952145205E+01 -0.85412914403E+03  0.85674620866E+03  0.00000000000E+00 0. -1.
         21    1    1    2  506  505 -0.50123478112E+02 -0.58059750965E+02  0.11600451020E+02  0.77574919943E+02  0.00000000000E+00 0. -1.
<scales pt_clust_3="77.66025" pt_clust_4="32.84605" pt_clust_5="59.97235" pt_clust_6="14000.00000"></scales>
<clustering>
<clus scale="   32.846">  2  4  1 -1</clus>
<clus scale="   59.972">  2  5  1 -1</clus>
<clus scale="   77.660">  2  3  1 -1</clus>
<clus scale="   77.660">  1  3  2 -1</clus>
</clustering>
</event>
<event>
 6    0  0.8777103E+002  0.9441997E+02  0.7546771E-02  0.1292488E+00
         21   -1    0    0  506  501  0.00000000000E+00  0.00000000000E+00  0.18147883687E+04  0.18147883687E+04  0.00000000000E+00 0. -1.
         21   -1    0    0  501  502 -0.00000000000E+00 -0.00000000000E+00 -0.82875531646E+02  0.82875531646E+02  0.00000000000E+00 0. -1.
         21    1    1    2  503  502 -0.16725432787E+02 -0.25028205304E+02 -0.56447619582E+02  0.63972532536E+02  0.00000000000E+00 0. -1.
         21    1    1    2  504  505  0.99115426783E+02  0.43703226042E+01  0.37879452166E+03  0.39157152244E+03  0.00000000000E+00 0. -1.
         21    1    1    2  505  503 -0.68488022389E+02 -0.47162046132E+02  0.97148244433E+02  0.12787747731E+03  0.00000000000E+00 0. -1.
         21    1    1    2  506  504 -0.13901971606E+02  0.67819928832E+02  0.13124176905E+04  0.13142423680E+04  0.00000000000E+00 0. -1.
<scales pt_clust_3="30.10234" pt_clust_4="94.41997" pt_clust_5="14000.00000" pt_clust_6="68.38380"></scales>
<clustering>
<clus scale="   30.102">  2  3  1 -1</clus>
<clus scale="   68.384">  1  6  2 -1</clus>
<clus scale="   94.420">  1  4  2 -1</clus>
<clus scale="   68.384">  1  3  2 -1</clus>
</clustering>
</event>
<event>
 6    0  0.8777103E+002  0.6631431E+02  0.7546771E-02  0.1373095E+00
         21   -1    0    0  506  501  0.00000000000E+00  0.00000000000E+00  0.21630884980E+03  0.21630884980E+03  0.00000000000E+00 0.  1.
         21   -1    0    0  503  502 -0.00000000000E+00 -0.00000000000E+00 -0.18638357660E+03  0.18638357660E+03  0.00000000000E+00 0.  1.
         21    1    1    2  503  505  0.54584960403E+02 -0.40877237286E+02 -0.86977771042E+02  0.11052420136E+03  0.00000000000E+00 0.  1.
         21    1    1    2  504  502 -0.72773613487E+02 -0.28866960811E+02 -0.39818949517E+02  0.87834213078E+02  0.00000000000E+00 0.  1.
         21    1    1    2  505  501  0.56189313296E+02  0.38395446261E+02  0.13355789992E+03  0.14989717093E+03  0.00000000000E+00 0.  1.
         21    1    1    2  506  504 -0.38000660211E+02  0.31348751837E+02  0.23164093836E+02  0.54436841031E+02  0.00000000000E+00 0. -1.
<scales pt_clust_3="64.93079" pt_clust_4="14000.00000" pt_clust_5="66.31431" pt_clust_6="49.26251"></scales>
<clustering>
<clus scale="   49.263">  1  6  2 -1</clus>
<clus scale="   64.931">  2  3  1 -1</clus>
<clus scale="   66.314">  1  5  2 -1</clus>
<clus scale="   49.263">  1  3  2 -1</clus>
</clustering>
</event>
<event>
 6    0  0.8777103E+002  0.1024822E+03  0.7546771E-02  0.1275161E+00
         21   -1    0    0  502  501  0.00000000000E+00  0.00000000000E+00  0.40305243721E+02  0.40305243721E+02  0.00000000000E+00 0. -1.
         21   -1    0    0  505  502 -0.00000000000E+00 -0.00000000000E+00 -0.12744719717E+04  0.12744719717E+04  0.00000000000E+00 0. -1.
         21    1    1    2  503  504  0.82590195093E+02  0.79062075560E+02 -0.65447419477E+03  0.66438574920E+03  0.00000000000E+00 0. -1.
         21    1    1    2  504  506 -0.51682309445E+02 -0.22660551040E+02 -0.33533679175E+02  0.65643501750E+02  0.00000000000E+00 0. -1.
         21    1    1    2  505  503 -0.24674568527E+02 -0.96274138008E+02 -0.53316762433E+03  0.54235160147E+03  0.00000000000E+00 0. -1.
         21    1    1    2  506  501 -0.62333171206E+01  0.39872613488E+02 -0.12991229737E+02  0.42396363037E+02  0.00000000000E+00 0. -1.
<scales pt_clust_3="14000.00000" pt_clust_4="55.64044" pt_clust_5="102.48218" pt_clust_6="40.35690"></scales>
<clustering>
<clus scale="   40.357">  1  6  2 -1</clus>
<clus scale="   55.640">  1  4  2 -1</clus>
<clus scale="  102.482">  2  5  1 -1</clus>
<clus scale="   40.357">  1  3  2 -1</clus>
</clustering>
</event>
<event>
 6    0  0.8777103E+002  0.1108681E+03  0.7546771E-02  0.1258971E+00
         21   -1    0    0  503  501  0.00000000000E+00  0.00000000000E+00  0.30370144027E+03  0.30370144027E+03  0.00000000000E+00 0.  1.
         21   -1    0    0  504  502 -0.00000000000E+00 -0.00000000000E+00 -0.22386700134E+03  0.22386700134E+03  0.00000000000E+00 0. -1.
         21    1    1    2  503  505  0.10884220076E+02 -0.36865327581E+02  0.15362204162E+03  0.15835798147E+03  0.00000000000E+00 0.  1.
         21    1    1    2  504  506 -0.18238357238E+02  0.25478870680E+02 -0.46915076172E+02  0.56416618989E+02  0.00000000000E+00 0. -1.
         21    1    1    2  505  502  0.10832077711E+03  0.42477525930E+02 -0.12346239802E+03  0.16964873913E+03  0.00000000000E+00 0. -1.
         21    1    1    2  506  501 -0.10096663994E+03 -0.31091069030E+02  0.96589871512E+02  0.14314510202E+03  0.00000000000E+00 0.  1.
<scales pt_clust_3="38.03173" pt_clust_4="31.33386" pt_clust_5="110.86810" pt_clust_6="14000.00000"></scales>
<clustering>
<clus scale="   31.334">  2  4  1 -1</clus>
<clus scale="   38.032">  1  3  2 -1</clus>
<clus scale="  110.868">  2  5  1 -1</clus>
<clus scale="   38.032">  1  3  2 -1</clus>
</clustering>
</event>
<event>
 6    0  0.8777103E+002  0.5685671E+02  0.7546771E-02  0.1411517E+00
         21   -1    0    0  505  501  0.00000000000E+00  0.00000000000E+00  0.29539335022E+03  0.29539335022E+03  0.00000000000E+00 0. -1.
         21   -1    0    0  504  502 -0.00000000000E+00 -0.00000000000E+00 -0.22623202340E+03  0.22623202340E+03  0.00000000000E+00 0. -1.
         21    1    1    2  503  506 -0.56638509666E+02  0.65567072383E+01  0.11183589971E+03  0.12553158826E+03  0.00000000000E+00 0. -1.
         21    1    1    2  504  503  0.17237273519E+02 -0.93637475670E+02 -0.88310205455E+02  0.12986066701E+03  0.00000000000E+00 0. -1.
         21    1    1    2  505  502  0.43923693350E+01  0.44274385454E+02 -0.10054136898E+03  0.10994580934E+03  0.00000000000E+00 0. -1.
         21    1    1    2  506  501  0.35008866812E+02  0.42806382977E+02  0.14617700155E+03  0.15628730902E+03  0.00000000000E+00 0. -1.
<scales pt_clust_3="54.80618" pt_clust_4="14000.00000" pt_clust_5="44.49173" pt_clust_6="56.85671"></scales>
<clustering>
<clus scale="   44.492">  2  5  1 -1</clus>
<clus scale="   56.857">  1  6  2 -1</clus>
<clus scale="   54.806">  1  3  2 -1</clus>
<clus scale="   56.857">  1  3  2 -1</clus>
</clustering>
</event>
<event>
 6    0  0.8777103E+002  0.7497472E+02  0.7546771E-02  0.1343949E+00
         21   -1    0    0  503  501  0.00000000000E+00  0.00000000000E+00  0.22256547779E+03  0.22256547779E+03  0.00000000000E+00 0. -1.
         21   -1    0    0  505  502 -0.00000000000E+00 -0.00000000000E+00 -0.13515015833E+03  0.13515015833E+03  0.00000000000E+00 0. -1.
         21    1    1    2  503  506  0.29613893166E+02 -0.63364857272E+02  0.27652104782E+02  0.75211213954E+02  0.00000000000E+00 0. -1.
         21    1    1    2  504  501  0.47400727143E+02  0.79219526268E+02  0.85923303470E+02  0.12611651896E+03  0.00000000000E+00 0. -1.
         21    1    1    2  505  504 -0.21819163555E+02 -0.68310603201E+02 -0.34881909224E+02  0.79744354026E+02  0.00000000000E+00 0. -1.
         21    1    1    2  506  502 -0.55195456753E+02  0.52455934206E+02  0.87218204281E+01  0.76643549182E+02  0.00000000000E+00 0. -1.
<scales pt_clust_3="69.94346" pt_clust_4="14000.00000" pt_clust_5="74.97472" pt_clust_6="60.24211"></scales>
<clustering>
<clus scale="   69.943">  1  3  2 -1</clus>
<clus scale="   60.242">  1  6  2 -1</clus>
<clus scale="   74.975">  2  5  1 -1</clus>
<clus scale="   69.943">  1  3  2 -1</clus>
</clustering>
</event>
<event>
 6    0  0.8777103E+002  0.8037010E+02  0.7546771E-02  0.1328004E+00
         21   -1    0    0  505  501  0.00000000000E+00  0.00000000000E+00  0.14085929181E+03  0.14085929181E+03  0.00000000000E+00 0. -1.
         21   -1    0    0  503  502 -0.00000000000E+00 -0.00000000000E+00 -0.48176579439E+03  0.48176579439E+03  0.00000000000E+00 0.  1.
         21    1    1    2  503  501  0.30585077530E+02 -0.57751703578E+02 -0.14811280805E+03  0.16188919094E+03  0.00000000000E+00 0.  1.
         21    1    1    2  504  506  0.99602518232E+02  0.34470078775E+02 -0.24052171037E+03  0.26260148729E+03  0.00000000000E+00 0.  1.
         21    1    1    2  505  504 -0.79256462112E+02  0.40912101087E+01  0.96576561239E+02  0.12500142786E+03  0.00000000000E+00 0. -1.
         21    1    1    2  506  502 -0.50931133650E+02  0.19190414694E+02 -0.48848545404E+02  0.73132980105E+02  0.00000000000E+00 0. -1.
<scales pt_clust_3="52.04340" pt_clust_4="80.37010" pt_clust_5="14000.00000" pt_clust_6="54.42658"></scales>
<clustering>
<clus scale="   54.427">  2  6  1 -1</clus>
<clus scale="   52.043">  2  3  1 -1</clus>
<clus scale="   80.370">  2  4  1 -1</clus>
<clus scale="   80.370">  1  3  2 -1</clus>
</clustering>
</event>
<event>
 6    0  0.8777103E+002  0.1395933E+03  0.7546771E-02  0.1213877E+00
         21   -1    0    0  506  501  0.00000000000E+00  0.00000000000E+00  0.93452612620E+03  0.93452612620E+03  0.00000000000E+00 0.  1.
         21   -1    0    0  505  502 -0.00000000000E+00 -0.00000000000E+00 -0.11278435420E+04  0.11278435420E+04  0.00000000000E+00 0.  1.
         21    1    1    2  503  501 -0.61828319741E+02  0.49790099363E+02  0.56935462473E+03  0.57486214332E+03  0.00000000000E+00 0.  1.
         21    1    1    2  504  502 -0.12883541168E+03  0.11278461687E+02 -0.75827028416E+02  0.14991832857E+03  0.00000000000E+00 0.  1.
         21    1    1    2  505  503  0.13398208512E+03 -0.45197597779E+02 -0.10045624654E+04  0.10144652625E+04  0.00000000000E+00 0.  1.
         21    1    1    2  506  504  0.56681646308E+02 -0.15870963271E+02  0.31771745326E+03  0.32312393382E+03  0.00000000000E+00 0.  1.
<scales pt_clust_3="36.14872" pt_clust_4="14000.00000" pt_clust_5="139.59331" pt_clust_6="58.86167"></scales>
<clustering>
<clus scale="   58.862">  1  6  2 -1</clus>
<clus scale="   36.149">  1  3  2 -1</clus>
<clus scale="  139.593">  2  5  1 -1</clus>
<clus scale="   58.862">  1  3  2 -1</clus>
</clustering>
</event>
<event>
 6    0  0.8777103E+002  0.1286490E+03  0.7546771E-02  0.1229474E+00
         21   -1    0    0  506  501  0.00000000000E+00  0.00000000000E+00  0.25951035957E+03  0.25951035957E+03  0.00000000000E+00 0. -1.
         21   -1    0    0  505  502 -0.00000000000E+00 -0.00000000000E+00 -0.16670859538E+04  0.16670859538E+04  0.00000000000E+00 0.  1.
         21    1    1    2  503  502 -0.12109062939E+03  0.69843982410E+01 -0.11778754966E+04  0.11841040528E+04  0.00000000000E+00 0.  1.
         21    1    1    2  504  503  0.17541182974E+03 -0.24188833183E+02 -0.36575015490E+03  0.40635893674E+03  0.00000000000E+00 0.  1.
         21    1    1    2  505  501 -0.21910171873E+02  0.51873439369E+02 -0.89446947402E+02  0.10569610089E+03  0.00000000000E+00 0. -1.
         21    1    1    2  506  504 -0.32411028475E+02 -0.34669004426E+02  0.22549700464E+03  0.23043722298E+03  0.00000000000E+00 0. -1.
<scales pt_clust_3="14000.00000" pt_clust_4="128.64899" pt_clust_5="52.53313" pt_clust_6="47.45961"></scales>
<clustering>
<clus scale="   47.460">  1  6  2 -1</clus>
<clus scale="   52.533">  1  5  2 -1</clus>
<clus scale="  128.649">  1  4  2 -1</clus>
<clus scale="   47.460">  1  3  2 -1</clus>
</clustering>
</event>
<event>
 6    0  0.8777103E+002  0.1234391E+03  0.7546771E-02  0.1237529E+00
         21   -1    0    0  503  501  0.00000000000E+00  0.00000000000E+00  0.13516362810E+03  0.13516362810E+03  0.00000000000E+00 0.  1.
         21   -1    0    0  506  502 -0.00000000000E+00 -0.00000000000E+00 -0.76815123487E+03  0.76815123487E+03  0.00000000000E+00 0. -1.
         21    1    1    2  503  504 -0.10012087432E+03 -0.62629801345E+02 -0.42260917161E+03  0.43879971903E+03  0.00000000000E+00 0. -1.
         21    1    1    2  504  502  0.29313419481E+02 -0.26535681211E+02 -0.30582988269E+03  0.30837531692E+03  0.00000000000E+00 0. -1.
         21    1    1    2  505  501  0.44379256732E+02  0.23693501803E+02  0.55928782442E+02  0.75225854340E+02  0.00000000000E+00 0.  1.
         21    1    1    2  506  505  0.26428198104E+02  0.65471980753E+02  0.39522665097E+02  0.80913972681E+02  0.00000000000E+00 0.  1.
<scales pt_clust_3="113.72211" pt_clust_4="39.54009" pt_clust_5="40.80819" pt_clust_6="40.80819"></scales>
<clustering>
<clus scale="   39.540">  2  4  1 -1</clus>
<clus scale="   40.808">  5  6 -1 -1</clus>
<clus scale="  113.722">  2  3  1 -1</clus>
<clus scale="  123.439">  1  3  2 -1</clus>
</clustering>
</event>
<event>
 6    0  0.8777103E+002  0.4005259E+03  0.7546771E-02  0.1043598E+00
         21   -1    0    0  504  501  0.00000000000E+00  0.00000000000E+00  0.12458291959E+04  0.12458291959E+04  0.00000000000E+00 0. -1.
         21   -1    0    0  503  502 -0.00000000000E+00 -0.00000000000E+00 -0.57094085517E+03  0.57094085517E+03  0.00000000000E+00 0.  1.
         21    1    1    2  503  501  0.12186090842E+03 -0.51656924666E+03 -0.11710476207E+03  0.54351393073E+03  0.00000000000E+00 0.  1.
         21    1    1    2  504  505 -0.15510973051E+03  0.35255614533E+03  0.85556854258E+03  0.93827096041E+03  0.00000000000E+00 0. -1.
         21    1    1    2  505  506 -0.80493624228E+01  0.18978546243E+03  0.62390798503E+02  0.19993980525E+03  0.00000000000E+00 0. -1.
         21    1    1    2  506  502  0.41298184515E+02 -0.25772361101E+02 -0.12596623826E+03  0.13504535469E+03  0.00000000000E+00 0.  1.
<scales pt_clust_3="14000.00000" pt_clust_4="400.52590" pt_clust_5="185.76797" pt_clust_6="48.68013"></scales>
<clustering>
<clus scale="   48.680">  2  6  1 -1</clus>
<clus scale="  185.768">  2  5  1 -1</clus>
<clus scale="  400.526">  1  4  2 -1</clus>
<clus scale="  400.526">  1  3  2 -1</clus>
</clustering>
</event>
<event>
 6    0  0.8777103E+002  0.1265470E+03  0.7546771E-02  0.1232671E+00
         21   -1    0    0  506  501  0.00000000000E+00  0.00000000000E+00  0.57236409716E+03  0.57236409716E+03  0.00000000000E+00 0.  1.
         21   -1    0    0  503  502 -0.00000000000E+00 -0.00000000000E+00 -0.12953728535E+03  0.12953728535E+03  0.00000000000E+00 0.  1.
         21    1    1    2  503  504  0.11229039604E+03  0.12322469103E+03  0.14790398108E+03  0.22286553153E+03  0.00000000000E+00 0.  1.
         21    1    1    2  504  501  0.17682567485E+02  0.30958133173E+02  0.19773165624E+03  0.20092010124E+03  0.00000000000E+00 0.  1.
         21    1    1    2  505  502 -0.70106212322E+02 -0.50556552418E+02 -0.40696657039E+02  0.95535668170E+02  0.00000000000E+00 0.  1.
         21    1    1    2  506  505 -0.59866751204E+02 -0.10362627178E+03  0.13788783153E+03  0.18258008157E+03  0.00000000000E+00 0.  1.
<scales pt_clust_3="126.54699" pt_clust_4="35.65220" pt_clust_5="84.05588" pt_clust_6="14000.00000"></scales>
<clustering>
<clus scale="   35.652">  1  4  2 -1</clus>
<clus scale="   84.056">  2  5  1 -1</clus>
<clus scale="  126.547">  2  3  1 -1</clus>
<clus scale="   35.652">  1  3  2 -1</clus>
</clustering>
</event>
<event>
 6    0  0.8777103E+002  0.2738126E+03  0.7546771E-02  0.1099117E+00
         21   -1    0    0  503  501  0.00000000000E+00  0.00000000000E+00  0.12420848393E+03  0.12420848393E+03  0.00000000000E+00 0.  1.
         21   -1    0    0  506  502 -0.00000000000E+00 -0.00000000000E+00 -0.11247306222E+04  0.11247306222E+04  0.00000000000E+00 0.  1.
         21    1    1    2  503  505 -0.22543448143E+03  0.98512401807E+02 -0.55671100458E+02  0.25223931127E+03  0.00000000000E+00 0.  1.
         21    1    1    2  504  502  0.54380433021E+02  0.11110015747E+02 -0.23889905627E+03  0.24526194778E+03  0.00000000000E+00 0.  1.
         21    1    1    2  505  504  0.16559370186E+03 -0.14121245082E+03 -0.66324374392E+03  0.69803616971E+03  0.00000000000E+00 0.  1.
         21    1    1    2  506  501  0.54603465460E+01  0.31590033268E+02 -0.42708237650E+02  0.53401677403E+02  0.00000000000E+00 0. -1.
<scales pt_clust_3="253.65115" pt_clust_4="52.51257" pt_clust_5="52.51257" pt_clust_6="32.05847"></scales>
<clustering>
<clus scale="   32.058">  1  6  2 -1</clus>
<clus scale="   52.513">  4  5 -1 -1</clus>
<clus scale="  253.651">  1  3  2 -1</clus>
<clus scale="   32.058">  1  3  2 -1</clus>
</clustering>
</event>
<event>
 6    0  0.8777103E+002  0.1121586E+03  0.7546771E-02  0.1256624E+00
         21   -1    0    0  505  501  0.00000000000E+00  0.00000000000E+00  0.11594150805E+03  0.11594150805E+03  0.00000000000E+00 0.  1.
         21   -1    0    0  506  502 -0.00000000000E+00 -0.00000000000E+00 -0.24459382738E+03  0.24459382738E+03  0.00000000000E+00 0. -1.
         21    1    1    2  503  502 -0.41858806237E+01  0.44155140048E+02 -0.81963231961E+02  0.93194256168E+02  0.00000000000E+00 0.  1.
         21    1    1    2  504  501  0.48447394696E+02 -0.70765364373E+02 -0.31557391317E+02  0.91382469842E+02  0.00000000000E+00 0.  1.
         21    1    1    2  505  503 -0.78012341281E+02  0.56610119866E+02  0.40289938533E+02  0.10446966167E+03  0.00000000000E+00 0.  1.
         21    1    1    2  506  504  0.33750827210E+02 -0.29999895540E+02 -0.55421634584E+02  0.71488947745E+02  0.00000000000E+00 0. -1.
<scales pt_clust_3="44.35311" pt_clust_4="32.86689" pt_clust_5="102.60602" pt_clust_6="32.86689"></scales>
<clustering>
<clus scale="   32.867">  4  6 -1 -1</clus>
<clus scale="   44.353">  2  3  1 -1</clus>
<clus scale="  102.606">  1  5  2 -1</clus>
<clus scale="  102.606">  1  3  2 -1</clus>
</clustering>
</event>
<event>
 6    0  0.8777103E+002  0.1489026E+03  0.7546771E-02  0.1201828E+00
         21   -1    0    0  504  501  0.00000000000E+00  0.00000000000E+00  0.25148786264E+04  0.25148786264E+04  0.00000000000E+00 0.  1.
         21   -1    0    0  506  502 -0.00000000000E+00 -0.00000000000E+00 -0.17452477854E+03  0.17452477854E+03  0.00000000000E+00 0.  1.
         21    1    1    2  503  501  0.21877043222E+02  0.24204700558E+02  0.14428584327E+04  0.14432272618E+04  0.00000000000E+00 0.  1.
         21    1    1    2  504  502  0.17558807080E+01 -0.46877510439E+02  0.63843512627E+02  0.79224858514E+02  0.00000000000E+00 0. -1.
         21    1    1    2  505  503  0.11469609317E+03  0.79004119607E+02  0.96077544062E+03  0.97081733195E+03  0.00000000000E+00 0.  1.
         21    1    1    2  506  505 -0.13832901710E+03 -0.56331309725E+02 -0.12712353811E+03  0.19613395261E+03  0.00000000000E+00 0.  1.
<scales pt_clust_3="32.62626" pt_clust_4="45.37620" pt_clust_5="148.90261" pt_clust_6="14000.00000"></scales>
<clustering>
<clus scale="   32.626">  1  3  2 -1</clus>
<clus scale="   45.376">  1  4  2 -1</clus>
<clus scale="  148.903">  1  5  2 -1</clus>
<clus scale="   32.626">  1  3  2 -1</clus>
</clustering>
</event>
<event>
 6    0  0.8777103E+002  0.1000292E+03  0.7546771E-02  0.1280235E+00
         21   -1    0    0  505  501  0.00000000000E+00  0.00000000000E+00  0.12810514277E+04  0.12810514277E+04  0.00000000000E+00 0. -1.
         21   -1    0    0  506  502 -0.00000000000E+00 -0.00000000000E+00 -0.13515873307E+03  0.13515873307E+03  0.00000000000E+00 0. -1.
         21    1    1    2  503  502 -0.13894390853E+03  0.34513874387E+02  0.24068703183E+03  0.28004796827E+03  0.00000000000E+00 0. -1.
         21    1    1    2  504  501  0.25998586132E+02  0.23316218525E+02  0.91308845488E+03  0.91375603908E+03  0.00000000000E+00 0. -1.
         21    1    1    2  505  503  0.26706668316E+02 -0.13764273558E+02  0.83814636171E+02  0.89037040582E+02  0.00000000000E+00 0. -1.
         21    1    1    2  506  504  0.86238654078E+02 -0.44065819354E+02 -0.91697428294E+02  0.13336911280E+03  0.00000000000E+00 0. -1.
<scales pt_clust_3="14000.00000" pt_clust_4="48.14909" pt_clust_5="30.04499" pt_clust_6="100.02919"></scales>
<clustering>
<clus scale="   30.045">  1  5  2 -1</clus>
<clus scale="   48.149">  1  4  2 -1</clus>
<clus scale="  100.029">  2  6  1 -1</clus>
<clus scale="   30.045">  1  3  2 -1</clus>
</clustering>
</event>
<event>
 6    0  0.8777103E+002  0.1661285E+03  0.7546771E-02  0.1181946E+00
         21   -1    0    0  505  501  0.00000000000E+00  0.00000000000E+00  0.17866285609E+04  0.17866285609E+04  0.00000000000E+00 0. -1.
         21   -1    0    0  506  502 -0.00000000000E+00 -0.00000000000E+00 -0.33494832436E+02  0.33494832436E+02  0.00000000000E+00 0.  1.
         21    1    1    2  503  501 -0.13322450078E+03 -0.25815003923E+00  0.32681325729E+03  0.35292455198E+03  0.00000000000E+00 0.  1.
         21    1    1    2  504  502  0.61953651094E+02  0.23165253886E+02  0.45931059778E+03  0.46404860641E+03  0.00000000000E+00 0.  1.
         21    1    1    2  505  504  0.10858244149E+03 -0.15224102332E+02  0.95767180694E+03  0.96392801064E+03  0.00000000000E+00 0. -1.
         21    1    1    2  506  503 -0.37311591809E+02 -0.76830015151E+01  0.93380664663E+01  0.39222224324E+02  0.00000000000E+00 0.  1.
<scales pt_clust_3="159.58139" pt_clust_4="35.86649" pt_clust_5="35.86649" pt_clust_6="38.09440"></scales>
<clustering>
<clus scale="   35.866">  4  5 -1 -1</clus>
<clus scale="   38.094">  2  6  1 -1</clus>
<clus scale="  159.581">  2  3  1 -1</clus>
<clus scale="  166.129">  1  3  2 -1</clus>
</clustering>
</event>
<event>
 6    0  0.8777103E+002  0.1497113E+03  0.7546771E-02  0.1200828E+00
         21   -1    0    0  503  501  0.00000000000E+00  0.00000000000E+00  0.20320744658E+03  0.20320744658E+03  0.00000000000E+00 0.  1.
         21   -1    0    0  501  502 -0.00000000000E+00 -0.00000000000E+00 -0.72332164311E+03  0.72332164311E+03  0.00000000000E+00 0.  1.
         21    1    1    2  503  504  0.39748101468E+02 -0.66350581392E+02  0.11068582203E+03  0.13503207922E+03  0.00000000000E+00 0.  1.
         21    1    1    2  504  506  0.85597939183E+02 -0.90249560488E+01  0.45439987094E+02  0.97330619290E+02  0.00000000000E+00 0.  1.
         21    1    1    2  505  502 -0.85936274030E+02  0.66634756550E+02 -0.38221916211E+03  0.39738737003E+03  0.00000000000E+00 0.  1.
         21    1    1    2  506  505 -0.39409766621E+02  0.87407808914E+01 -0.29402084354E+03  0.29677902114E+03  0.00000000000E+00 0. -1.
<scales pt_clust_3="77.34540" pt_clust_4="138.70888" pt_clust_5="34.32187" pt_clust_6="34.32187"></scales>
<clustering>
<clus scale="   34.322">  5  6 -1 -1</clus>
<clus scale="   77.345">  1  3  2 -1</clus>
<clus scale="  138.709">  1  4  2 -1</clus>
<clus scale="   77.345">  1  3  2 -1</clus>
</clustering>
</event>
<event>
 6    0  0.8777103E+002  0.8822172E+02  0.7546771E-02  0.1307216E+00
         21   -1    0    0  502  501  0.00000000000E+00  0.00000000000E+00  0.35317592661E+02  0.35317592661E+02  0.00000000000E+00 0. -1.
         21   -1    0    0  506  502 -0.00000000000E+00 -0.00000000000E+00 -0.11926546725E+04  0.11926546725E+04  0.00000000000E+00 0. -1.
         21    1    1    2  503  504  0.18824109145E+01  0.80905305179E+02 -0.45249963810E+03  0.45967938213E+03  0.00000000000E+00 0. -1.
         21    1    1    2  504  505  0.11500181228E+02 -0.84952716133E+02 -0.14357382371E+03  0.16722039649E+03  0.00000000000E+00 0. -1.
         21    1    1    2  505  501 -0.60663910188E+02 -0.83197279103E+01 -0.31129476220E+02  0.68690408075E+02  0.00000000000E+00 0. -1.
         21    1    1    2  506  503  0.47281318045E+02  0.12367138865E+02 -0.53013414185E+03  0.53238207850E+03  0.00000000000E+00 0. -1.
<scales pt_clust_3="88.22172" pt_clust_4="14000.00000" pt_clust_5="57.57180" pt_clust_6="48.87197"></scales>
<clustering>
<clus scale="   48.872">  2  6  1 -1</clus>
<clus scale="   57.572">  1  5  2 -1</clus>
<clus scale="   88.222">  2  3  1 -1</clus>
<clus scale="   57.572">  1  3  2 -1</clus>
</clustering>
</event>
<event>
 6    0  0.8777103E+002  0.6285825E+02  0.7546771E-02  0.1386214E+00
         21   -1    0    0  504  501  0.00000000000E+00  0.00000000000E+00  0.27369317872E+03  0.27369317872E+03  0.00000000000E+00 0. -1.
         21   -1    0    0  506  502 -0.00000000000E+00 -0.00000000000E+00 -0.19223768250E+03  0.19223768250E+03  0.00000000000E+00 0.  1.
         21    1    1    2  503  505  0.74757869582E+02 -0.82743814654E+02 -0.85494995763E+02  0.14051573659E+03  0.00000000000E+00 0.  1.
         21    1    1    2  504  502 -0.14035882554E+02  0.37310120473E+02 -0.24671955409E+02  0.46880235414E+02  0.00000000000E+00 0.  1.
         21    1    1    2  505  501 -0.17512240840E+02  0.58864131232E+02  0.21777708488E+03  0.22627090671E+03  0.00000000000E+00 0. -1.
         21    1    1    2  506  503 -0.43209746189E+02 -0.13430437051E+02 -0.26154637485E+02  0.52263982503E+02  0.00000000000E+00 0. -1.
<scales pt_clust_3="62.85825" pt_clust_4="39.86290" pt_clust_5="14000.00000" pt_clust_6="46.90497"></scales>
<clustering>
<clus scale="   39.863">  2  4  1 -1</clus>
<clus scale="   46.905">  2  6  1 -1</clus>
<clus scale="   62.858">  2  3  1 -1</clus>
<clus scale="   62.858">  1  3  2 -1</clus>
</clustering>
</event>
<event>
 6    0  0.8777103E+002  0.9246771E+02  0.7546771E-02  0.1296983E+00
         21   -1    0    0  504  501  0.00000000000E+00  0.00000000000E+00  0.77727562478E+02  0.77727562478E+02  0.00000000000E+00 0. -1.
         21   -1    0    0  505  502 -0.00000000000E+00 -0.00000000000E+00 -0.71610847108E+03  0.71610847108E+03  0.00000000000E+00 0. -1.
         21    1    1    2  503  501  0.19908921654E+02 -0.52771812182E+02 -0.47713826031E+01  0.56603846286E+02  0.00000000000E+00 0. -1.
         21    1    1    2  504  506 -0.21637285492E+02  0.21094283600E+02  0.31675141908E+02  0.43777340474E+02  0.00000000000E+00 0. -1.
         21    1    1    2  505  503  0.80515851251E+02 -0.27001508958E+02 -0.18986839581E+03  0.20799493147E+03  0.00000000000E+00 0. -1.
         21    1    1    2  506  502 -0.78787487412E+02  0.58679037540E+02 -0.47541627210E+03  0.48545991533E+03  0.00000000000E+00 0. -1.
<scales pt_clust_3="39.54631" pt_clust_4="30.21822" pt_clust_5="14000.00000" pt_clust_6="92.46771"></scales>
<clustering>
<clus scale="   30.218">  1  4  2 -1</clus>
<clus scale="   39.546">  1  3  2 -1</clus>
<clus scale="   92.468">  2  6  1 -1</clus>
<clus scale="   30.218">  1  3  2 -1</clus>
</clustering>
</event>
<event>
 6    0  0.8777103E+002  0.1915407E+03  0.7546771E-02  0.1157079E+00
         21   -1    0    0  506  501  0.00000000000E+00  0.00000000000E+00  0.38043552822E+03  0.38043552822E+03  0.00000000000E+00 0. -1.
         21   -1    0    0  503  502 -0.00000000000E+00 -0.00000000000E+00 -0.39345741892E+03  0.39345741892E+03  0.00000000000E+00 0. -1.
         21    1    1    2  503  501 -0.33581005900E+02  0.13593785857E+02 -0.17110627776E+03  0.17489949474E+03  0.00000000000E+00 0. -1.
         21    1    1    2  504  502  0.30235295288E+02  0.16637542313E+03 -0.15613817448E+03  0.23016099590E+03  0.00000000000E+00 0. -1.
         21    1    1    2  505  504  0.64082543988E+01 -0.13137654159E+03  0.16010246367E+03  0.20720439251E+03  0.00000000000E+00 0. -1.
         21    1    1    2  506  505 -0.30625437874E+01 -0.48592667404E+02  0.15412009787E+03  0.16162806399E+03  0.00000000000E+00 0. -1.
<scales pt_clust_3="36.22810" pt_clust_4="178.28737" pt_clust_5="42.76869" pt_clust_6="42.76869"></scales>
<clustering>
<clus scale="   36.228">  2  3  1 -1</clus>
<clus scale="   42.769">  5  6 -1 -1</clus>
<clus scale="  178.287">  2  4  1 -1</clus>
<clus scale="  191.541">  1  3  2 -1</clus>
</clustering>
</event>
<event>
 6    0  0.8777103E+002  0.7541519E+02  0.7546771E-02  0.1342590E+00
         21   -1    0    0  505  501  0.00000000000E+00  0.00000000000E+00  0.75697077943E+03  0.75697077943E+03  0.00000000000E+00 0. -1.
         21   -1    0    0  506  502 -0.00000000000E+00 -0.00000000000E+00 -0.32190562355E+02  0.32190562355E+02  0.00000000000E+00 0. -1.
         21    1    1    2  503  502  0.93425849281E+02 -0.17971039673E+02  0.26328699578E+03  0.27994890557E+03  0.00000000000E+00 0. -1.
         21    1    1    2  504  501 -0.13077105776E+02  0.27010309791E+02  0.10762252240E+03  0.11172812922E+03  0.00000000000E+00 0. -1.
         21    1    1    2  505  503 -0.24329992906E+02 -0.55216586886E+02  0.30272368217E+03  0.30867855087E+03  0.00000000000E+00 0. -1.
         21    1    1    2  506  504 -0.56018750599E+02  0.46177316768E+02  0.51147016731E+02  0.88805756137E+02  0.00000000000E+00 0. -1.
<scales pt_clust_3="14000.00000" pt_clust_4="30.00946" pt_clust_5="52.28281" pt_clust_6="75.41519"></scales>
<clustering>
<clus scale="   30.009">  1  4  2 -1</clus>
<clus scale="   52.283">  1  5  2 -1</clus>
<clus scale="   75.415">  2  6  1 -1</clus>
<clus scale="   30.009">  1  3  2 -1</clus>
</clustering>
</event>
<event>
 6    0  0.8777103E+002  0.9386742E+02  0.7546771E-02  0.1293748E+00
         21   -1    0    0  504  501  0.00000000000E+00  0.00000000000E+00  0.15572787455E+03  0.15572787455E+03  0.00000000000E+00 0.  1.
         21   -1    0    0  503  502 -0.00000000000E+00 -0.00000000000E+00 -0.34086847607E+03  0.34086847607E+03  0.00000000000E+00 0.  1.
         21    1    1    2  503  506  0.62623138085E+02  0.11253814158E+01 -0.95173529910E+02  0.11393386109E+03  0.00000000000E+00 0. -1.
         21    1    1    2  504  505  0.31986471284E+02 -0.60647036307E+02  0.25854352959E+01  0.68614006105E+02  0.00000000000E+00 0.  1.
         21    1    1    2  505  502 -0.12574008298E+02 -0.29497630834E+02 -0.16824750653E+03  0.17127591589E+03  0.00000000000E+00 0.  1.
         21    1    1    2  506  501 -0.82035601071E+02  0.89019285725E+02  0.75694999629E+02  0.14277256754E+03  0.00000000000E+00 0.  1.
<scales pt_clust_3="57.48012" pt_clust_4="93.86742" pt_clust_5="32.06581" pt_clust_6="14000.00000"></scales>
<clustering>
<clus scale="   32.066">  2  5  1 -1</clus>
<clus scale="   57.480">  2  3  1 -1</clus>
<clus scale="   93.867">  1  4  2 -1</clus>
<clus scale="   93.867">  1  3  2 -1</clus>
</clustering>
</event>
<event>
 6    0  0.8777103E+002  0.1225747E+03  0.7546771E-02  0.1238909E+00
         21   -1    0    0  504  501  0.00000000000E+00  0.00000000000E+00  0.48076103756E+03  0.48076103756E+03  0.00000000000E+00 0. -1.
         21   -1    0    0  506  502 -0.00000000000E+00 -0.00000000000E+00 -0.24054094551E+03  0.24054094551E+03  0.00000000000E+00 0. -1.
         21    1    1    2  503  505 -0.82144249115E+02 -0.43610763576E+02 -0.25811025251E+02  0.96518316329E+02  0.00000000000E+00 0. -1.
         21    1    1    2  504  502  0.16589142976E+03 -0.37897541179E+02  0.36326647388E+03  0.40114675761E+03  0.00000000000E+00 0. -1.
         21    1    1    2  505  501 -0.33820523866E+02  0.37981449490E+02  0.44251268274E+02  0.67413597172E+02  0.00000000000E+00 0. -1.
         21    1    1    2  506  503 -0.49926656778E+02  0.43526855265E+02 -0.14148662486E+03  0.15622331196E+03  0.00000000000E+00 0. -1.
<scales pt_clust_3="14000.00000" pt_clust_4="122.57467" pt_clust_5="50.85684" pt_clust_6="67.11132"></scales>
<clustering>
<clus scale="   50.857">  1  5  2 -1</clus>
<clus scale="   67.111">  2  6  1 -1</clus>
<clus scale="  122.575">  1  4  2 -1</clus>
<clus scale="   50.857">  1  3  2 -1</clus>
</clustering>
</event>
<event>
 6    0  0.8777103E+002  0.8807585E+02  0.7546771E-02  0.1307579E+00
         21   -1    0    0  502  501  0.00000000000E+00  0.00000000000E+00  0.48869419448E+03  0.48869419448E+03  0.00000000000E+00 0.  1.
         21   -1    0    0  503  502 -0.00000000000E+00 -0.00000000000E+00 -0.18324770648E+04  0.18324770648E+04  0.00000000000E+00 0. -1.
         21    1    1    2  503  506 -0.45599286297E+02  0.15862199429E+02 -0.14610811336E+04  0.14618785802E+04  0.00000000000E+00 0. -1.
         21    1    1    2  504  501  0.58470070002E+02  0.22586996754E+02  0.40530467240E+03  0.41012290716E+03  0.00000000000E+00 0.  1.
         21    1    1    2  505  504 -0.20185201902E+02  0.61272286175E+02  0.59379933449E+02  0.87679598113E+02  0.00000000000E+00 0. -1.
         21    1    1    2  506  505  0.73144181976E+01 -0.99721482358E+02 -0.34738634256E+03  0.36149017380E+03  0.00000000000E+00 0. -1.
<scales pt_clust_3="48.27944" pt_clust_4="62.44234" pt_clust_5="88.07585" pt_clust_6="14000.00000"></scales>
<clustering>
<clus scale="   48.279">  2  3  1 -1</clus>
<clus scale="   62.442">  1  4  2 -1</clus>
<clus scale="   88.076">  1  5  2 -1</clus>
<clus scale="   62.442">  1  3  2 -1</clus>
</clustering>
</event>
<event>
 6    0  0.8777103E+002  0.1202019E+03  0.7546771E-02  0.1242764E+00
         21   -1    0    0  504  501  0.00000000000E+00  0.00000000000E+00  0.61089089292E+03  0.61089089292E+03  0.00000000000E+00 0. -1.
         21   -1    0    0  503  502 -0.00000000000E+00 -0.00000000000E+00 -0.65408046305E+02  0.65408046305E+02  0.00000000000E+00 0. -1.
         21    1    1    2  503  505  0.38699692567E+02 -0.25197259043E+02  0.41867598252E+02  0.62333489004E+02  0.00000000000E+00 0. -1.
         21    1    1    2  504  502 -0.63075567542E+02  0.88909241009E+02  0.16727665289E+03  0.19966186156E+03  0.00000000000E+00 0. -1.
         21    1    1    2  505  506  0.61772584329E+02 -0.21425101154E+02 -0.75458029549E+01  0.65816610945E+02  0.00000000000E+00 0. -1.
         21    1    1    2  506  501 -0.37396709353E+02 -0.42286880812E+02  0.34388439842E+03  0.34848697772E+03  0.00000000000E+00 0.  1.
<scales pt_clust_3="45.84809" pt_clust_4="107.10904" pt_clust_5="45.84809" pt_clust_6="56.45081"></scales>
<clustering>
<clus scale="   45.848">  3  5 -1 -1</clus>
<clus scale="   56.451">  1  6  2 -1</clus>
<clus scale="  107.109">  1  4  2 -1</clus>
<clus scale="   56.451">  1  3  2 -1</clus>
</clustering>
</event>
<event>
 6    0  0.8777103E+002  0.8062483E+02  0.7546771E-02  0.1327288E+00
         21   -1    0    0  506  501  0.00000000000E+00  0.00000000000E+00  0.33256649062E+03  0.33256649062E+03  0.00000000000E+00 0. -1.
         21   -1    0    0  503  502 -0.00000000000E+00 -0.00000000000E+00 -0.19786684761E+03  0.19786684761E+03  0.00000000000E+00 0. -1.
         21    1    1    2  503  504  0.57329807281E+02 -0.74183715189E+01 -0.49058589850E+02  0.75818759400E+02  0.00000000000E+00 0. -1.
         21    1    1    2  504  501  0.33284058222E+02  0.16517089669E+02  0.64562347840E+02  0.74491204457E+02  0.00000000000E+00 0. -1.
         21    1    1    2  505  502 -0.11496904364E+03 -0.52510757305E+02 -0.96334162775E+02  0.15891989034E+03  0.00000000000E+00 0. -1.
         21    1    1    2  506  505  0.24355178133E+02  0.43412039155E+02  0.21553004779E+03  0.22120348403E+03  0.00000000000E+00 0. -1.
<scales pt_clust_3="59.38832" pt_clust_4="37.15700" pt_clust_5="80.62483" pt_clust_6="14000.00000"></scales>
<clustering>
<clus scale="   37.157">  1  4  2 -1</clus>
<clus scale="   59.388">  2  3  1 -1</clus>
<clus scale="   80.625">  2  5  1 -1</clus>
<clus scale="   37.157">  1  3  2 -1</clus>
</clustering>
</event>
<event>
 6    0  0.8777103E+002  0.9655818E+02  0.7546771E-02  0.1287705E+00
         21   -1    0    0  505  501  0.00000000000E+00  0.00000000000E+00  0.10449700746E+04  0.10449700746E+04  0.00000000000E+00 0.  1.
         21   -1    0    0  504  502 -0.00000000000E+00 -0.00000000000E+00 -0.20670840735E+03  0.20670840735E+03  0.00000000000E+00 0. -1.
         21    1    1    2  503  502  0.29636783341E+02 -0.10347982503E+02  0.24138337246E+02  0.39598977179E+02  0.00000000000E+00 0.  1.
         21    1    1    2  504  506 -0.42701833276E+02  0.28837729910E+02 -0.10548093044E+03  0.11739373032E+03  0.00000000000E+00 0. -1.
         21    1    1    2  505  503  0.60026411403E+01 -0.96896137925E+02  0.98656856986E+03  0.99133366547E+03  0.00000000000E+00 0.  1.
         21    1    1    2  506  501  0.70624087950E+01  0.78406390519E+02 -0.66964309428E+02  0.10335210897E+03  0.00000000000E+00 0. -1.
<scales pt_clust_3="31.39139" pt_clust_4="34.81895" pt_clust_5="14000.00000" pt_clust_6="96.55818"></scales>
<clustering>
<clus scale="   31.391">  2  3  1 -1</clus>
<clus scale="   34.819">  2  4  1 -1</clus>
<clus scale="   96.558">  2  6  1 -1</clus>
<clus scale="   96.558">  1  3  2 -1</clus>
</clustering>
</event>
<event>
 6    0  0.8777103E+002  0.8184415E+02  0.7546771E-02  0.1323898E+00
         21   -1    0    0  505  501  0.00000000000E+00  0.00000000000E+00  0.24168420019E+03  0.24168420019E+03  0.00000000000E+00 0. -1.
         21   -1    0    0  506  502 -0.00000000000E+00 -0.00000000000E+00 -0.15059224852E+04  0.15059224852E+04  0.00000000000E+00 0. -1.
         21    1    1    2  503  501 -0.15098957156E+02  0.97876396655E+02  0.90472198246E+01  0.99446567140E+02  0.00000000000E+00 0. -1.
         21    1    1    2  504  502  0.14628647768E+02 -0.59552976632E+02  0.66979765509E+02  0.90812132167E+02  0.00000000000E+00 0. -1.
         21    1    1    2  505  504  0.44910111425E+02 -0.18520372526E+02  0.10267521787E+03  0.11358751107E+03  0.00000000000E+00 0. -1.
         21    1    1    2  506  503 -0.44439802037E+02 -0.19803047498E+02 -0.14429404882E+04  0.14437604750E+04  0.00000000000E+00 0. -1.
<scales pt_clust_3="81.84415" pt_clust_4="14000.00000" pt_clust_5="48.57903" pt_clust_6="48.54974"></scales>
<clustering>
<clus scale="   48.579">  1  5  2 -1</clus>
<clus scale="   48.550">  2  6  1 -1</clus>
<clus scale="   81.844">  2  3  1 -1</clus>
<clus scale="   48.579">  1  3  2 -1</clus>
</clustering>
</event>
<event>
 6    0  0.8777103E+002  0.7604555E+02  0.7546771E-02  0.1340664E+00
         21   -1    0    0  503  501  0.00000000000E+00  0.00000000000E+00  0.11903635661E+04  0.11903635661E+04  0.00000000000E+00 0.  1.
         21   -1    0    0  505  502 -0.00000000000E+00 -0.00000000000E+00 -0.10287788145E+03  0.10287788145E+03  0.00000000000E+00 0.  1.
         21    1    1    2  503  502 -0.90944840708E+02 -0.36869039548E+02  0.15004217534E+03  0.17928453505E+03  0.00000000000E+00 0.  1.
         21    1    1    2  504  501  0.21931305245E+02 -0.32414778289E+02  0.88368408849E+03  0.88455031979E+03  0.00000000000E+00 0.  1.
         21    1    1    2  505  506  0.64564403800E+02 -0.14714418755E+02 -0.59025969921E+02  0.88708181598E+02  0.00000000000E+00 0.  1.
         21    1    1    2  506  504  0.44491316624E+01  0.83998236593E+02  0.11278539073E+03  0.14069841110E+03  0.00000000000E+00 0.  1.
<scales pt_clust_3="14000.00000" pt_clust_4="39.13694" pt_clust_5="67.61762" pt_clust_6="76.04555"></scales>
<clustering>
<clus scale="   39.137">  1  4  2 -1</clus>
<clus scale="   67.618">  2  5  1 -1</clus>
<clus scale="   76.046">  1  6  2 -1</clus>
<clus scale="   39.137">  1  3  2 -1</clus>
</clustering>
</event>
<event>
 6    0  0.8777103E+002  0.1289496E+03  0.7546771E-02  0.1229023E+00
         21   -1    0    0  503  501  0.00000000000E+00  0.00000000000E+00  0.31334992555E+03  0.31334992555E+03  0.00000000000E+00 0.  1.
         21   -1    0    0  506  502 -0.00000000000E+00 -0.00000000000E+00 -0.22546207458E+03  0.22546207458E+03  0.00000000000E+00 0. -1.
         21    1    1    2  503  504  0.80739336967E+02  0.74132834561E+02  0.29352522641E+02  0.11347285261E+03  0.00000000000E+00 0. -1.
         21    1    1    2  504  502  0.44371100281E+02  0.37857961245E+01 -0.13156034112E+03  0.13889294492E+03  0.00000000000E+00 0. -1.
         21    1    1    2  505  501 -0.93599030811E+02 -0.10287290268E+03  0.20134065793E+03  0.24470732153E+03  0.00000000000E+00 0.  1.
         21    1    1    2  506  505 -0.31511406437E+02  0.24954271995E+02 -0.11244988489E+02  0.41738881065E+02  0.00000000000E+00 0.  1.
<scales pt_clust_3="128.94958" pt_clust_4="30.94035" pt_clust_5="14000.00000" pt_clust_6="40.19558"></scales>
<clustering>
<clus scale="   40.196">  2  6  1 -1</clus>
<clus scale="   30.940">  2  4  1 -1</clus>
<clus scale="  128.950">  2  3  1 -1</clus>
<clus scale="  128.950">  1  3  2 -1</clus>
</clustering>
</event>
<event>
 6    0  0.8777103E+002  0.1570004E+03  0.7546771E-02  0.1192126E+00
         21   -1    0    0  506  501  0.00000000000E+00  0.00000000000E+00  0.35572340290E+03  0.35572340290E+03  0.00000000000E+00 0. -1.
         21   -1    0    0  505  502 -0.00000000000E+00 -0.00000000000E+00 -0.81971315231E+02  0.81971315231E+02  0.00000000000E+00 0. -1.
         21    1    1    2  503  504  0.10466828415E+03 -0.64734707485E+02  0.12709476076E+03  0.17691554559E+03  0.00000000000E+00 0. -1.
         21    1    1    2  504  502 -0.87291452553E+01  0.37688019452E+02  0.27888551099E+02  0.47690209368E+02  0.00000000000E+00 0. -1.
         21    1    1    2  505  501 -0.13498459600E+03  0.14951398507E+02  0.95834778059E+02  0.16621880206E+03  0.00000000000E+00 0. -1.
         21    1    1    2  506  503  0.39045457105E+02  0.12095289526E+02  0.22933997753E+02  0.46870161107E+02  0.00000000000E+00 0. -1.
<scales pt_clust_3="37.11242" pt_clust_4="38.68572" pt_clust_5="143.18609" pt_clust_6="37.11242"></scales>
<clustering>
<clus scale="   37.112">  3  6 -1 -1</clus>
<clus scale="   38.686">  2  4  1 -1</clus>
<clus scale="  143.186">  2  5  1 -1</clus>
<clus scale="  157.000">  1  3  2 -1</clus>
</clustering>
</event>
<event>
 6    0  0.8777103E+002  0.1793785E+03  0.7546771E-02  0.1168406E+00
         21   -1    0    0  503  501  0.00000000000E+00  0.00000000000E+00  0.17036097259E+03  0.17036097259E+03  0.00000000000E+00 0.  1.
         21   -1    0    0  504  502 -0.00000000000E+00 -0.00000000000E+00 -0.32215558729E+04  0.32215558729E+04  0.00000000000E+00 0. -1.
         21    1    1    2  503  506  0.89977814386E+02  0.13500042915E+03 -0.44804444412E+02  0.16831090633E+03  0.00000000000E+00 0.  1.
         21    1    1    2  504  505  0.26587154329E+02 -0.40159406680E+02 -0.63126892018E+02  0.79401884210E+02  0.00000000000E+00 0.  1.
         21    1    1    2  505  501 -0.28402317431E+01  0.44875881945E+02  0.92631577549E+02  0.10296854304E+03  0.00000000000E+00 0.  1.
         21    1    1    2  506  502 -0.11372473697E+03 -0.13971690441E+03 -0.30358951415E+04  0.30412355119E+04  0.00000000000E+00 0. -1.
<scales pt_clust_3="14000.00000" pt_clust_4="43.86259" pt_clust_5="44.96567" pt_clust_6="179.37849"></scales>
<clustering>
<clus scale="   44.966">  1  5  2 -1</clus>
<clus scale="   43.863">  1  4  2 -1</clus>
<clus scale="  179.378">  2  6  1 -1</clus>
<clus scale="   44.966">  1  3  2 -1</clus>
</clustering>
</event>
<event>
 6    0  0.8777103E+002  0.2013658E+03  0.7546771E-02  0.1148592E+00
         21   -1    0    0  505  501  0.00000000000E+00  0.00000000000E+00  0.21968062320E+03  0.21968062320E+03  0.00000000000E+00 0.  1.
         21   -1    0    0  504  502 -0.00000000000E+00 -0.00000000000E+00 -0.16552637677E+04  0.16552637677E+04  0.00000000000E+00 0. -1.
         21    1    1    2  503  501 -0.19329533233E+03  0.94734947618E+02  0.14354350602E+03  0.25873255288E+03  0.00000000000E+00 0.  1.
         21    1    1    2  504  506  0.54924616713E+02 -0.33186427683E+02 -0.67328869642E+03  0.67633994502E+03  0.00000000000E+00 0.  1.
         21    1    1    2  505  502  0.75498830467E+02 -0.11517628870E+03 -0.32198571734E+03  0.35020058974E+03  0.00000000000E+00 0. -1.
         21    1    1    2  506  503  0.62871885149E+02  0.53627768768E+02 -0.58385223671E+03  0.58967130322E+03  0.00000000000E+00 0. -1.
<scales pt_clust_3="14000.00000" pt_clust_4="64.17205" pt_clust_5="201.36581" pt_clust_6="101.52228"></scales>
<clustering>
<clus scale="   64.172">  2  4  1 -1</clus>
<clus scale="  101.522">  2  6  1 -1</clus>
<clus scale="  201.366">  2  5  1 -1</clus>
<clus scale="  201.366">  1  3  2 -1</clus>
</clustering>
</event>
<event>
 6    0  0.8777103E+002  0.1102197E+03  0.7546771E-02  0.1260164E+00
         21   -1    0    0  505  501  0.00000000000E+00  0.00000000000E+00  0.10536013924E+03  0.10536013924E+03  0.00000000000E+00 0. -1.
         21   -1    0    0  503  502 -0.00000000000E+00 -0.00000000000E+00 -0.14284353275E+04  0.14284353275E+04  0.00000000000E+00 0.  1.
         21    1    1    2  503  504  0.55544336018E+02 -0.91406777718E+02 -0.42593098401E+02  0.11512838185E+03  0.00000000000E+00 0. -1.
         21    1    1    2  504  501 -0.44639386447E+02  0.10286872680E+03 -0.80326419940E+02  0.13793833229E+03  0.00000000000E+00 0. -1.
         21    1    1    2  505  506  0.54558595819E+02 -0.55675406533E+00  0.20488738136E+02  0.58281547194E+02  0.00000000000E+00 0. -1.
         21    1    1    2  506  502 -0.65463545390E+02 -0.10905195015E+02 -0.12206444081E+04  0.12224472054E+04  0.00000000000E+00 0.  1.
<scales pt_clust_3="110.21970" pt_clust_4="14000.00000" pt_clust_5="54.56144" pt_clust_6="65.63174"></scales>
<clustering>
<clus scale="   54.561">  1  5  2 -1</clus>
<clus scale="   65.632">  2  6  1 -1</clus>
<clus scale="  110.220">  2  3  1 -1</clus>
<clus scale="   54.561">  1  3  2 -1</clus>
</clustering>
</event>
<event>
 6    0  0.8777103E+002  0.1453374E+03  0.7546771E-02  0.1206322E+00
         21   -1    0    0  505  501  0.00000000000E+00  0.00000000000E+00  0.36614790212E+03  0.36614790212E+03  0.00000000000E+00 0. -1.
         21   -1    0    0  506  502 -0.00000000000E+00 -0.00000000000E+00 -0.35855143393E+03  0.35855143393E+03  0.00000000000E+00 0.  1.
         21    1    1    2  503  504  0.52252344992E+01 -0.79996732368E+02 -0.19569646916E+03  0.21148023148E+03  0.00000000000E+00 0.  1.
         21    1    1    2  504  502 -0.60707754582E+02 -0.24575733418E+02 -0.92968031770E+02  0.11372094385E+03  0.00000000000E+00 0. -1.
         21    1    1    2  505  503  0.13683346529E+02  0.15052436926E+03  0.30139223913E+03  0.33716776465E+03  0.00000000000E+00 0. -1.
         21    1    1    2  506  501  0.41799173555E+02 -0.45951903473E+02 -0.51312700001E+01  0.62330396072E+02  0.00000000000E+00 0. -1.
<scales pt_clust_3="14000.00000" pt_clust_4="61.51355" pt_clust_5="145.33740" pt_clust_6="62.11882"></scales>
<clustering>
<clus scale="   62.119">  2  6  1 -1</clus>
<clus scale="   61.514">  2  4  1 -1</clus>
<clus scale="  145.337">  1  5  2 -1</clus>
<clus scale="  145.337">  1  3  2 -1</clus>
</clustering>
</event>
<event>
 6    0  0.8777103E+002  0.9040688E+02  0.7546771E-02  0.1301869E+00
         21   -1    0    0  504  501  0.00000000000E+00  0.00000000000E+00  0.77795193176E+03  0.77795193176E+03  0.00000000000E+00 0. -1.
         21   -1    0    0  503  502 -0.00000000000E+00 -0.00000000000E+00 -0.77359457650E+02  0.77359457650E+02  0.00000000000E+00 0. -1.
         21    1    1    2  503  505 -0.40679199091E+00 -0.86851230957E+02 -0.18432219837E+02  0.88786533475E+02  0.00000000000E+00 0. -1.
         21    1    1    2  504  502  0.53465105390E+02  0.11565042862E+03  0.25493356961E+03  0.28499941061E+03  0.00000000000E+00 0. -1.
         21    1    1    2  505  506 -0.83697912881E+02 -0.18892112329E+02  0.23484703009E+03  0.25003075825E+03  0.00000000000E+00 0. -1.
         21    1    1    2  506  501  0.30639599482E+02 -0.99070853369E+01  0.22924409424E+03  0.23149468707E+03  0.00000000000E+00 0. -1.
<scales pt_clust_3="14000.00000" pt_clust_4="90.40688" pt_clust_5="73.89479" pt_clust_6="32.20148"></scales>
<clustering>
<clus scale="   32.201">  1  6  2 -1</clus>
<clus scale="   73.895">  1  5  2 -1</clus>
<clus scale="   90.407">  1  4  2 -1</clus>
<clus scale="   32.201">  1  3  2 -1</clus>
</clustering>
</event>
<event>
 6    0  0.8777103E+002  0.9177550E+02  0.7546771E-02  0.1298608E+00
         21   -1    0    0  504  501  0.00000000000E+00  0.00000000000E+00  0.24908741975E+03  0.24908741975E+03  0.00000000000E+00 0. -1.
         21   -1    0    0  503  502 -0.00000000000E+00 -0.00000000000E+00 -0.59357750532E+03  0.59357750532E+03  0.00000000000E+00 0. -1.
         21    1    1    2  503  505  0.55291437051E+02 -0.27381404371E+02 -0.13443280708E+03  0.14791573255E+03  0.00000000000E+00 0. -1.
         21    1    1    2  504  506 -0.74805910417E+00 -0.48025119731E+02  0.18520587742E+03  0.19133266514E+03  0.00000000000E+00 0. -1.
         21    1    1    2  505  501 -0.12772473487E+02 -0.45217210391E+02  0.32422453363E+02  0.57087193631E+02  0.00000000000E+00 0. -1.
         21    1    1    2  506  502 -0.41770904460E+02  0.12062373449E+03 -0.42768560927E+03  0.44632933375E+03  0.00000000000E+00 0. -1.
<scales pt_clust_3="62.00311" pt_clust_4="91.77550" pt_clust_5="46.98651" pt_clust_6="14000.00000"></scales>
<clustering>
<clus scale="   46.987">  1  5  2 -1</clus>
<clus scale="   62.003">  2  3  1 -1</clus>
<clus scale="   91.776">  1  4  2 -1</clus>
<clus scale="   46.987">  1  3  2 -1</clus>
</clustering>
</event>
<event>
 6    0  0.8777103E+002  0.2948016E+03  0.7546771E-02  0.1087868E+00
         21   -1    0    0  505  501  0.00000000000E+00  0.00000000000E+00  0.46272600018E+03  0.46272600018E+03  0.00000000000E+00 0.  1.
         21   -1    0    0  503  502 -0.00000000000E+00 -0.00000000000E+00 -0.11748442556E+04  0.11748442556E+04  0.00000000000E+00 0.  1.
         21    1    1    2  503  506  0.95273754665E+01 -0.29493457444E+02 -0.81679305130E+03  0.81738089259E+03  0.00000000000E+00 0.  1.
         21    1    1    2  504  502  0.26246032433E+03  0.14879189747E+03 -0.20928351508E+03  0.36718393249E+03  0.00000000000E+00 0.  1.
         21    1    1    2  505  504 -0.30895348661E+02  0.28495012795E+02  0.26056035451E+02  0.49451039488E+02  0.00000000000E+00 0.  1.
         21    1    1    2  506  501 -0.24109235113E+03 -0.14779345282E+03  0.28790227547E+03  0.40355439125E+03  0.00000000000E+00 0.  1.
<scales pt_clust_3="30.99411" pt_clust_4="294.80159" pt_clust_5="41.14983" pt_clust_6="14000.00000"></scales>
<clustering>
<clus scale="   30.994">  2  3  1 -1</clus>
<clus scale="   41.150">  1  5  2 -1</clus>
<clus scale="  294.802">  2  4  1 -1</clus>
<clus scale="   41.150">  1  3  2 -1</clus>
</clustering>
</event>
<event>
 6    0  0.8777103E+002  0.1174091E+03  0.7546771E-02  0.1247433E+00
         21   -1    0    0  503  501  0.00000000000E+00  0.00000000000E+00  0.91937847769E+03  0.91937847769E+03  0.00000000000E+00 0. -1.
         21   -1    0    0  506  502 -0.00000000000E+00 -0.00000000000E+00 -0.13133826794E+03  0.13133826794E+03  0.00000000000E+00 0. -1.
         21    1    1    2  503  505 -0.65114833295E+02 -0.13307520254E+03  0.26574197852E+03  0.30424948676E+03  0.00000000000E+00 0. -1.
         21    1    1    2  504  501  0.23827945424E+02  0.36830643908E+02  0.56332266680E+03  0.56502804731E+03  0.00000000000E+00 0. -1.
         21    1    1    2  505  502  0.67130676567E+02  0.12088215020E+03 -0.19217106819E+02  0.13960057009E+03  0.00000000000E+00 0. -1.
         21    1    1    2  506  504 -0.25843788697E+02 -0.24637591573E+02 -0.21807328760E+02  0.41838641474E+02  0.00000000000E+00 0.  1.
<scales pt_clust_3="117.40909" pt_clust_4="43.56900" pt_clust_5="14000.00000" pt_clust_6="35.70591"></scales>
<clustering>
<clus scale="   35.706">  2  6  1 -1</clus>
<clus scale="   43.569">  1  4  2 -1</clus>
<clus scale="  117.409">  1  3  2 -1</clus>
<clus scale="   43.569">  1  3  2 -1</clus>
</clustering>
</event>
<event>
 6    0  0.8777103E+002  0.8080424E+02  0.7546771E-02  0.1326784E+00
         21   -1    0    0  506  501  0.00000000000E+00  0.00000000000E+00  0.12296620647E+03  0.12296620647E+03  0.00000000000E+00 0. -1.
         21   -1    0    0  503  502 -0.00000000000E+00 -0.00000000000E+00 -0.77906058614E+03  0.77906058614E+03  0.00000000000E+00 0. -1.
         21    1    1    2  503  504 -0.35394692210E+02  0.13990406752E+02 -0.57022976577E+03  0.57149847024E+03  0.00000000000E+00 0. -1.
         21    1    1    2  504  501  0.69331243640E+02 -0.43919619693E+02 -0.29127043173E+02  0.87086962185E+02  0.00000000000E+00 0. -1.
         21    1    1    2  505  502 -0.72258716227E+02 -0.42633835118E+02 -0.11532370447E+03  0.14261319287E+03  0.00000000000E+00 0. -1.
         21    1    1    2  506  505  0.38322164798E+02  0.72563048059E+02  0.58586133739E+02  0.10082816732E+03  0.00000000000E+00 0. -1.
<scales pt_clust_3="38.05937" pt_clust_4="71.66462" pt_clust_5="80.80424" pt_clust_6="14000.00000"></scales>
<clustering>
<clus scale="   38.059">  2  3  1 -1</clus>
<clus scale="   71.665">  2  4  1 -1</clus>
<clus scale="   80.804">  2  5  1 -1</clus>
<clus scale="   80.804">  1  3  2 -1</clus>
</clustering>
</event>
<event>
 6    0  0.8777103E+002  0.8017365E+02  0.7546771E-02  0.1328559E+00
         21   -1    0    0  503  501  0.00000000000E+00  0.00000000000E+00  0.96099688242E+02  0.96099688242E+02  0.00000000000E+00 0. -1.
         21   -1    0    0  505  502 -0.00000000000E+00 -0.00000000000E+00 -0.55219231068E+03  0.55219231068E+03  0.00000000000E+00 0.  1.
         21    1    1    2  503  504 -0.32440859593E+02 -0.93564823496E+01  0.44971070343E+02  0.56234778393E+02  0.00000000000E+00 0. -1.
         21    1    1    2  504  506  0.74056644050E+02  0.19779275410E+02 -0.64559301687E+02  0.10021731237E+03  0.00000000000E+00 0.  1.
         21    1    1    2  505  501 -0.92038541848E+02 -0.24895826396E+02 -0.62117807315E+02  0.11379594607E+03  0.00000000000E+00 0. -1.
         21    1    1    2  506  502  0.50422757390E+02  0.14473033336E+02 -0.37438658378E+03  0.37804396209E+03  0.00000000000E+00 0.  1.
<scales pt_clust_3="33.76319" pt_clust_4="14000.00000" pt_clust_5="80.17365" pt_clust_6="51.10170"></scales>
<clustering>
<clus scale="   33.763">  1  3  2 -1</clus>
<clus scale="   51.102">  2  6  1 -1</clus>
<clus scale="   80.174">  2  5  1 -1</clus>
<clus scale="   33.763">  1  3  2 -1</clus>
</clustering>
</event>
<event>
 6    0  0.8777103E+002  0.6974637E+02  0.7546771E-02  0.1360958E+00
         21   -1    0    0  503  501  0.00000000000E+00  0.00000000000E+00  0.47385001915E+03  0.47385001915E+03  0.00000000000E+00 0. -1.
         21   -1    0    0  506  502 -0.00000000000E+00 -0.00000000000E+00 -0.10595149261E+03  0.10595149261E+03  0.00000000000E+00 0. -1.
         21    1    1    2  503  504  0.32993530629E+02  0.98677364093E+02  0.12437208301E+03  0.16215489595E+03  0.00000000000E+00 0. -1.
         21    1    1    2  504  505 -0.55737249196E+02 -0.39644737058E+02  0.21337153967E+02  0.71649286554E+02  0.00000000000E+00 0. -1.
         21    1    1    2  505  502  0.31515904166E+02 -0.11710476554E+02 -0.55107962369E+02  0.64554434340E+02  0.00000000000E+00 0. -1.
         21    1    1    2  506  501 -0.87721855990E+01 -0.47322150481E+02  0.27729725193E+03  0.28144289491E+03  0.00000000000E+00 0. -1.
<scales pt_clust_3="69.74637" pt_clust_4="14000.00000" pt_clust_5="33.62124" pt_clust_6="48.41056"></scales>
<clustering>
<clus scale="   33.621">  2  5  1 -1</clus>
<clus scale="   48.411">  1  6  2 -1</clus>
<clus scale="   69.746">  1  3  2 -1</clus>
<clus scale="   48.411">  1  3  2 -1</clus>
</clustering>
</event>
<event>
 6    0  0.8777103E+002  0.7321762E+02  0.7546771E-02  0.1349481E+00
         21   -1    0    0  506  501  0.00000000000E+00  0.00000000000E+00  0.16778387651E+03  0.16778387651E+03  0.00000000000E+00 0.  1.
         21   -1    0    0  504  502 -0.00000000000E+00 -0.00000000000E+00 -0.88490379690E+03  0.88490379690E+03  0.00000000000E+00 0.  1.
         21    1    1    2  503  505 -0.52638858462E+02 -0.49219517290E+02 -0.68348241286E+03  0.68727113936E+03  0.00000000000E+00 0.  1.
         21    1    1    2  504  503 -0.15929352469E+02  0.29055083983E+02 -0.12844615598E+03  0.13265126144E+03  0.00000000000E+00 0.  1.
         21    1    1    2  505  501 -0.65164588063E+02 -0.24203019138E+02  0.16034470579E+02  0.71339427525E+02  0.00000000000E+00 0.  1.
         21    1    1    2  506  502  0.13373279899E+03  0.44367452445E+02  0.78774177873E+02  0.16142584509E+03  0.00000000000E+00 0.  1.
<scales pt_clust_3="73.21762" pt_clust_4="33.13521" pt_clust_5="69.70101" pt_clust_6="14000.00000"></scales>
<clustering>
<clus scale="   33.135">  2  4  1 -1</clus>
<clus scale="   69.701">  1  5  2 -1</clus>
<clus scale="   73.218">  2  3  1 -1</clus>
<clus scale="   69.701">  1  3  2 -1</clus>
</clustering>
</event>
<event>
 6    0  0.8777103E+002  0.1010773E+03  0.7546771E-02  0.1278047E+00
         21   -1    0    0  506  501  0.00000000000E+00  0.00000000000E+00  0.23521348083E+04  0.23521348083E+04  0.00000000000E+00 0.  1.
         21   -1    0    0  505  502 -0.00000000000E+00 -0.00000000000E+00 -0.64312706623E+03  0.64312706623E+03  0.00000000000E+00 0.  1.
         21    1    1    2  503  504  0.12059290156E+02 -0.63040988640E+02  0.23398407689E+03  0.24262757668E+03  0.00000000000E+00 0.  1.
         21    1    1    2  504  501  0.40445391261E+02 -0.31741098087E+02  0.18536193491E+04  0.18543322298E+04  0.00000000000E+00 0.  1.
         21    1    1    2  505  503 -0.97816623861E+02  0.13515359563E+03  0.23141226904E+03  0.28528270992E+03  0.00000000000E+00 0.  1.
         21    1    1    2  506  502  0.45311942444E+02 -0.40371508906E+02 -0.61000795294E+03  0.61301935818E+03  0.00000000000E+00 0.  1.
<scales pt_clust_3="14000.00000" pt_clust_4="51.41330" pt_clust_5="101.07729" pt_clust_6="60.84308"></scales>
<clustering>
<clus scale="   51.413">  1  4  2 -1</clus>
<clus scale="   60.843">  2  6  1 -1</clus>
<clus scale="  101.077">  2  5  1 -1</clus>
<clus scale="   51.413">  1  3  2 -1</clus>
</clustering>
</event>
<event>
 6    0  0.8777103E+002  0.1067622E+03  0.7546771E-02  0.1266686E+00
         21   -1    0    0  504  501  0.00000000000E+00  0.00000000000E+00  0.26805409557E+03  0.26805409557E+03  0.00000000000E+00 0. -1.
         21   -1    0    0  506  502 -0.00000000000E+00 -0.00000000000E+00 -0.44173912409E+03  0.44173912409E+03  0.00000000000E+00 0. -1.
         21    1    1    2  503  501  0.42759628979E+02 -0.54012572569E+01  0.18486777784E+03  0.18982532690E+03  0.00000000000E+00 0. -1.
         21    1    1    2  504  502 -0.82997539899E+02 -0.88905777606E+01 -0.66684031005E+02  0.10683816731E+03  0.00000000000E+00 0. -1.
         21    1    1    2  505  503 -0.37306839531E-01 -0.89328092856E+02  0.11469266932E+02  0.90061388226E+02  0.00000000000E+00 0. -1.
         21    1    1    2  506  505  0.40275217759E+02  0.10361992787E+03 -0.30333804229E+03  0.32306833722E+03  0.00000000000E+00 0. -1.
<scales pt_clust_3="43.09941" pt_clust_4="73.08066" pt_clust_5="106.76219" pt_clust_6="14000.00000"></scales>
<clustering>
<clus scale="   43.099">  1  3  2 -1</clus>
<clus scale="   73.081">  1  4  2 -1</clus>
<clus scale="  106.762">  1  5  2 -1</clus>
<clus scale="   43.099">  1  3  2 -1</clus>
</clustering>
</event>
<event>
 6    0  0.8777103E+002  0.9188952E+02  0.7546771E-02  0.1298339E+00
         21   -1    0    0  503  501  0.00000000000E+00  0.00000000000E+00  0.88499573117E+03  0.88499573117E+03  0.00000000000E+00 0. -1.
         21   -1    0    0  506  502 -0.00000000000E+00 -0.00000000000E+00 -0.11316578132E+03  0.11316578132E+03  0.00000000000E+00 0. -1.
         21    1    1    2  503  504 -0.48907499048E+02 -0.45683873641E+02  0.19415236056E+03  0.20536333384E+03  0.00000000000E+00 0. -1.
         21    1    1    2  504  502  0.11445489508E+01  0.14410254826E+03 -0.66967590321E+01  0.14426261119E+03  0.00000000000E+00 0. -1.
         21    1    1    2  505  501  0.13667316785E+02 -0.46444278746E+02  0.58437367013E+03  0.58637569264E+03  0.00000000000E+00 0. -1.
         21    1    1    2  506  505  0.34095633312E+02 -0.51974395869E+02  0.67819530736E-03  0.62159874818E+02  0.00000000000E+00 0. -1.
<scales pt_clust_3="14000.00000" pt_clust_4="91.88952" pt_clust_5="48.41350" pt_clust_6="66.98170"></scales>
<clustering>
<clus scale="   48.413">  1  5  2 -1</clus>
<clus scale="   66.982">  2  6  1 -1</clus>
<clus scale="   91.890">  2  4  1 -1</clus>
<clus scale="   48.413">  1  3  2 -1</clus>
</clustering>
</event>
<event>
 6    0  0.8777103E+002  0.6790096E+02  0.7546771E-02  0.1367380E+00
         21   -1    0    0  505  501  0.00000000000E+00  0.00000000000E+00  0.83037504076E+02  0.83037504076E+02  0.00000000000E+00 0.  1.
         21   -1    0    0  506  502 -0.00000000000E+00 -0.00000000000E+00 -0.28180366391E+03  0.28180366391E+03  0.00000000000E+00 0.  1.
         21    1    1    2  503  502  0.32100035829E+02 -0.18568795740E+02 -0.68999323316E+02  0.78333384285E+02  0.00000000000E+00 0. -1.
         21    1    1    2  504  501 -0.21593496928E+02 -0.52116200336E+02  0.12378550678E+02  0.57754705124E+02  0.00000000000E+00 0.  1.
         21    1    1    2  505  503  0.25370942803E+02  0.10461196112E+03 -0.39168072854E+02  0.11454905098E+03  0.00000000000E+00 0.  1.
         21    1    1    2  506  504 -0.35877481704E+02 -0.33926965048E+02 -0.10297731434E+03  0.11420402760E+03  0.00000000000E+00 0.  1.
<scales pt_clust_3="37.08386" pt_clust_4="67.90096" pt_clust_5="14000.00000" pt_clust_6="47.62572"></scales>
<clustering>
<clus scale="   37.084">  2  3  1 -1</clus>
<clus scale="   47.626">  2  6  1 -1</clus>
<clus scale="   67.901">  1  4  2 -1</clus>
<clus scale="   67.901">  1  3  2 -1</clus>
</clustering>
</event>
<event>
 6    0  0.8777103E+002  0.8229622E+02  0.7546771E-02  0.1322659E+00
         21   -1    0    0  506  501  0.00000000000E+00  0.00000000000E+00  0.64557372383E+03  0.64557372383E+03  0.00000000000E+00 0. -1.
         21   -1    0    0  503  502 -0.00000000000E+00 -0.00000000000E+00 -0.90610644879E+02  0.90610644879E+02  0.00000000000E+00 0. -1.
         21    1    1    2  503  504  0.62021385140E+02 -0.72900926899E+02  0.21548964380E+03  0.23579012690E+03  0.00000000000E+00 0. -1.
         21    1    1    2  504  501  0.60376300736E+02  0.16434246974E+02  0.16246521648E+03  0.17409861783E+03  0.00000000000E+00 0. -1.
         21    1    1    2  505  502 -0.25553424718E+02  0.52009275615E+02 -0.51844932428E+02  0.77754995231E+02  0.00000000000E+00 0. -1.
         21    1    1    2  506  505 -0.96844261158E+02  0.44574043105E+01  0.22885315110E+03  0.24854062875E+03  0.00000000000E+00 0. -1.
<scales pt_clust_3="14000.00000" pt_clust_4="61.44744" pt_clust_5="57.94775" pt_clust_6="82.29622"></scales>
<clustering>
<clus scale="   57.948">  2  5  1 -1</clus>
<clus scale="   61.447">  1  4  2 -1</clus>
<clus scale="   82.296">  1  6  2 -1</clus>
<clus scale="   61.447">  1  3  2 -1</clus>
</clustering>
</event>
<event>
 6    0  0.8777103E+002  0.1145260E+03  0.7546771E-02  0.1252411E+00
         21   -1    0    0  503  501  0.00000000000E+00  0.00000000000E+00  0.49252498653E+03  0.49252498653E+03  0.00000000000E+00 0. -1.
         21   -1    0    0  504  502 -0.00000000000E+00 -0.00000000000E+00 -0.13413393122E+04  0.13413393122E+04  0.00000000000E+00 0.  1.
         21    1    1    2  503  505 -0.60047096786E+02 -0.42924174852E+02 -0.18674446475E+01  0.73835126930E+02  0.00000000000E+00 0.  1.
         21    1    1    2  504  501  0.12486217770E+03  0.14801411535E+02  0.44596171201E+03  0.46334813454E+03  0.00000000000E+00 0. -1.
         21    1    1    2  505  506 -0.32208040386E+02  0.36233556696E+02 -0.37018927585E+03  0.37335014189E+03  0.00000000000E+00 0.  1.
         21    1    1    2  506  502 -0.32607040526E+02 -0.81107933784E+01 -0.92271931714E+03  0.92333089534E+03  0.00000000000E+00 0.  1.
<scales pt_clust_3="114.52597" pt_clust_4="14000.00000" pt_clust_5="67.72232" pt_clust_6="33.60066"></scales>
<clustering>
<clus scale="   33.601">  2  6  1 -1</clus>
<clus scale="   67.722">  2  5  1 -1</clus>
<clus scale="  114.526">  2  3  1 -1</clus>
<clus scale="  114.526">  1  3  2 -1</clus>
</clustering>
</event>
<event>
 6    0  0.8777103E+002  0.1484801E+03  0.7546771E-02  0.1202353E+00
         21   -1    0    0  503  501  0.00000000000E+00  0.00000000000E+00  0.92776341737E+03  0.92776341737E+03  0.00000000000E+00 0.  1.
         21   -1    0    0  504  502 -0.00000000000E+00 -0.00000000000E+00 -0.54083714410E+03  0.54083714410E+03  0.00000000000E+00 0. -1.
         21    1    1    2  503  506 -0.17890544025E+03 -0.47480611027E+02 -0.14484126801E+03  0.23503309957E+03  0.00000000000E+00 0. -1.
         21    1    1    2  504  501  0.64614745378E+02 -0.60732193414E+00  0.86824401716E+03  0.87064522481E+03  0.00000000000E+00 0.  1.
         21    1    1    2  505  502  0.32888315393E+02 -0.10632509821E+02 -0.10730105749E+03  0.11273069011E+03  0.00000000000E+00 0.  1.
         21    1    1    2  506  505  0.81402379478E+02  0.58720442782E+02 -0.22917541839E+03  0.25019154697E+03  0.00000000000E+00 0. -1.
<scales pt_clust_3="137.56827" pt_clust_4="64.61760" pt_clust_5="32.78520" pt_clust_6="32.78520"></scales>
<clustering>
<clus scale="   32.785">  5  6 -1 -1</clus>
<clus scale="   64.618">  1  4  2 -1</clus>
<clus scale="  137.568">  1  3  2 -1</clus>
<clus scale="   64.618">  1  3  2 -1</clus>
</clustering>
</event>
<event>
 6    0  0.8777103E+002  0.8134090E+02  0.7546771E-02  0.1325289E+00
         21   -1    0    0  506  501  0.00000000000E+00  0.00000000000E+00  0.71545753814E+03  0.71545753814E+03  0.00000000000E+00 0.  1.
         21   -1    0    0  503  502 -0.00000000000E+00 -0.00000000000E+00 -0.11839094417E+03  0.11839094417E+03  0.00000000000E+00 0.  1.
         21    1    1    2  503  504 -0.58134739647E+02 -0.37591406989E+01 -0.32145125151E+02  0.66536367226E+02  0.00000000000E+00 0.  1.
         21    1    1    2  504  505  0.60599695539E+02  0.87223951356E+02  0.18569441588E+03  0.21392231506E+03  0.00000000000E+00 0.  1.
         21    1    1    2  505  501 -0.70436102545E+02 -0.33627286375E+02  0.46079005946E+03  0.46735373950E+03  0.00000000000E+00 0.  1.
         21    1    1    2  506  502  0.67971146653E+02 -0.49837524282E+02 -0.17272756214E+02  0.86036060527E+02  0.00000000000E+00 0.  1.
<scales pt_clust_3="58.25615" pt_clust_4="81.34090" pt_clust_5="14000.00000" pt_clust_6="58.06345"></scales>
<clustering>
<clus scale="   58.256">  2  3  1 -1</clus>
<clus scale="   58.063">  2  6  1 -1</clus>
<clus scale="   81.341">  2  4  1 -1</clus>
<clus scale="   81.341">  1  3  2 -1</clus>
</clustering>
</event>
<event>
 6    0  0.8777103E+002  0.2189138E+03  0.7546771E-02  0.1134695E+00
         21   -1    0    0  503  501  0.00000000000E+00  0.00000000000E+00  0.85561090897E+02  0.85561090897E+02  0.00000000000E+00 0. -1.
         21   -1    0    0  501  502 -0.00000000000E+00 -0.00000000000E+00 -0.15423026264E+04  0.15423026264E+04  0.00000000000E+00 0. -1.
         21    1    1    2  503  506  0.15069279568E+03  0.64504306528E+02 -0.99964051022E+02  0.19199462421E+03  0.00000000000E+00 0. -1.
         21    1    1    2  504  505 -0.17002958486E+03 -0.38327184148E+02 -0.50294896674E+03  0.53229380602E+03  0.00000000000E+00 0.  1.
         21    1    1    2  505  502 -0.46527416617E+02 -0.18350244976E+02 -0.83235777936E+03  0.83385910371E+03  0.00000000000E+00 0. -1.
         21    1    1    2  506  504  0.65864205799E+02 -0.78268774034E+01 -0.21470738383E+02  0.69716183359E+02  0.00000000000E+00 0. -1.
<scales pt_clust_3="38.36170" pt_clust_4="210.44332" pt_clust_5="50.01532" pt_clust_6="38.36170"></scales>
<clustering>
<clus scale="   38.362">  3  6 -1 -1</clus>
<clus scale="   50.015">  2  5  1 -1</clus>
<clus scale="  210.443">  2  4  1 -1</clus>
<clus scale="  218.914">  1  3  2 -1</clus>
</clustering>
</event>
<event>
 6    0  0.8777103E+002  0.1029943E+03  0.7546771E-02  0.1274123E+00
         21   -1    0    0  506  501  0.00000000000E+00  0.00000000000E+00  0.14690220112E+04  0.14690220112E+04  0.00000000000E+00 0. -1.
         21   -1    0    0  503  502 -0.00000000000E+00 -0.00000000000E+00 -0.23466965655E+02  0.23466965655E+02  0.00000000000E+00 0. -1.
         21    1    1    2  503  501  0.29036263540E+02 -0.22804027633E+02  0.81078995777E+02  0.89089459718E+02  0.00000000000E+00 0. -1.
         21    1    1    2  504  505 -0.94590676138E+02  0.67153168694E+02  0.68559379245E+03  0.69533861702E+03  0.00000000000E+00 0. -1.
         21    1    1    2  505  502  0.13205888852E+02  0.37053266899E+02  0.24029685216E+02  0.46095182610E+02  0.00000000000E+00 0. -1.
         21    1    1    2  506  504  0.52348523746E+02 -0.81402407960E+02  0.65485257210E+03  0.66196571750E+03  0.00000000000E+00 0. -1.
<scales pt_clust_3="36.92057" pt_clust_4="102.99427" pt_clust_5="38.23805" pt_clust_6="14000.00000"></scales>
<clustering>
<clus scale="   36.921">  2  3  1 -1</clus>
<clus scale="   38.238">  2  5  1 -1</clus>
<clus scale="  102.994">  2  4  1 -1</clus>
<clus scale="  102.994">  1  3  2 -1</clus>
</clustering>
</event>
<event>
 6    0  0.8777103E+002  0.1727411E+03  0.7546771E-02  0.1175019E+00
         21   -1    0    0  504  501  0.00000000000E+00  0.00000000000E+00  0.38220522446E+03  0.38220522446E+03  0.00000000000E+00 0. -1.
         21   -1    0    0  506  502 -0.00000000000E+00 -0.00000000000E+00 -0.52722066215E+03  0.52722066215E+03  0.00000000000E+00 0. -1.
         21    1    1    2  503  502  0.21253635893E+02 -0.57872800755E+02 -0.26536738363E+02  0.67120612250E+02  0.00000000000E+00 0. -1.
         21    1    1    2  504  503  0.10858845168E+03  0.12653636638E+03  0.12148865515E+02  0.16718402671E+03  0.00000000000E+00 0. -1.
         21    1    1    2  505  501 -0.44068224089E+02  0.50841515608E+02  0.25429666522E+03  0.26304688180E+03  0.00000000000E+00 0. -1.
         21    1    1    2  506  505 -0.85773863483E+02 -0.11950508123E+03 -0.38492423006E+03  0.41207436584E+03  0.00000000000E+00 0. -1.
<scales pt_clust_3="61.65207" pt_clust_4="14000.00000" pt_clust_5="66.75724" pt_clust_6="172.74107"></scales>
<clustering>
<clus scale="   61.652">  2  3  1 -1</clus>
<clus scale="   66.757">  1  5  2 -1</clus>
<clus scale="  172.741">  2  6  1 -1</clus>
<clus scale="   66.757">  1  3  2 -1</clus>
</clustering>
</event>
<event>
 6    0  0.8777103E+002  0.9522405E+02  0.7546771E-02  0.1290672E+00
         21   -1    0    0  505  501  0.00000000000E+00  0.00000000000E+00  0.77360479151E+02  0.77360479151E+02  0.00000000000E+00 0. -1.
         21   -1    0    0  504  502 -0.00000000000E+00 -0.00000000000E+00 -0.28539093709E+03  0.28539093709E+03  0.00000000000E+00 0. -1.
         21    1    1    2  503  506 -0.66297958456E+01 -0.93088917242E+02 -0.56600642534E+02  0.10914730158E+03  0.00000000000E+00 0. -1.
         21    1    1    2  504  503 -0.53352038900E+02  0.89289109499E+02 -0.12673570197E+03  0.16395402796E+03  0.00000000000E+00 0. -1.
         21    1    1    2  505  502  0.12697056544E+02  0.29672630959E+02 -0.97835050655E+01  0.33725320521E+02  0.00000000000E+00 0. -1.
         21    1    1    2  506  501  0.47284778202E+02 -0.25872823216E+02 -0.14910608368E+02  0.55924766183E+02  0.00000000000E+00 0. -1.
<scales pt_clust_3="95.22405" pt_clust_4="14000.00000" pt_clust_5="32.27507" pt_clust_6="53.87715"></scales>
<clustering>
<clus scale="   32.275">  1  5  2 -1</clus>
<clus scale="   53.877">  1  6  2 -1</clus>
<clus scale="   95.224">  1  3  2 -1</clus>
<clus scale="   32.275">  1  3  2 -1</clus>
</clustering>
</event>
<event>
 6    0  0.8777103E+002  0.6531200E+02  0.7546771E-02  0.1376802E+00
         21   -1    0    0  506  501  0.00000000000E+00  0.00000000000E+00  0.88908852303E+03  0.88908852303E+03  0.00000000000E+00 0. -1.
         21   -1    0    0  501  502 -0.00000000000E+00 -0.00000000000E+00 -0.25127064385E+02  0.25127064385E+02  0.00000000000E+00 0. -1.
         21    1    1    2  503  505 -0.46328914888E+02 -0.43026609406E+02  0.31683268538E+03  0.32307987866E+03  0.00000000000E+00 0. -1.
         21    1    1    2  504  502  0.59555798777E+02 -0.19794699838E+02  0.63248875183E+02  0.89101871594E+02  0.00000000000E+00 0. -1.
         21    1    1    2  505  504 -0.64171549233E+02  0.37013375056E+02  0.22323867935E+03  0.23520945054E+03  0.00000000000E+00 0. -1.
         21    1    1    2  506  503  0.50944665344E+02  0.25807934188E+02  0.26064121873E+03  0.26682438662E+03  0.00000000000E+00 0. -1.
<scales pt_clust_3="36.05528" pt_clust_4="14000.00000" pt_clust_5="65.31200" pt_clust_6="57.10874"></scales>
<clustering>
<clus scale="   57.109">  1  6  2 -1</clus>
<clus scale="   36.055">  1  3  2 -1</clus>
<clus scale="   65.312">  1  5  2 -1</clus>
<clus scale="   57.109">  1  3  2 -1</clus>
</clustering>
</event>
<event>
 6    0  0.8777103E+002  0.9762717E+02  0.7546771E-02  0.1285366E+00
         21   -1    0    0  503  501  0.00000000000E+00  0.00000000000E+00  0.30707791307E+04  0.30707791307E+04  0.00000000000E+00 0. -1.
         21   -1    0    0  505  502 -0.00000000000E+00 -0.00000000000E+00 -0.16821643403E+02  0.16821643403E+02  0.00000000000E+00 0. -1.
         21    1    1    2  503  502  0.98111550805E+02 -0.28579551471E+02  0.31217056313E+03  0.32847089315E+03  0.00000000000E+00 0. -1.
         21    1    1    2  504  501  0.19560153789E+02  0.26516835685E+02  0.13006367401E+04  0.13010540618E+04  0.00000000000E+00 0. -1.
         21    1    1    2  505  506 -0.95978019566E+02 -0.59919803199E+02  0.42492587638E+03  0.43973192228E+03  0.00000000000E+00 0. -1.
         21    1    1    2  506  504 -0.21693685028E+02  0.61982518984E+02  0.10162243077E+04  0.10183438968E+04  0.00000000000E+00 0. -1.
<scales pt_clust_3="97.62717" pt_clust_4="32.95060" pt_clust_5="14000.00000" pt_clust_6="77.92732"></scales>
<clustering>
<clus scale="   32.951">  1  4  2 -1</clus>
<clus scale="   77.927">  1  6  2 -1</clus>
<clus scale="   97.627">  2  3  1 -1</clus>
<clus scale="   32.951">  1  3  2 -1</clus>
</clustering>
</event>
<event>
 6    0  0.1064738E+003  0.1152658E+03  0.7546771E-02  0.1251118E+00
         21   -1    0    0  504  501  0.00000000000E+00  0.00000000000E+00  0.59037084382E+03  0.59037084382E+03  0.00000000000E+00 0.  1.
         21   -1    0    0  505  502 -0.00000000000E+00 -0.00000000000E+00 -0.11167874307E+04  0.11167874307E+04  0.00000000000E+00 0.  1.
         21    1    1    2  503  502 -0.98818988573E+02 -0.57933669396E+02 -0.10316512775E+04  0.10379912625E+04  0.00000000000E+00 0.  1.
         21    1    1    2  504  503 -0.62892725688E+01 -0.47975416827E+02 -0.12775915578E+02  0.50044176365E+02  0.00000000000E+00 0. -1.
         21    1    1    2  505  506  0.15704526569E+03  0.21964714580E+02  0.95230195189E+02  0.18497149575E+03  0.00000000000E+00 0.  1.
         21    1    1    2  506  501 -0.51937004550E+02  0.83944371643E+02  0.42278041106E+03  0.43415133991E+03  0.00000000000E+00 0.  1.
<scales pt_clust_3="14000.00000" pt_clust_4="48.38590" pt_clust_5="115.26579" pt_clust_6="74.24549"></scales>
<clustering>
<clus scale="   48.386">  1  4  2 -1</clus>
<clus scale="   74.245">  1  6  2 -1</clus>
<clus scale="  115.266">  1  5  2 -1</clus>
<clus scale="   48.386">  1  3  2 -1</clus>
</clustering>
</event>
<event>
 6    0  0.8777103E+002  0.1029267E+03  0.7546771E-02  0.1274259E+00
         21   -1    0    0  506  501  0.00000000000E+00  0.00000000000E+00  0.31871129256E+03  0.31871129256E+03  0.00000000000E+00 0.  1.
         21   -1    0    0  504  502 -0.00000000000E+00 -0.00000000000E+00 -0.40310249096E+03  0.40310249096E+03  0.00000000000E+00 0.  1.
         21    1    1    2  503  501 -0.28009636480E+02 -0.23577875178E+02  0.22696812749E+03  0.22990212446E+03  0.00000000000E+00 0.  1.
         21    1    1    2  504  505 -0.33006333277E+02 -0.30572306648E+02 -0.15787776170E+03  0.16416294225E+03  0.00000000000E+00 0.  1.
         21    1    1    2  505  503 -0.53184043322E+02 -0.45565470243E+02  0.41002634525E+02  0.81153993004E+02  0.00000000000E+00 0.  1.
         21    1    1    2  506  502  0.11420001308E+03  0.99715652069E+02 -0.19448419872E+03  0.24659472380E+03  0.00000000000E+00 0.  1.
<scales pt_clust_3="36.61224" pt_clust_4="46.26293" pt_clust_5="102.92672" pt_clust_6="14000.00000"></scales>
<clustering>
<clus scale="   36.612">  1  3  2 -1</clus>
<clus scale="   46.263">  2  4  1 -1</clus>
<clus scale="  102.927">  1  5  2 -1</clus>
<clus scale="   36.612">  1  3  2 -1</clus>
</clustering>
</event>
<event>
 6    0  0.8777103E+002  0.1030806E+03  0.7546771E-02  0.1273948E+00
         21   -1    0    0  504  501  0.00000000000E+00  0.00000000000E+00  0.91986282206E+02  0.91986282206E+02  0.00000000000E+00 0. -1.
         21   -1    0    0  506  502 -0.00000000000E+00 -0.00000000000E+00 -0.17855304927E+04  0.17855304927E+04  0.00000000000E+00 0.  1.
         21    1    1    2  503  501  0.67962040904E+01  0.37592138317E+02  0.20322037929E+02  0.43270572897E+02  0.00000000000E+00 0. -1.
         21    1    1    2  504  502  0.50863332401E+02 -0.12539482216E+03 -0.34325989535E+02  0.13960377346E+03  0.00000000000E+00 0. -1.
         21    1    1    2  505  503  0.18647946295E+02  0.91133319881E+02 -0.32772179190E+03  0.34066787459E+03  0.00000000000E+00 0. -1.
         21    1    1    2  506  505 -0.76307482787E+02 -0.33306360401E+01 -0.13518184670E+04  0.13539745540E+04  0.00000000000E+00 0.  1.
<scales pt_clust_3="38.20153" pt_clust_4="103.08056" pt_clust_5="14000.00000" pt_clust_6="76.23209"></scales>
<clustering>
<clus scale="   38.202">  1  3  2 -1</clus>
<clus scale="   76.232">  2  6  1 -1</clus>
<clus scale="  103.081">  1  4  2 -1</clus>
<clus scale="   38.202">  1  3  2 -1</clus>
</clustering>
</event>
<event>
 6    0  0.8777103E+002  0.9777839E+02  0.7546771E-02  0.1285038E+00
         21   -1    0    0  505  501  0.00000000000E+00  0.00000000000E+00  0.77389414265E+03  0.77389414265E+03  0.00000000000E+00 0.  1.
         21   -1    0    0  503  502 -0.00000000000E+00 -0.00000000000E+00 -0.30339539497E+02  0.30339539497E+02  0.00000000000E+00 0.  1.
         21    1    1    2  503  506 -0.68973657448E+02 -0.50534109768E+02  0.13267923509E+03  0.15784435719E+03  0.00000000000E+00 0.  1.
         21    1    1    2  504  502  0.23449896790E+02 -0.20551962674E+02  0.71712970359E+02  0.78198663332E+02  0.00000000000E+00 0.  1.
         21    1    1    2  505  504 -0.14189938493E+02 -0.39043588253E+02  0.24448269199E+03  0.24798698115E+03  0.00000000000E+00 0. -1.
         21    1    1    2  506  501  0.59713699151E+02  0.11012966069E+03  0.29467970572E+03  0.32020368048E+03  0.00000000000E+00 0.  1.
<scales pt_clust_3="14000.00000" pt_clust_4="31.18142" pt_clust_5="42.31503" pt_clust_6="97.77839"></scales>
<clustering>
<clus scale="   31.181">  2  4  1 -1</clus>
<clus scale="   42.315">  1  5  2 -1</clus>
<clus scale="   97.778">  1  6  2 -1</clus>
<clus scale="   42.315">  1  3  2 -1</clus>
</clustering>
</event>
<event>
 6    0  0.8777103E+002  0.1080795E+03  0.7546771E-02  0.1264168E+00
         21   -1    0    0  506  501  0.00000000000E+00  0.00000000000E+00  0.19308934613E+04  0.19308934613E+04  0.00000000000E+00 0.  1.
         21   -1    0    0  501  502 -0.00000000000E+00 -0.00000000000E+00 -0.59375795703E+02  0.59375795703E+02  0.00000000000E+00 0. -1.
         21    1    1    2  503  505 -0.74092153150E+02 -0.34261322906E+02  0.37540455099E+03  0.38417712361E+03  0.00000000000E+00 0.  1.
         21    1    1    2  504  502 -0.52667012455E+02  0.66471229523E+02  0.79485045979E+02  0.11623300344E+03  0.00000000000E+00 0.  1.
         21    1    1    2  505  504  0.14584507559E+03  0.10835165909E+02  0.11155445266E+03  0.18393635531E+03  0.00000000000E+00 0. -1.
         21    1    1    2  506  503 -0.19085909987E+02 -0.43045072526E+02  0.13050736160E+04  0.13059227746E+04  0.00000000000E+00 0.  1.
<scales pt_clust_3="108.07954" pt_clust_4="81.64355" pt_clust_5="14000.00000" pt_clust_6="47.08662"></scales>
<clustering>
<clus scale="   47.087">  1  6  2 -1</clus>
<clus scale="   81.644">  2  4  1 -1</clus>
<clus scale="  108.080">  1  3  2 -1</clus>
<clus scale="   47.087">  1  3  2 -1</clus>
</clustering>
</event>
<event>
 6    0  0.8777103E+002  0.1727122E+03  0.7546771E-02  0.1175049E+00
         21   -1    0    0  503  501  0.00000000000E+00  0.00000000000E+00  0.73394592797E+03  0.73394592797E+03  0.00000000000E+00 0.  1.
         21   -1    0    0  505  502 -0.00000000000E+00 -0.00000000000E+00 -0.19389275474E+04  0.19389275474E+04  0.00000000000E+00 0.  1.
         21    1    1    2  503  506 -0.62443211555E+02 -0.20807206924E+02  0.13709610364E+03  0.15207707310E+03  0.00000000000E+00 0.  1.
         21    1    1    2  504  502 -0.18272997973E+02  0.45859175640E+02 -0.16659137453E+04  0.16666450051E+04  0.00000000000E+00 0.  1.
         21    1    1    2  505  501  0.19026259014E+03 -0.75651110332E+02 -0.21797930604E+03  0.29906173537E+03  0.00000000000E+00 0.  1.
         21    1    1    2  506  504 -0.10954638061E+03  0.50599141616E+02  0.54181532827E+03  0.55508966175E+03  0.00000000000E+00 0.  1.
<scales pt_clust_3="65.91054" pt_clust_4="49.36564" pt_clust_5="14000.00000" pt_clust_6="172.71220"></scales>
<clustering>
<clus scale="   49.366">  2  4  1 -1</clus>
<clus scale="   65.911">  1  3  2 -1</clus>
<clus scale="  172.712">  1  6  2 -1</clus>
<clus scale="   65.911">  1  3  2 -1</clus>
</clustering>
</event>
<event>
 6    0  0.8777103E+002  0.9221315E+02  0.7546771E-02  0.1297579E+00
         21   -1    0    0  503  501  0.00000000000E+00  0.00000000000E+00  0.21325995637E+03  0.21325995637E+03  0.00000000000E+00 0. -1.
         21   -1    0    0  506  502 -0.00000000000E+00 -0.00000000000E+00 -0.66276209483E+03  0.66276209483E+03  0.00000000000E+00 0.  1.
         21    1    1    2  503  505 -0.29036946743E+02 -0.88762204061E+02  0.17520087696E+03  0.19853770532E+03  0.00000000000E+00 0. -1.
         21    1    1    2  504  502 -0.33426605655E+02  0.24373079019E+01 -0.37900060009E+03  0.38047960957E+03  0.00000000000E+00 0.  1.
         21    1    1    2  505  504 -0.17379523183E+02  0.42027699694E+02 -0.13416184559E+02  0.47416973499E+02  0.00000000000E+00 0.  1.
         21    1    1    2  506  501  0.79843075581E+02  0.44297196465E+02 -0.23228623077E+03  0.24958776280E+03  0.00000000000E+00 0.  1.
<scales pt_clust_3="92.21315" pt_clust_4="33.51535" pt_clust_5="47.20418" pt_clust_6="14000.00000"></scales>
<clustering>
<clus scale="   33.515">  2  4  1 -1</clus>
<clus scale="   47.204">  2  5  1 -1</clus>
<clus scale="   92.213">  1  3  2 -1</clus>
<clus scale="   92.213">  1  3  2 -1</clus>
</clustering>
</event>
<event>
 6    0  0.8777103E+002  0.9165047E+02  0.7546771E-02  0.1298903E+00
         21   -1    0    0  505  501  0.00000000000E+00  0.00000000000E+00  0.26119027794E+03  0.26119027794E+03  0.00000000000E+00 0. -1.
         21   -1    0    0  503  502 -0.00000000000E+00 -0.00000000000E+00 -0.16641715648E+04  0.16641715648E+04  0.00000000000E+00 0. -1.
         21    1    1    2  503  504 -0.46768750551E+02 -0.28320411937E+02 -0.13998322569E+04  0.14008996071E+04  0.00000000000E+00 0. -1.
         21    1    1    2  504  501  0.14753163329E+02  0.28634807602E+02  0.22617311846E+03  0.22845543887E+03  0.00000000000E+00 0. -1.
         21    1    1    2  505  506  0.10121465559E+03 -0.20713917635E+01 -0.72295860269E+02  0.12440011488E+03  0.00000000000E+00 0. -1.
         21    1    1    2  506  502 -0.69199068364E+02  0.17569960992E+01 -0.15702628813E+03  0.17160668187E+03  0.00000000000E+00 0. -1.
<scales pt_clust_3="54.24323" pt_clust_4="32.21192" pt_clust_5="14000.00000" pt_clust_6="91.65047"></scales>
<clustering>
<clus scale="   32.212">  1  4  2 -1</clus>
<clus scale="   54.243">  2  3  1 -1</clus>
<clus scale="   91.650">  2  6  1 -1</clus>
<clus scale="   32.212">  1  3  2 -1</clus>
</clustering>
</event>
<event>
 6    0  0.8777103E+002  0.9262739E+02  0.7546771E-02  0.1296611E+00
         21   -1    0    0  504  501  0.00000000000E+00  0.00000000000E+00  0.86551356233E+03  0.86551356233E+03  0.00000000000E+00 0.  1.
         21   -1    0    0  505  502 -0.00000000000E+00 -0.00000000000E+00 -0.42699716075E+02  0.42699716075E+02  0.00000000000E+00 0. -1.
         21    1    1    2  503  501 -0.34380677932E+02  0.46160130456E+02  0.17460729664E+03  0.18384911395E+03  0.00000000000E+00 0. -1.
         21    1    1    2  504  506  0.33063305037E+02  0.53079509406E+02  0.49300471257E+03  0.49695499100E+03  0.00000000000E+00 0.  1.
         21    1    1    2  505  503 -0.34329608877E+02 -0.11640295158E+03  0.89796876685E+02  0.15096903075E+03  0.00000000000E+00 0. -1.
         21    1    1    2  506  502  0.35646981772E+02  0.17163311721E+02  0.65404960357E+02  0.76440142712E+02  0.00000000000E+00 0.  1.
<scales pt_clust_3="56.82661" pt_clust_4="14000.00000" pt_clust_5="92.62739" pt_clust_6="39.56370"></scales>
<clustering>
<clus scale="   39.564">  2  6  1 -1</clus>
<clus scale="   56.827">  1  3  2 -1</clus>
<clus scale="   92.627">  2  5  1 -1</clus>
<clus scale="   56.827">  1  3  2 -1</clus>
</clustering>
</event>
<event>
 6    0  0.8777103E+002  0.1710715E+03  0.7546771E-02  0.1176735E+00
         21   -1    0    0  502  501  0.00000000000E+00  0.00000000000E+00  0.32690927888E+03  0.32690927888E+03  0.00000000000E+00 0. -1.
         21   -1    0    0  505  502 -0.00000000000E+00 -0.00000000000E+00 -0.62161054458E+03  0.62161054458E+03  0.00000000000E+00 0. -1.
         21    1    1    2  503  506  0.58209422920E+02  0.15948679683E+03 -0.47341011257E+03  0.50293290802E+03  0.00000000000E+00 0. -1.
         21    1    1    2  504  501 -0.35983367555E+02 -0.97901682895E+01  0.18023742941E+03  0.18405483177E+03  0.00000000000E+00 0. -1.
         21    1    1    2  505  503 -0.31957006075E+02  0.12322262929E+02 -0.75691888892E+02  0.83080385441E+02  0.00000000000E+00 0. -1.
         21    1    1    2  506  504  0.97309507101E+01 -0.16201889147E+03  0.74163306354E+02  0.17845169824E+03  0.00000000000E+00 0. -1.
<scales pt_clust_3="14000.00000" pt_clust_4="37.38865" pt_clust_5="34.25038" pt_clust_6="171.07151"></scales>
<clustering>
<clus scale="   34.250">  2  5  1 -1</clus>
<clus scale="   37.389">  1  4  2 -1</clus>
<clus scale="  171.072">  1  6  2 -1</clus>
<clus scale="   37.389">  1  3  2 -1</clus>
</clustering>
</event>
<event>
 6    0  0.8777103E+002  0.1465638E+03  0.7546771E-02  0.1204760E+00
         21   -1    0    0  505  501  0.00000000000E+00  0.00000000000E+00  0.22964081261E+03  0.22964081261E+03  0.00000000000E+00 0.  1.
         21   -1    0    0  506  502 -0.00000000000E+00 -0.00000000000E+00 -0.16629085113E+04  0.16629085113E+04  0.00000000000E+00 0.  1.
         21    1    1    2  503  504 -0.40183451410E+02 -0.15696292542E+03 -0.54385071178E+01  0.16211615306E+03  0.00000000000E+00 0.  1.
         21    1    1    2  504  502 -0.14765740204E+02  0.26303209295E+02 -0.14359952353E+04  0.14363120140E+04  0.00000000000E+00 0.  1.
         21    1    1    2  505  503  0.35979397511E+02  0.33167938261E+01  0.11892150035E+03  0.12428934553E+03  0.00000000000E+00 0.  1.
         21    1    1    2  506  501  0.18969794103E+02  0.12734292229E+03 -0.11075545660E+03  0.16983181125E+03  0.00000000000E+00 0.  1.
<scales pt_clust_3="146.56383" pt_clust_4="30.16432" pt_clust_5="35.98798" pt_clust_6="14000.00000"></scales>
<clustering>
<clus scale="   30.164">  2  4  1 -1</clus>
<clus scale="   35.988">  1  5  2 -1</clus>
<clus scale="  146.564">  1  3  2 -1</clus>
<clus scale="   35.988">  1  3  2 -1</clus>
</clustering>
</event>
<event>
 6    0  0.8777103E+002  0.9146780E+02  0.7546771E-02  0.1299336E+00
         21   -1    0    0  503  501  0.00000000000E+00  0.00000000000E+00  0.11628909315E+04  0.11628909315E+04  0.00000000000E+00 0.  1.
         21   -1    0    0  504  502 -0.00000000000E+00 -0.00000000000E+00 -0.19082693206E+03  0.19082693206E+03  0.00000000000E+00 0. -1.
         21    1    1    2  503  502  0.10563807913E+03  0.68433197227E+01  0.68861097914E+02  0.12628572997E+03  0.00000000000E+00 0.  1.
         21    1    1    2  504  505 -0.18856589073E+02  0.32196359030E+02 -0.86651744379E+02  0.94343528078E+02  0.00000000000E+00 0. -1.
         21    1    1    2  505  506 -0.63335680103E+02  0.37137991087E+02 -0.50866476029E+02  0.89319858596E+02  0.00000000000E+00 0. -1.
         21    1    1    2  506  501 -0.23445809957E+02 -0.76177669840E+02  0.10407211219E+04  0.10437687469E+04  0.00000000000E+00 0.  1.
<scales pt_clust_3="14000.00000" pt_clust_4="37.31188" pt_clust_5="91.46780" pt_clust_6="79.32208"></scales>
<clustering>
<clus scale="   37.312">  2  4  1 -1</clus>
<clus scale="   79.322">  1  6  2 -1</clus>
<clus scale="   91.468">  2  5  1 -1</clus>
<clus scale="   79.322">  1  3  2 -1</clus>
</clustering>
</event>
<event>
 6    0  0.8777103E+002  0.1574481E+03  0.7546771E-02  0.1191608E+00
         21   -1    0    0  502  501  0.00000000000E+00  0.00000000000E+00  0.28835822581E+02  0.28835822581E+02  0.00000000000E+00 0.  1.
         21   -1    0    0  505  502 -0.00000000000E+00 -0.00000000000E+00 -0.34380678738E+04  0.34380678738E+04  0.00000000000E+00 0.  1.
         21    1    1    2  503  506  0.17126766798E+03  0.17456886136E+02 -0.77778563085E+03  0.79661022120E+03  0.00000000000E+00 0.  1.
         21    1    1    2  504  501 -0.44818462343E+02  0.29893663728E+02 -0.97262999992E+02  0.11118640594E+03  0.00000000000E+00 0.  1.
         21    1    1    2  505  503 -0.16793985387E+02  0.69678877239E+02 -0.20020320206E+04  0.20033146022E+04  0.00000000000E+00 0.  1.
         21    1    1    2  506  504 -0.10965522025E+03 -0.11702942710E+03 -0.53215139985E+03  0.55579246711E+03  0.00000000000E+00 0.  1.
<scales pt_clust_3="157.44814" pt_clust_4="53.87324" pt_clust_5="72.84192" pt_clust_6="14000.00000"></scales>
<clustering>
<clus scale="   53.873">  1  4  2 -1</clus>
<clus scale="   72.842">  2  5  1 -1</clus>
<clus scale="  157.448">  2  3  1 -1</clus>
<clus scale="   53.873">  1  3  2 -1</clus>
</clustering>
</event>
<event>
 6    0  0.8777103E+002  0.8870601E+02  0.7546771E-02  0.1306016E+00
         21   -1    0    0  503  501  0.00000000000E+00  0.00000000000E+00  0.70001465613E+03  0.70001465613E+03  0.00000000000E+00 0. -1.
         21   -1    0    0  505  502 -0.00000000000E+00 -0.00000000000E+00 -0.12187177981E+03  0.12187177981E+03  0.00000000000E+00 0. -1.
         21    1    1    2  503  502 -0.88056499848E+02  0.29939487172E+02 -0.55528425723E+02  0.10832232513E+03  0.00000000000E+00 0. -1.
         21    1    1    2  504  506  0.74316883580E+02 -0.13296184429E+02  0.22610770245E+03  0.23837885982E+03  0.00000000000E+00 0. -1.
         21    1    1    2  505  504 -0.15766490587E+01 -0.70211866950E+02  0.67895435986E+01  0.70556998130E+02  0.00000000000E+00 0. -1.
         21    1    1    2  506  501  0.15316265326E+02  0.53568564207E+02  0.40077405600E+03  0.40462825286E+03  0.00000000000E+00 0. -1.
<scales pt_clust_3="14000.00000" pt_clust_4="88.70601" pt_clust_5="63.24526" pt_clust_6="55.71516"></scales>
<clustering>
<clus scale="   55.715">  1  6  2 -1</clus>
<clus scale="   63.245">  2  5  1 -1</clus>
<clus scale="   88.706">  1  4  2 -1</clus>
<clus scale="   55.715">  1  3  2 -1</clus>
</clustering>
</event>
<event>
 6    0  0.8777103E+002  0.3595759E+03  0.7546771E-02  0.1058752E+00
         21   -1    0    0  503  501  0.00000000000E+00  0.00000000000E+00  0.74097132210E+03  0.74097132210E+03  0.00000000000E+00 0. -1.
         21   -1    0    0  506  502 -0.00000000000E+00 -0.00000000000E+00 -0.12597661004E+04  0.12597661004E+04  0.00000000000E+00 0. -1.
         21    1    1    2  503  505 -0.30458398464E+02 -0.26377143725E+00  0.13418655790E+03  0.13760020324E+03  0.00000000000E+00 0. -1.
         21    1    1    2  504  501 -0.31513837688E+03  0.10381514179E+03  0.37262013509E+03  0.49893440983E+03  0.00000000000E+00 0. -1.
         21    1    1    2  505  502  0.37641725539E+03 -0.95875250805E+02 -0.54102800991E+02  0.39218506722E+03  0.00000000000E+00 0. -1.
         21    1    1    2  506  504 -0.30820480049E+02 -0.76761195499E+01 -0.97149867025E+03  0.97201774217E+03  0.00000000000E+00 0. -1.
<scales pt_clust_3="30.45954" pt_clust_4="359.57588" pt_clust_5="14000.00000" pt_clust_6="31.77471"></scales>
<clustering>
<clus scale="   30.460">  1  3  2 -1</clus>
<clus scale="   31.775">  2  6  1 -1</clus>
<clus scale="  359.576">  1  4  2 -1</clus>
<clus scale="   30.460">  1  3  2 -1</clus>
</clustering>
</event>
<event>
 6    0  0.8777103E+002  0.1351000E+03  0.7546771E-02  0.1220079E+00
         21   -1    0    0  504  501  0.00000000000E+00  0.00000000000E+00  0.34168909257E+03  0.34168909257E+03  0.00000000000E+00 0. -1.
         21   -1    0    0  505  502 -0.00000000000E+00 -0.00000000000E+00 -0.24377079120E+03  0.24377079120E+03  0.00000000000E+00 0. -1.
         21    1    1    2  503  502 -0.83262867702E+02 -0.37172184256E+02 -0.11010672047E+03  0.14296141547E+03  0.00000000000E+00 0. -1.
         21    1    1    2  504  506  0.70331605704E+00  0.35530009870E+02  0.14987373518E+03  0.15402925941E+03  0.00000000000E+00 0. -1.
         21    1    1    2  505  501  0.17493329900E+03 -0.31138744842E+02  0.67353249867E+02  0.19002036943E+03  0.00000000000E+00 0. -1.
         21    1    1    2  506  503 -0.92373747354E+02  0.32780919228E+02 -0.92019632062E+01  0.98448839468E+02  0.00000000000E+00 0. -1.
<scales pt_clust_3="89.91722" pt_clust_4="35.53697" pt_clust_5="135.09996" pt_clust_6="14000.00000"></scales>
<clustering>
<clus scale="   35.537">  1  4  2 -1</clus>
<clus scale="   89.917">  2  3  1 -1</clus>
<clus scale="  135.100">  2  5  1 -1</clus>
<clus scale="   35.537">  1  3  2 -1</clus>
</clustering>
</event>
<event>
 6    0  0.8777103E+002  0.7385832E+02  0.7546771E-02  0.1347443E+00
         21   -1    0    0  505  501  0.00000000000E+00  0.00000000000E+00  0.52882357325E+03  0.52882357325E+03  0.00000000000E+00 0.  1.
         21   -1    0    0  506  502 -0.00000000000E+00 -0.00000000000E+00 -0.84343389136E+02  0.84343389136E+02  0.00000000000E+00 0.  1.
         21    1    1    2  503  502  0.53525174171E+02  0.56455552714E+02  0.73414515735E+02  0.10696665285E+03  0.00000000000E+00 0. -1.
         21    1    1    2  504  501 -0.33740849202E+02  0.27212798823E+01  0.97635110626E+02  0.10333665901E+03  0.00000000000E+00 0. -1.
         21    1    1    2  505  503  0.30103490375E+02 -0.82422348787E+02  0.31934982467E+03  0.33118570958E+03  0.00000000000E+00 0.  1.
         21    1    1    2  506  504 -0.49887815345E+02  0.23245516190E+02 -0.45919266919E+02  0.71677940938E+02  0.00000000000E+00 0.  1.
<scales pt_clust_3="73.85832" pt_clust_4="33.85041" pt_clust_5="14000.00000" pt_clust_6="55.99297"></scales>
<clustering>
<clus scale="   33.850">  1  4  2 -1</clus>
<clus scale="   55.993">  2  6  1 -1</clus>
<clus scale="   73.858">  2  3  1 -1</clus>
<clus scale="   33.850">  1  3  2 -1</clus>
</clustering>
</event>
<event>
 6    0  0.8777103E+002  0.1113438E+03  0.7546771E-02  0.1258101E+00
         21   -1    0    0  504  501  0.00000000000E+00  0.00000000000E+00  0.10225055101E+03  0.10225055101E+03  0.00000000000E+00 0.  1.
         21   -1    0    0  506  502 -0.00000000000E+00 -0.00000000000E+00 -0.14078761326E+04  0.14078761326E+04  0.00000000000E+00 0.  1.
         21    1    1    2  503  505 -0.38334118037E+02 -0.70828240627E+02 -0.14358746913E+02  0.81806588298E+02  0.00000000000E+00 0.  1.
         21    1    1    2  504  503 -0.24867191201E+02 -0.24723342055E+02  0.30434002557E+02  0.46431124822E+02  0.00000000000E+00 0.  1.
         21    1    1    2  505  502 -0.60055871298E+02  0.98519978154E+02 -0.12101002202E+04  0.12155885146E+04  0.00000000000E+00 0.  1.
         21    1    1    2  506  501  0.12325718054E+03 -0.29683954716E+01 -0.11160061703E+03  0.16630045594E+03  0.00000000000E+00 0.  1.
<scales pt_clust_3="98.42614" pt_clust_4="35.06595" pt_clust_5="14000.00000" pt_clust_6="111.34377"></scales>
<clustering>
<clus scale="   35.066">  1  4  2 -1</clus>
<clus scale="   98.426">  1  3  2 -1</clus>
<clus scale="  111.344">  1  6  2 -1</clus>
<clus scale="   35.066">  1  3  2 -1</clus>
</clustering>
</event>
<event>
 6    0  0.8777103E+002  0.1396998E+03  0.7546771E-02  0.1213733E+00
         21   -1    0    0  503  501  0.00000000000E+00  0.00000000000E+00  0.13788739945E+03  0.13788739945E+03  0.00000000000E+00 0. -1.
         21   -1    0    0  505  502 -0.00000000000E+00 -0.00000000000E+00 -0.25151725354E+03  0.25151725354E+03  0.00000000000E+00 0. -1.
         21    1    1    2  503  504 -0.57575916507E+02  0.18579339088E+02  0.40242710943E+02  0.72661226157E+02  0.00000000000E+00 0.  1.
         21    1    1    2  504  502 -0.72080323669E+02  0.30883162166E+02  0.68954160995E+01  0.78720324751E+02  0.00000000000E+00 0. -1.
         21    1    1    2  505  506  0.22888776853E+01 -0.37628393356E+02 -0.75217236504E+02  0.84135412372E+02  0.00000000000E+00 0. -1.
         21    1    1    2  506  501  0.12736736249E+03 -0.11834107898E+02 -0.85550744625E+02  0.15388768971E+03  0.00000000000E+00 0. -1.
<scales pt_clust_3="33.29742" pt_clust_4="33.29742" pt_clust_5="37.69794" pt_clust_6="134.45796"></scales>
<clustering>
<clus scale="   33.297">  3  4 -1 -1</clus>
<clus scale="   37.698">  2  5  1 -1</clus>
<clus scale="  134.458">  2  6  1 -1</clus>
<clus scale="  139.700">  1  3  2 -1</clus>
</clustering>
</event>
<event>
 6    0  0.8777103E+002  0.1225499E+03  0.7546771E-02  0.1238949E+00
         21   -1    0    0  504  501  0.00000000000E+00  0.00000000000E+00  0.66924779348E+03  0.66924779348E+03  0.00000000000E+00 0. -1.
         21   -1    0    0  503  502 -0.00000000000E+00 -0.00000000000E+00 -0.16848314232E+03  0.16848314232E+03  0.00000000000E+00 0. -1.
         21    1    1    2  503  501 -0.78208504211E+02  0.73835387178E+02  0.16772061552E+03  0.19924467220E+03  0.00000000000E+00 0. -1.
         21    1    1    2  504  505 -0.14723918298E+02  0.35194287367E+02  0.27435736068E+03  0.27699709925E+03  0.00000000000E+00 0. -1.
         21    1    1    2  505  506 -0.37034211915E+02 -0.11218119381E+03  0.15843215613E+03  0.19762818927E+03  0.00000000000E+00 0.  1.
         21    1    1    2  506  502  0.12996663442E+03  0.31515192613E+01 -0.99745481183E+02  0.16386097508E+03  0.00000000000E+00 0. -1.
<scales pt_clust_3="122.54986" pt_clust_4="38.15012" pt_clust_5="105.71390" pt_clust_6="14000.00000"></scales>
<clustering>
<clus scale="   38.150">  1  4  2 -1</clus>
<clus scale="  105.714">  1  5  2 -1</clus>
<clus scale="  122.550">  1  3  2 -1</clus>
<clus scale="   38.150">  1  3  2 -1</clus>
</clustering>
</event>
<event>
 6    0  0.8777103E+002  0.1013492E+03  0.7546771E-02  0.1277484E+00
         21   -1    0    0  505  501  0.00000000000E+00  0.00000000000E+00  0.17185434580E+04  0.17185434580E+04  0.00000000000E+00 0. -1.
         21   -1    0    0  503  502 -0.00000000000E+00 -0.00000000000E+00 -0.33651630833E+02  0.33651630833E+02  0.00000000000E+00 0. -1.
         21    1    1    2  503  506 -0.48071250824E+02  0.61054773099E+02  0.71579830411E+02  0.10565132557E+03  0.00000000000E+00 0. -1.
         21    1    1    2  504  501 -0.69022358566E+02 -0.11275306201E+03  0.12175050906E+04  0.12246615797E+04  0.00000000000E+00 0. -1.
         21    1    1    2  505  502  0.53857901474E+02  0.16394953951E+02  0.79658621614E+02  0.97544677270E+02  0.00000000000E+00 0. -1.
         21    1    1    2  506  504  0.63235707916E+02  0.35303334956E+02  0.31614828451E+03  0.32433750633E+03  0.00000000000E+00 0. -1.
<scales pt_clust_3="73.18059" pt_clust_4="14000.00000" pt_clust_5="56.29803" pt_clust_6="101.34917"></scales>
<clustering>
<clus scale="   56.298">  2  5  1 -1</clus>
<clus scale="   73.181">  2  3  1 -1</clus>
<clus scale="  101.349">  2  6  1 -1</clus>
<clus scale="  101.349">  1  3  2 -1</clus>
</clustering>
</event>
<event>
 6    0  0.8777103E+002  0.1185073E+03  0.7546771E-02  0.1245580E+00
         21   -1    0    0  505  501  0.00000000000E+00  0.00000000000E+00  0.35384017274E+03  0.35384017274E+03  0.00000000000E+00 0. -1.
         21   -1    0    0  503  502 -0.00000000000E+00 -0.00000000000E+00 -0.12206030645E+04  0.12206030645E+04  0.00000000000E+00 0.  1.
         21    1    1    2  503  506 -0.98783660481E+02  0.89923052055E+02 -0.67602544601E+03  0.68909706902E+03  0.00000000000E+00 0.  1.
         21    1    1    2  504  502  0.94033692432E+02 -0.51862621314E+02 -0.52129792761E+03  0.53224392540E+03  0.00000000000E+00 0.  1.
         21    1    1    2  505  504 -0.71794779186E+01 -0.66892920052E+02  0.30623414203E+03  0.31353717068E+03  0.00000000000E+00 0. -1.
         21    1    1    2  506  501  0.11929445968E+02  0.28832489312E+02  0.24326339848E+02  0.39565072115E+02  0.00000000000E+00 0. -1.
<scales pt_clust_3="118.50730" pt_clust_4="14000.00000" pt_clust_5="39.37213" pt_clust_6="31.20295"></scales>
<clustering>
<clus scale="   31.203">  1  6  2 -1</clus>
<clus scale="   39.372">  1  5  2 -1</clus>
<clus scale="  118.507">  1  3  2 -1</clus>
<clus scale="   31.203">  1  3  2 -1</clus>
</clustering>
</event>
<event>
 6    0  0.8777103E+002  0.8091395E+02  0.7546771E-02  0.1326478E+00
         21   -1    0    0  503  501  0.00000000000E+00  0.00000000000E+00  0.78866548969E+03  0.78866548969E+03  0.00000000000E+00 0.  1.
         21   -1    0    0  505  502 -0.00000000000E+00 -0.00000000000E+00 -0.15786830782E+03  0.15786830782E+03  0.00000000000E+00 0.  1.
         21    1    1    2  503  506 -0.42453373978E+02  0.10899312815E+03  0.31172612921E+03  0.33294890085E+03  0.00000000000E+00 0.  1.
         21    1    1    2  504  502  0.29874177268E+02  0.14409500351E+02 -0.11595931579E+03  0.12060954807E+03  0.00000000000E+00 0.  1.
         21    1    1    2  505  501 -0.33685868133E+01 -0.48274877584E+02  0.40904365297E+03  0.41189625055E+03  0.00000000000E+00 0.  1.
         21    1    1    2  506  504  0.15947783523E+02 -0.75127750915E+02  0.25986715481E+02  0.81079098036E+02  0.00000000000E+00 0.  1.
<scales pt_clust_3="14000.00000" pt_clust_4="33.16776" pt_clust_5="47.81065" pt_clust_6="80.91395"></scales>
<clustering>
<clus scale="   33.168">  2  4  1 -1</clus>
<clus scale="   47.811">  1  5  2 -1</clus>
<clus scale="   80.914">  2  6  1 -1</clus>
<clus scale="   47.811">  1  3  2 -1</clus>
</clustering>
</event>
<event>
 6    0  0.8777103E+002  0.7083494E+02  0.7546771E-02  0.1357277E+00
         21   -1    0    0  506  501  0.00000000000E+00  0.00000000000E+00  0.19316918979E+03  0.19316918979E+03  0.00000000000E+00 0. -1.
         21   -1    0    0  505  502 -0.00000000000E+00 -0.00000000000E+00 -0.98283874653E+03  0.98283874653E+03  0.00000000000E+00 0.  1.
         21    1    1    2  503  504  0.50070784206E+02 -0.29584241585E+02 -0.13096052168E+03  0.14329329719E+03  0.00000000000E+00 0.  1.
         21    1    1    2  504  501 -0.51422953298E+02 -0.16353708324E+02  0.17594531223E+03  0.18403400990E+03  0.00000000000E+00 0. -1.
         21    1    1    2  505  503  0.68544275150E+02  0.36741296545E+02 -0.57835656477E+03  0.58356195604E+03  0.00000000000E+00 0.  1.
         21    1    1    2  506  502 -0.67192106058E+02  0.91966533635E+01 -0.25629778253E+03  0.26511867320E+03  0.00000000000E+00 0.  1.
<scales pt_clust_3="45.42119" pt_clust_4="53.96076" pt_clust_5="70.83494" pt_clust_6="14000.00000"></scales>
<clustering>
<clus scale="   53.961">  1  4  2 -1</clus>
<clus scale="   45.421">  1  3  2 -1</clus>
<clus scale="   70.835">  2  5  1 -1</clus>
<clus scale="   53.961">  1  3  2 -1</clus>
</clustering>
</event>
<event>
 6    0  0.8777103E+002  0.1386358E+03  0.7546771E-02  0.1215176E+00
         21   -1    0    0  503  501  0.00000000000E+00  0.00000000000E+00  0.30072060195E+03  0.30072060195E+03  0.00000000000E+00 0.  1.
         21   -1    0    0  506  502 -0.00000000000E+00 -0.00000000000E+00 -0.48120528155E+03  0.48120528155E+03  0.00000000000E+00 0.  1.
         21    1    1    2  503  504  0.58220802440E+02 -0.13176403775E+03  0.25326691212E+03  0.29136841328E+03  0.00000000000E+00 0.  1.
         21    1    1    2  504  505 -0.59597700634E+01  0.56188268982E+02 -0.18273455137E+03  0.19127089871E+03  0.00000000000E+00 0.  1.
         21    1    1    2  505  502  0.34540411826E+02  0.71268906543E+01 -0.13294611236E+03  0.13754454337E+03  0.00000000000E+00 0.  1.
         21    1    1    2  506  501 -0.86801444202E+02  0.68448878111E+02 -0.11807092800E+03  0.16174202815E+03  0.00000000000E+00 0. -1.
<scales pt_clust_3="138.63579" pt_clust_4="61.37123" pt_clust_5="35.26801" pt_clust_6="14000.00000"></scales>
<clustering>
<clus scale="   35.268">  2  5  1 -1</clus>
<clus scale="   61.371">  2  4  1 -1</clus>
<clus scale="  138.636">  1  3  2 -1</clus>
<clus scale="  138.636">  1  3  2 -1</clus>
</clustering>
</event>
<event>
 6    0  0.8777103E+002  0.9508221E+02  0.7546771E-02  0.1290991E+00
         21   -1    0    0  506  501  0.00000000000E+00  0.00000000000E+00  0.96377722539E+03  0.96377722539E+03  0.00000000000E+00 0. -1.
         21   -1    0    0  505  502 -0.00000000000E+00 -0.00000000000E+00 -0.94856910806E+03  0.94856910806E+03  0.00000000000E+00 0. -1.
         21    1    1    2  503  501 -0.37599078307E+01  0.63639628992E+02  0.12693247812E+03  0.14204222361E+03  0.00000000000E+00 0. -1.
         21    1    1    2  504  502  0.66430881940E+02 -0.92732510523E+01 -0.21846831427E+03  0.22853327898E+03  0.00000000000E+00 0. -1.
         21    1    1    2  505  503 -0.31926396515E+02  0.97479009908E+02 -0.70649692707E+03  0.71390430740E+03  0.00000000000E+00 0. -1.
         21    1    1    2  506  504 -0.30744577595E+02 -0.15184538785E+03  0.81324088055E+03  0.82786652346E+03  0.00000000000E+00 0. -1.
<scales pt_clust_3="63.75060" pt_clust_4="67.00008" pt_clust_5="95.08221" pt_clust_6="14000.00000"></scales>
<clustering>
<clus scale="   63.751">  1  3  2 -1</clus>
<clus scale="   67.000">  2  4  1 -1</clus>
<clus scale="   95.082">  2  5  1 -1</clus>
<clus scale="   63.751">  1  3  2 -1</clus>
</clustering>
</event>
<event>
 6    0  0.8777103E+002  0.9747663E+02  0.7546771E-02  0.1285694E+00
         21   -1    0    0  504  501  0.00000000000E+00  0.00000000000E+00  0.16285248824E+03  0.16285248824E+03  0.00000000000E+00 0.  1.
         21   -1    0    0  505  502 -0.00000000000E+00 -0.00000000000E+00 -0.39316295197E+03  0.39316295197E+03  0.00000000000E+00 0.  1.
         21    1    1    2  503  502  0.12882385851E+03 -0.13357442358E+02  0.65607691374E+02  0.14518394180E+03  0.00000000000E+00 0.  1.
         21    1    1    2  504  503 -0.40144974650E+02 -0.31181466756E+02  0.33767464978E+02  0.61025769555E+02  0.00000000000E+00 0.  1.
         21    1    1    2  505  506 -0.10624268677E+02  0.30627170604E+02 -0.14907537197E+03  0.15255938251E+03  0.00000000000E+00 0.  1.
         21    1    1    2  506  501 -0.78054615187E+02  0.13911738509E+02 -0.18061024812E+03  0.19724634634E+03  0.00000000000E+00 0.  1.
<scales pt_clust_3="97.47663" pt_clust_4="50.27707" pt_clust_5="32.41757" pt_clust_6="14000.00000"></scales>
<clustering>
<clus scale="   32.418">  2  5  1 -1</clus>
<clus scale="   50.277">  1  4  2 -1</clus>
<clus scale="   97.477">  1  3  2 -1</clus>
<clus scale="   50.277">  1  3  2 -1</clus>
</clustering>
</event>
<event>
 6    0  0.8777103E+002  0.1479610E+03  0.7546771E-02  0.1203001E+00
         21   -1    0    0  503  501  0.00000000000E+00  0.00000000000E+00  0.27721854058E+04  0.27721854058E+04  0.00000000000E+00 0. -1.
         21   -1    0    0  506  502 -0.00000000000E+00 -0.00000000000E+00 -0.39705845285E+03  0.39705845285E+03  0.00000000000E+00 0. -1.
         21    1    1    2  503  504  0.25853079268E+02 -0.15942821668E+02  0.20522222212E+04  0.20524469787E+04  0.00000000000E+00 0. -1.
         21    1    1    2  504  505  0.28191166455E+02  0.20890433279E+02  0.64581993924E+03  0.64677240664E+03  0.00000000000E+00 0. -1.
         21    1    1    2  505  502  0.44460142727E+02  0.13460549226E+03 -0.24325546422E+03  0.28154673451E+03  0.00000000000E+00 0. -1.
         21    1    1    2  506  501 -0.98504388449E+02 -0.13955310387E+03 -0.79659743222E+02  0.18847773883E+03  0.00000000000E+00 0. -1.
<scales pt_clust_3="30.37359" pt_clust_4="51.82158" pt_clust_5="147.96097" pt_clust_6="14000.00000"></scales>
<clustering>
<clus scale="   30.374">  1  3  2 -1</clus>
<clus scale="   51.822">  1  4  2 -1</clus>
<clus scale="  147.961">  2  5  1 -1</clus>
<clus scale="   30.374">  1  3  2 -1</clus>
</clustering>
</event>
<event>
 6    0  0.8777103E+002  0.9283621E+02  0.7546771E-02  0.1296125E+00
         21   -1    0    0  503  501  0.00000000000E+00  0.00000000000E+00  0.19065290860E+04  0.19065290860E+04  0.00000000000E+00 0. -1.
         21   -1    0    0  506  502 -0.00000000000E+00 -0.00000000000E+00 -0.32935661951E+02  0.32935661951E+02  0.00000000000E+00 0. -1.
         21    1    1    2  503  504 -0.40453066331E+02 -0.14428535497E+02  0.45330889887E+03  0.45533898473E+03  0.00000000000E+00 0.  1.
         21    1    1    2  504  502 -0.25852629545E+02 -0.20746302814E+02  0.12100964073E+03  0.12546752840E+03  0.00000000000E+00 0. -1.
         21    1    1    2  505  501  0.12467805784E+03  0.50503797268E+02  0.12907112782E+04  0.12977021443E+04  0.00000000000E+00 0. -1.
         21    1    1    2  506  505 -0.58372361968E+02 -0.15328958958E+02  0.85636062927E+01  0.60956090567E+02  0.00000000000E+00 0. -1.
<scales pt_clust_3="43.98596" pt_clust_4="33.14766" pt_clust_5="14000.00000" pt_clust_6="92.83621"></scales>
<clustering>
<clus scale="   33.148">  2  4  1 -1</clus>
<clus scale="   43.986">  1  3  2 -1</clus>
<clus scale="   92.836">  2  6  1 -1</clus>
<clus scale="   43.986">  1  3  2 -1</clus>
</clustering>
</event>
<event>
 6    0  0.8777103E+002  0.7582697E+02  0.7546771E-02  0.1341329E+00
         21   -1    0    0  503  501  0.00000000000E+00  0.00000000000E+00  0.44037192797E+02  0.44037192797E+02  0.00000000000E+00 0.  1.
         21   -1    0    0  505  502 -0.00000000000E+00 -0.00000000000E+00 -0.11570064813E+04  0.11570064813E+04  0.00000000000E+00 0. -1.
         21    1    1    2  503  506 -0.24557123128E+02 -0.99578168089E+02 -0.13565188135E+03  0.17005968591E+03  0.00000000000E+00 0.  1.
         21    1    1    2  504  501  0.45058630260E+01  0.66814544364E+02 -0.31387239860E+02  0.73957048117E+02  0.00000000000E+00 0.  1.
         21    1    1    2  505  504  0.55510235802E+02  0.70483026886E+02 -0.69855285508E+03  0.70429066067E+03  0.00000000000E+00 0. -1.
         21    1    1    2  506  502 -0.35458975700E+02 -0.37719403161E+02 -0.24737731218E+03  0.25273627938E+03  0.00000000000E+00 0.  1.
<scales pt_clust_3="14000.00000" pt_clust_4="75.82697" pt_clust_5="49.95496" pt_clust_6="51.76961"></scales>
<clustering>
<clus scale="   51.770">  2  6  1 -1</clus>
<clus scale="   49.955">  2  5  1 -1</clus>
<clus scale="   75.827">  1  4  2 -1</clus>
<clus scale="   75.827">  1  3  2 -1</clus>
</clustering>
</event>
<event>
 6    0  0.8777103E+002  0.1034286E+03  0.7546771E-02  0.1273247E+00
         21   -1    0    0  505  501  0.00000000000E+00  0.00000000000E+00  0.22248283770E+02  0.22248283770E+02  0.00000000000E+00 0.  1.
         21   -1    0    0  503  502 -0.00000000000E+00 -0.00000000000E+00 -0.18328932240E+04  0.18328932240E+04  0.00000000000E+00 0.  1.
         21    1    1    2  503  504 -0.29760747822E+02  0.78523615815E+01 -0.71542027333E+03  0.71608206875E+03  0.00000000000E+00 0.  1.
         21    1    1    2  504  501 -0.72903147739E+02  0.22124980452E+02 -0.43112977079E+03  0.43780961955E+03  0.00000000000E+00 0.  1.
         21    1    1    2  505  506  0.11695540074E+03  0.68142286509E+01 -0.17517802692E+03  0.21074235595E+03  0.00000000000E+00 0.  1.
         21    1    1    2  506  502 -0.14291505178E+02 -0.36791570684E+02 -0.48891686921E+03  0.49050746354E+03  0.00000000000E+00 0.  1.
<scales pt_clust_3="30.77924" pt_clust_4="14000.00000" pt_clust_5="103.42858" pt_clust_6="43.12215"></scales>
<clustering>
<clus scale="   30.779">  2  3  1 -1</clus>
<clus scale="   43.122">  2  6  1 -1</clus>
<clus scale="  103.429">  1  5  2 -1</clus>
<clus scale="  103.429">  1  3  2 -1</clus>
</clustering>
</event>
<event>
 6    0  0.8777103E+002  0.1138224E+03  0.7546771E-02  0.1253651E+00
         21   -1    0    0  504  501  0.00000000000E+00  0.00000000000E+00  0.39787017672E+03  0.39787017672E+03  0.00000000000E+00 0.  1.
         21   -1    0    0  506  502 -0.00000000000E+00 -0.00000000000E+00 -0.58448220282E+03  0.58448220282E+03  0.00000000000E+00 0.  1.
         21    1    1    2  503  501  0.37292034102E+02  0.13159083281E+03 -0.25292362295E+03  0.28753643619E+03  0.00000000000E+00 0.  1.
         21    1    1    2  504  505  0.18012697948E+02 -0.11203123428E+03  0.35104738755E+03  0.36893051249E+03  0.00000000000E+00 0.  1.
         21    1    1    2  505  502  0.33132376896E+02 -0.17599329701E+02 -0.12351784911E+02  0.39497561889E+02  0.00000000000E+00 0.  1.
         21    1    1    2  506  503 -0.88437108946E+02 -0.19602688333E+01 -0.27238400578E+03  0.28638786898E+03  0.00000000000E+00 0.  1.
<scales pt_clust_3="14000.00000" pt_clust_4="113.82241" pt_clust_5="37.51654" pt_clust_6="72.66612"></scales>
<clustering>
<clus scale="   37.517">  2  5  1 -1</clus>
<clus scale="   72.666">  2  6  1 -1</clus>
<clus scale="  113.822">  1  4  2 -1</clus>
<clus scale="  113.822">  1  3  2 -1</clus>
</clustering>
</event>
<event>
 6    0  0.8777103E+002  0.8936203E+02  0.7546771E-02  0.1304404E+00
         21   -1    0    0  506  501  0.00000000000E+00  0.00000000000E+00  0.10625608239E+04  0.10625608239E+04  0.00000000000E+00 0. -1.
         21   -1    0    0  504  502 -0.00000000000E+00 -0.00000000000E+00 -0.65561558099E+02  0.65561558099E+02  0.00000000000E+00 0.  1.
         21    1    1    2  503  505  0.12040442591E+03  0.91514135974E+01  0.17042082925E+03  0.20886415009E+03  0.00000000000E+00 0.  1.
         21    1    1    2  504  501 -0.73749265718E+02  0.96407047208E+01  0.12183654485E+01  0.74386704429E+02  0.00000000000E+00 0.  1.
         21    1    1    2  505  502 -0.28402449367E+00 -0.46761264923E+02  0.53262861243E+02  0.70877563128E+02  0.00000000000E+00 0.  1.
         21    1    1    2  506  503 -0.46371135694E+02  0.27969146605E+02  0.77209720981E+03  0.77399396431E+03  0.00000000000E+00 0. -1.
<scales pt_clust_3="89.36203" pt_clust_4="14000.00000" pt_clust_5="46.76213" pt_clust_6="53.75776"></scales>
<clustering>
<clus scale="   46.762">  2  5  1 -1</clus>
<clus scale="   53.758">  1  6  2 -1</clus>
<clus scale="   89.362">  1  3  2 -1</clus>
<clus scale="   53.758">  1  3  2 -1</clus>
</clustering>
</event>
<event>
 6    0  0.8777103E+002  0.1764945E+03  0.7546771E-02  0.1171239E+00
         21   -1    0    0  503  501  0.00000000000E+00  0.00000000000E+00  0.79613303293E+02  0.79613303293E+02  0.00000000000E+00 0. -1.
         21   -1    0    0  504  502 -0.00000000000E+00 -0.00000000000E+00 -0.63504631490E+03  0.63504631490E+03  0.00000000000E+00 0. -1.
         21    1    1    2  503  505 -0.38129670728E+02 -0.27991802993E+02 -0.74600544131E+02  0.88332632754E+02  0.00000000000E+00 0. -1.
         21    1    1    2  504  501  0.12351377209E+03  0.10457020972E+03 -0.17929565950E+03  0.24153160078E+03  0.00000000000E+00 0. -1.
         21    1    1    2  505  506 -0.29373051136E+02 -0.12342451924E+03 -0.76367275398E+02  0.14808223673E+03  0.00000000000E+00 0. -1.
         21    1    1    2  506  502 -0.56011050230E+02  0.46846112513E+02 -0.22516953257E+03  0.23671314793E+03  0.00000000000E+00 0. -1.
<scales pt_clust_3="45.76294" pt_clust_4="159.79091" pt_clust_5="45.76294" pt_clust_6="73.01915"></scales>
<clustering>
<clus scale="   45.763">  3  5 -1 -1</clus>
<clus scale="   73.019">  2  6  1 -1</clus>
<clus scale="  159.791">  2  4  1 -1</clus>
<clus scale="  176.495">  1  3  2 -1</clus>
</clustering>
</event>
<event>
 6    0  0.8777103E+002  0.1279316E+03  0.7546771E-02  0.1230557E+00
         21   -1    0    0  506  501  0.00000000000E+00  0.00000000000E+00  0.82988919495E+03  0.82988919495E+03  0.00000000000E+00 0. -1.
         21   -1    0    0  503  502 -0.00000000000E+00 -0.00000000000E+00 -0.30512999720E+03  0.30512999720E+03  0.00000000000E+00 0.  1.
         21    1    1    2  503  504  0.79876373546E+02 -0.77322512450E+02  0.10082459676E+03  0.15008199523E+03  0.00000000000E+00 0. -1.
         21    1    1    2  504  501  0.30665500079E+02 -0.10599470580E+02  0.67747765426E+03  0.67825415125E+03  0.00000000000E+00 0. -1.
         21    1    1    2  505  502 -0.30946296363E+02  0.12167568282E+02 -0.15678234743E+03  0.16026985818E+03  0.00000000000E+00 0.  1.
         21    1    1    2  506  505 -0.79595577261E+02  0.75754414749E+02 -0.96760705847E+02  0.14641318748E+03  0.00000000000E+00 0.  1.
<scales pt_clust_3="14000.00000" pt_clust_4="32.44567" pt_clust_5="32.88058" pt_clust_6="127.93164"></scales>
<clustering>
<clus scale="   32.446">  1  4  2 -1</clus>
<clus scale="   32.881">  2  5  1 -1</clus>
<clus scale="  127.932">  2  6  1 -1</clus>
<clus scale="   32.446">  1  3  2 -1</clus>
</clustering>
</event>
<event>
 6    0  0.8777103E+002  0.6939401E+02  0.7546771E-02  0.1362166E+00
         21   -1    0    0  502  501  0.00000000000E+00  0.00000000000E+00  0.21840312494E+03  0.21840312494E+03  0.00000000000E+00 0.  1.
         21   -1    0    0  505  502 -0.00000000000E+00 -0.00000000000E+00 -0.12183381514E+04  0.12183381514E+04  0.00000000000E+00 0.  1.
         21    1    1    2  503  506 -0.82231680909E+02  0.10512705415E+02 -0.62539695327E+02  0.10384497971E+03  0.00000000000E+00 0.  1.
         21    1    1    2  504  503 -0.27845375108E+02 -0.42336702627E+02 -0.95543645977E+02  0.10814966292E+03  0.00000000000E+00 0.  1.
         21    1    1    2  505  504  0.61606283831E+02  0.41163915469E+02 -0.10287626293E+04  0.10314273360E+04  0.00000000000E+00 0.  1.
         21    1    1    2  506  501  0.48470772186E+02 -0.93399182569E+01  0.18691094410E+03  0.19331929768E+03  0.00000000000E+00 0.  1.
<scales pt_clust_3="46.98931" pt_clust_4="69.39401" pt_clust_5="14000.00000" pt_clust_6="49.36243"></scales>
<clustering>
<clus scale="   49.362">  1  6  2 -1</clus>
<clus scale="   46.989">  1  3  2 -1</clus>
<clus scale="   69.394">  1  4  2 -1</clus>
<clus scale="   49.362">  1  3  2 -1</clus>
</clustering>
</event>
<event>
 6    0  0.8777103E+002  0.9553466E+02  0.7546771E-02  0.1289976E+00
         21   -1    0    0  506  501  0.00000000000E+00  0.00000000000E+00  0.75866643626E+03  0.75866643626E+03  0.00000000000E+00 0. -1.
         21   -1    0    0  501  502 -0.00000000000E+00 -0.00000000000E+00 -0.23845685975E+02  0.23845685975E+02  0.00000000000E+00 0. -1.
         21    1    1    2  503  504  0.17274109676E+02 -0.86541275565E+02  0.22888687938E+03  0.24530998918E+03  0.00000000000E+00 0. -1.
         21    1    1    2  504  502  0.32217167135E+02 -0.96171683052E+01  0.42755118033E+02  0.54391505793E+02  0.00000000000E+00 0. -1.
         21    1    1    2  505  503 -0.18278426974E+02  0.10112631445E+03  0.31650504567E+03  0.33277030562E+03  0.00000000000E+00 0. -1.
         21    1    1    2  506  505 -0.31212849837E+02 -0.49678705823E+01  0.14667370720E+03  0.15004032164E+03  0.00000000000E+00 0.  1.
<scales pt_clust_3="95.53466" pt_clust_4="31.37359" pt_clust_5="14000.00000" pt_clust_6="31.60572"></scales>
<clustering>
<clus scale="   31.606">  1  6  2 -1</clus>
<clus scale="   31.374">  2  4  1 -1</clus>
<clus scale="   95.535">  2  3  1 -1</clus>
<clus scale="   31.606">  1  3  2 -1</clus>
</clustering>
</event>
<event>
 6    0  0.8777103E+002  0.9004612E+02  0.7546771E-02  0.1302740E+00
         21   -1    0    0  504  501  0.00000000000E+00  0.00000000000E+00  0.35958428799E+03  0.35958428799E+03  0.00000000000E+00 0.  1.
         21   -1    0    0  503  502 -0.00000000000E+00 -0.00000000000E+00 -0.17971786561E+03  0.17971786561E+03  0.00000000000E+00 0.  1.
         21    1    1    2  503  506  0.69054752597E+02  0.56712988067E+02 -0.13741033643E+03  0.16391010472E+03  0.00000000000E+00 0.  1.
         21    1    1    2  504  502 -0.13720730852E+01  0.49178194385E+02  0.78951945962E+02  0.93025733852E+02  0.00000000000E+00 0.  1.
         21    1    1    2  505  501  0.34591662867E+01 -0.31286475726E+02  0.12030916616E+02  0.33697957644E+02  0.00000000000E+00 0.  1.
         21    1    1    2  506  505 -0.71141845799E+02 -0.74604706726E+02  0.22629389623E+03  0.24866835738E+03  0.00000000000E+00 0.  1.
<scales pt_clust_3="14000.00000" pt_clust_4="41.19140" pt_clust_5="31.47712" pt_clust_6="90.04612"></scales>
<clustering>
<clus scale="   31.477">  1  5  2 -1</clus>
<clus scale="   41.191">  1  4  2 -1</clus>
<clus scale="   90.046">  1  6  2 -1</clus>
<clus scale="   31.477">  1  3  2 -1</clus>
</clustering>
</event>
<event>
 6    0  0.8777103E+002  0.9227725E+02  0.7546771E-02  0.1297429E+00
         21   -1    0    0  503  501  0.00000000000E+00  0.00000000000E+00  0.34637168856E+02  0.34637168856E+02  0.00000000000E+00 0.  1.
         21   -1    0    0  506  502 -0.00000000000E+00 -0.00000000000E+00 -0.19968831304E+04  0.19968831304E+04  0.00000000000E+00 0. -1.
         21    1    1    2  503  505  0.42447704876E+02 -0.46372135335E+02 -0.16429242333E+02  0.64977708396E+02  0.00000000000E+00 0.  1.
         21    1    1    2  504  502  0.39031392526E+02 -0.38557143468E+02 -0.91111604355E+03  0.91276642561E+03  0.00000000000E+00 0. -1.
         21    1    1    2  505  504 -0.69148425682E+02  0.13299291364E+03 -0.76418844035E+03  0.77875066114E+03  0.00000000000E+00 0. -1.
         21    1    1    2  506  501 -0.12330671719E+02 -0.48063634838E+02 -0.27051223529E+03  0.27502550409E+03  0.00000000000E+00 0. -1.
<scales pt_clust_3="63.51440" pt_clust_4="92.27725" pt_clust_5="14000.00000" pt_clust_6="49.62014"></scales>
<clustering>
<clus scale="   49.620">  2  6  1 -1</clus>
<clus scale="   63.514">  1  3  2 -1</clus>
<clus scale="   92.277">  2  4  1 -1</clus>
<clus scale="   63.514">  1  3  2 -1</clus>
</clustering>
</event>
<event>
 6    0  0.8777103E+002  0.1016754E+03  0.7546771E-02  0.1276812E+00
         21   -1    0    0  506  501  0.00000000000E+00  0.00000000000E+00  0.29646258132E+03  0.29646258132E+03  0.00000000000E+00 0. -1.
         21   -1    0    0  503  502 -0.00000000000E+00 -0.00000000000E+00 -0.69082345427E+03  0.69082345427E+03  0.00000000000E+00 0. -1.
         21    1    1    2  503  505  0.63356644233E+02  0.57538190367E+02 -0.51326868020E+03  0.52035511508E+03  0.00000000000E+00 0. -1.
         21    1    1    2  504  502  0.71716304470E+01 -0.31691232542E+02 -0.13068332475E+03  0.13466216199E+03  0.00000000000E+00 0. -1.
         21    1    1    2  505  501 -0.84638086562E+02 -0.56885857407E+02  0.27265713069E+03  0.29110396319E+03  0.00000000000E+00 0. -1.
         21    1    1    2  506  504  0.14109811882E+02  0.31038899583E+02 -0.23065998684E+02  0.41164795323E+02  0.00000000000E+00 0. -1.
<scales pt_clust_3="101.67538" pt_clust_4="32.49256" pt_clust_5="14000.00000" pt_clust_6="32.62580"></scales>
<clustering>
<clus scale="   32.493">  2  4  1 -1</clus>
<clus scale="   32.626">  2  6  1 -1</clus>
<clus scale="  101.675">  2  3  1 -1</clus>
<clus scale="  101.675">  1  3  2 -1</clus>
</clustering>
</event>
<event>
 6    0  0.8777103E+002  0.1445098E+03  0.7546771E-02  0.1207386E+00
         21   -1    0    0  504  501  0.00000000000E+00  0.00000000000E+00  0.27298821299E+03  0.27298821299E+03  0.00000000000E+00 0.  1.
         21   -1    0    0  503  502 -0.00000000000E+00 -0.00000000000E+00 -0.17168365634E+03  0.17168365634E+03  0.00000000000E+00 0. -1.
         21    1    1    2  503  505  0.23711126334E+02  0.27615489014E+02 -0.24182047204E+02  0.43699017752E+02  0.00000000000E+00 0. -1.
         21    1    1    2  504  502  0.49330615413E+02 -0.41499000782E+02  0.12061999375E+03  0.13676571053E+03  0.00000000000E+00 0.  1.
         21    1    1    2  505  506 -0.39115919944E+02  0.11395611000E+03 -0.65614805948E+02  0.13719093614E+03  0.00000000000E+00 0. -1.
         21    1    1    2  506  501 -0.33925821804E+02 -0.10007259823E+03  0.70481416051E+02  0.12701620491E+03  0.00000000000E+00 0.  1.
<scales pt_clust_3="36.36720" pt_clust_4="64.46454" pt_clust_5="36.36720" pt_clust_6="128.47263"></scales>
<clustering>
<clus scale="   36.367">  3  5 -1 -1</clus>
<clus scale="   64.465">  1  4  2 -1</clus>
<clus scale="  128.473">  1  6  2 -1</clus>
<clus scale="   64.465">  1  3  2 -1</clus>
</clustering>
</event>
<event>
 6    0  0.8777103E+002  0.1339492E+03  0.7546771E-02  0.1221711E+00
         21   -1    0    0  504  501  0.00000000000E+00  0.00000000000E+00  0.88854824624E+02  0.88854824624E+02  0.00000000000E+00 0.  1.
         21   -1    0    0  506  502 -0.00000000000E+00 -0.00000000000E+00 -0.26784270634E+04  0.26784270634E+04  0.00000000000E+00 0.  1.
         21    1    1    2  503  505 -0.19256361811E+02 -0.60943545549E+02  0.74537087021E+00  0.63917750211E+02  0.00000000000E+00 0.  1.
         21    1    1    2  504  503  0.43277997068E+02 -0.19311934439E+02  0.14897496678E+02  0.49677673549E+02  0.00000000000E+00 0.  1.
         21    1    1    2  505  502  0.11687135260E+03  0.68262612999E+02 -0.24037121847E+04  0.24075196706E+04  0.00000000000E+00 0.  1.
         21    1    1    2  506  501 -0.14089298785E+03  0.11992866989E+02 -0.20150292161E+03  0.24616679366E+03  0.00000000000E+00 0.  1.
<scales pt_clust_3="72.18974" pt_clust_4="47.39131" pt_clust_5="14000.00000" pt_clust_6="133.94916"></scales>
<clustering>
<clus scale="   47.391">  1  4  2 -1</clus>
<clus scale="   72.190">  1  3  2 -1</clus>
<clus scale="  133.949">  1  6  2 -1</clus>
<clus scale="   47.391">  1  3  2 -1</clus>
</clustering>
</event>
<event>
 6    0  0.8777103E+002  0.7352773E+02  0.7546771E-02  0.1348492E+00
         21   -1    0    0  504  501  0.00000000000E+00  0.00000000000E+00  0.49796320254E+03  0.49796320254E+03  0.00000000000E+00 0.  1.
         21   -1    0    0  506  502 -0.00000000000E+00 -0.00000000000E+00 -0.28411993723E+04  0.28411993723E+04  0.00000000000E+00 0. -1.
         21    1    1    2  503  502  0.73133988224E+02 -0.70372758328E+01 -0.28162271965E+04  0.28171854263E+04  0.00000000000E+00 0. -1.
         21    1    1    2  504  503  0.26072366123E+02  0.18747176282E+02  0.22813366499E+03  0.23038271201E+03  0.00000000000E+00 0.  1.
         21    1    1    2  505  501  0.26860194714E+01  0.42729784536E+02  0.67147117723E+02  0.79635322600E+02  0.00000000000E+00 0. -1.
         21    1    1    2  506  505 -0.10189237382E+03 -0.54439684985E+02  0.17771024406E+03  0.21195911395E+03  0.00000000000E+00 0.  1.
<scales pt_clust_3="14000.00000" pt_clust_4="32.11269" pt_clust_5="48.84486" pt_clust_6="73.52773"></scales>
<clustering>
<clus scale="   32.113">  1  4  2 -1</clus>
<clus scale="   48.845">  1  5  2 -1</clus>
<clus scale="   73.528">  1  6  2 -1</clus>
<clus scale="   32.113">  1  3  2 -1</clus>
</clustering>
</event>
<event>
 6    0  0.8777103E+002  0.1143238E+03  0.7546771E-02  0.1252766E+00
         21   -1    0    0  506  501  0.00000000000E+00  0.00000000000E+00  0.84070582285E+03  0.84070582285E+03  0.00000000000E+00 0. -1.
         21   -1    0    0  505  502 -0.00000000000E+00 -0.00000000000E+00 -0.71306830884E+03  0.71306830884E+03  0.00000000000E+00 0. -1.
         21    1    1    2  503  504  0.76296438794E+02  0.80153575059E+02 -0.40414254825E+02  0.11780939759E+03  0.00000000000E+00 0. -1.
         21    1    1    2  504  501  0.20893961252E+02 -0.35918779360E+02  0.14917899909E+03  0.15485829037E+03  0.00000000000E+00 0. -1.
         21    1    1    2  505  503 -0.11961959159E+03  0.30937782126E+01 -0.62437105425E+03  0.63573393141E+03  0.00000000000E+00 0. -1.
         21    1    1    2  506  502  0.22429191543E+02 -0.47328573912E+02  0.64324382400E+03  0.64537251232E+03  0.00000000000E+00 0. -1.
<scales pt_clust_3="14000.00000" pt_clust_4="41.55378" pt_clust_5="114.32380" pt_clust_6="91.17103"></scales>
<clustering>
<clus scale="   41.554">  1  4  2 -1</clus>
<clus scale="   91.171">  1  6  2 -1</clus>
<clus scale="  114.324">  2  5  1 -1</clus>
<clus scale="   41.554">  1  3  2 -1</clus>
</clustering>
</event>
<event>
 6    0  0.8777103E+002  0.1093005E+03  0.7546771E-02  0.1261871E+00
         21   -1    0    0  504  501  0.00000000000E+00  0.00000000000E+00  0.16008877815E+03  0.16008877815E+03  0.00000000000E+00 0. -1.
         21   -1    0    0  505  502 -0.00000000000E+00 -0.00000000000E+00 -0.35614958816E+03  0.35614958816E+03  0.00000000000E+00 0. -1.
         21    1    1    2  503  502  0.15829141028E+02 -0.10318762457E+03 -0.28304102333E+02  0.10816362502E+03  0.00000000000E+00 0. -1.
         21    1    1    2  504  503 -0.65080488133E+02 -0.51396981584E+02  0.43633223949E+02  0.93706872127E+02  0.00000000000E+00 0. -1.
         21    1    1    2  505  506 -0.46798226303E+02  0.47840771854E+02 -0.13739726107E+03  0.15282938457E+03  0.00000000000E+00 0. -1.
         21    1    1    2  506  501  0.96049573408E+02  0.10674383430E+03 -0.73992670550E+02  0.16153848460E+03  0.00000000000E+00 0. -1.
<scales pt_clust_3="14000.00000" pt_clust_4="84.13909" pt_clust_5="66.92394" pt_clust_6="109.30045"></scales>
<clustering>
<clus scale="   66.924">  2  5  1 -1</clus>
<clus scale="   84.139">  1  4  2 -1</clus>
<clus scale="  109.300">  1  6  2 -1</clus>
<clus scale="   84.139">  1  3  2 -1</clus>
</clustering>
</event>
<event>
 6    0  0.8777103E+002  0.9166570E+02  0.7546771E-02  0.1298867E+00
         21   -1    0    0  506  501  0.00000000000E+00  0.00000000000E+00  0.66015546268E+03  0.66015546268E+03  0.00000000000E+00 0.  1.
         21   -1    0    0  503  502 -0.00000000000E+00 -0.00000000000E+00 -0.14273319963E+03  0.14273319963E+03  0.00000000000E+00 0.  1.
         21    1    1    2  503  501  0.16045756840E+02  0.49103116544E+02  0.15545760872E+02  0.53946761237E+02  0.00000000000E+00 0. -1.
         21    1    1    2  504  502 -0.50935823889E+02 -0.10501047793E+02 -0.10002917038E+03  0.11274114194E+03  0.00000000000E+00 0.  1.
         21    1    1    2  505  504 -0.54046114272E+02  0.20693772810E+02  0.58157407256E+02  0.82045711160E+02  0.00000000000E+00 0.  1.
         21    1    1    2  506  505  0.88936181321E+02 -0.59295841561E+02  0.54374826530E+03  0.55415504797E+03  0.00000000000E+00 0.  1.
<scales pt_clust_3="51.65832" pt_clust_4="48.86772" pt_clust_5="14000.00000" pt_clust_6="91.66570"></scales>
<clustering>
<clus scale="   51.658">  2  3  1 -1</clus>
<clus scale="   48.868">  2  4  1 -1</clus>
<clus scale="   91.666">  1  6  2 -1</clus>
<clus scale="   91.666">  1  3  2 -1</clus>
</clustering>
</event>
<event>
 6    0  0.8777103E+002  0.1372735E+03  0.7546771E-02  0.1217045E+00
         21   -1    0    0  503  501  0.00000000000E+00  0.00000000000E+00  0.65490679538E+03  0.65490679538E+03  0.00000000000E+00 0.  1.
         21   -1    0    0  504  502 -0.00000000000E+00 -0.00000000000E+00 -0.15906176950E+03  0.15906176950E+03  0.00000000000E+00 0. -1.
         21    1    1    2  503  505 -0.27669842369E+02  0.18939585599E+02  0.30637200238E+03  0.30820144698E+03  0.00000000000E+00 0.  1.
         21    1    1    2  504  501  0.61618863941E+02  0.12535132336E+03  0.24679406963E+03  0.28357918025E+03  0.00000000000E+00 0.  1.
         21    1    1    2  505  506  0.31952094924E+02 -0.12657332634E+03  0.37672360596E+01  0.13059837433E+03  0.00000000000E+00 0. -1.
         21    1    1    2  506  502 -0.65901116497E+02 -0.17717582623E+02 -0.61088282190E+02  0.91589563327E+02  0.00000000000E+00 0. -1.
<scales pt_clust_3="33.53100" pt_clust_4="137.27349" pt_clust_5="14000.00000" pt_clust_6="69.20685"></scales>
<clustering>
<clus scale="   33.531">  1  3  2 -1</clus>
<clus scale="   69.207">  2  6  1 -1</clus>
<clus scale="  137.273">  1  4  2 -1</clus>
<clus scale="   33.531">  1  3  2 -1</clus>
</clustering>
</event>
<event>
 6    0  0.8777103E+002  0.8376266E+02  0.7546771E-02  0.1318700E+00
         21   -1    0    0  506  501  0.00000000000E+00  0.00000000000E+00  0.31733405062E+03  0.31733405062E+03  0.00000000000E+00 0.  1.
         21   -1    0    0  503  502 -0.00000000000E+00 -0.00000000000E+00 -0.19502529796E+03  0.19502529796E+03  0.00000000000E+00 0. -1.
         21    1    1    2  503  504 -0.46318871868E+02  0.16960584735E+02 -0.14450878286E+03  0.15269540808E+03  0.00000000000E+00 0. -1.
         21    1    1    2  504  501 -0.29452369446E+02  0.48152246959E+02  0.12241157834E+03  0.13479864786E+03  0.00000000000E+00 0.  1.
         21    1    1    2  505  502  0.11530365861E+03 -0.62985028668E+02  0.98261080454E+02  0.16406488795E+03  0.00000000000E+00 0.  1.
         21    1    1    2  506  505 -0.39532417296E+02 -0.21278030253E+01  0.46144876722E+02  0.60800404692E+02  0.00000000000E+00 0.  1.
<scales pt_clust_3="49.89157" pt_clust_4="83.76266" pt_clust_5="14000.00000" pt_clust_6="39.58964"></scales>
<clustering>
<clus scale="   39.590">  1  6  2 -1</clus>
<clus scale="   49.892">  2  3  1 -1</clus>
<clus scale="   83.763">  1  4  2 -1</clus>
<clus scale="   39.590">  1  3  2 -1</clus>
</clustering>
</event>
<event>
 6    0  0.8777103E+002  0.1997247E+03  0.7546771E-02  0.1149971E+00
         21   -1    0    0  506  501  0.00000000000E+00  0.00000000000E+00  0.13666947405E+03  0.13666947405E+03  0.00000000000E+00 0.  1.
         21   -1    0    0  505  502 -0.00000000000E+00 -0.00000000000E+00 -0.59691029484E+03  0.59691029484E+03  0.00000000000E+00 0. -1.
         21    1    1    2  503  504  0.16075269874E+03  0.10154637845E+03 -0.15719720397E+03  0.24670642080E+03  0.00000000000E+00 0. -1.
         21    1    1    2  504  502 -0.18003605232E+02  0.64838817848E+02 -0.10103140433E+03  0.12139006039E+03  0.00000000000E+00 0. -1.
         21    1    1    2  505  501 -0.16264197156E+03 -0.13885518861E+03 -0.23527555213E+03  0.31794301336E+03  0.00000000000E+00 0.  1.
         21    1    1    2  506  503  0.19892878049E+02 -0.27530007694E+02  0.33263339632E+02  0.47540274339E+02  0.00000000000E+00 0.  1.
<scales pt_clust_3="14000.00000" pt_clust_4="63.93643" pt_clust_5="199.72473" pt_clust_6="33.96510"></scales>
<clustering>
<clus scale="   33.965">  1  6  2 -1</clus>
<clus scale="   63.936">  2  4  1 -1</clus>
<clus scale="  199.725">  2  5  1 -1</clus>
<clus scale="   33.965">  1  3  2 -1</clus>
</clustering>
</event>
<event>
 6    0  0.8777103E+002  0.6559057E+02  0.7546771E-02  0.1375764E+00
         21   -1    0    0  505  501  0.00000000000E+00  0.00000000000E+00  0.16055128206E+03  0.16055128206E+03  0.00000000000E+00 0.  1.
         21   -1    0    0  506  502 -0.00000000000E+00 -0.00000000000E+00 -0.61429006386E+03  0.61429006386E+03  0.00000000000E+00 0.  1.
         21    1    1    2  503  502 -0.37296450655E+02  0.42597705484E+02 -0.99456572873E+02  0.11444299730E+03  0.00000000000E+00 0.  1.
         21    1    1    2  504  501  0.62380771842E+02 -0.36251453787E+01  0.11054580192E+03  0.12698376549E+03  0.00000000000E+00 0.  1.
         21    1    1    2  505  503 -0.92416244055E+02 -0.11432231768E+02 -0.38237205178E+02  0.10066549532E+03  0.00000000000E+00 0.  1.
         21    1    1    2  506  504  0.67331922868E+02 -0.27540328338E+02 -0.42659080567E+03  0.43274908781E+03  0.00000000000E+00 0.  1.
<scales pt_clust_3="56.61793" pt_clust_4="65.59057" pt_clust_5="14000.00000" pt_clust_6="36.75037"></scales>
<clustering>
<clus scale="   56.618">  2  3  1 -1</clus>
<clus scale="   36.750">  2  6  1 -1</clus>
<clus scale="   65.591">  1  4  2 -1</clus>
<clus scale="   65.591">  1  3  2 -1</clus>
</clustering>
</event>
<event>
 6    0  0.8777103E+002  0.6824184E+02  0.7546771E-02  0.1366176E+00
         21   -1    0    0  504  501  0.00000000000E+00  0.00000000000E+00  0.23302417041E+03  0.23302417041E+03  0.00000000000E+00 0. -1.
         21   -1    0    0  506  502 -0.00000000000E+00 -0.00000000000E+00 -0.42821422844E+03  0.42821422844E+03  0.00000000000E+00 0.  1.
         21    1    1    2  503  505  0.64782766093E+02  0.69049710913E+02  0.13923517220E+03  0.16837785643E+03  0.00000000000E+00 0. -1.
         21    1    1    2  504  502 -0.10500251689E+02  0.44691737295E+02 -0.25573940082E+03  0.25982734229E+03  0.00000000000E+00 0.  1.
         21    1    1    2  505  501 -0.16519813272E+02 -0.27536392439E+02  0.58461455907E+02  0.66700067210E+02  0.00000000000E+00 0. -1.
         21    1    1    2  506  503 -0.37762701133E+02 -0.86205055769E+02 -0.13714728532E+03  0.16633313292E+03  0.00000000000E+00 0.  1.
<scales pt_clust_3="14000.00000" pt_clust_4="45.63331" pt_clust_5="32.11164" pt_clust_6="68.24184"></scales>
<clustering>
<clus scale="   32.112">  1  5  2 -1</clus>
<clus scale="   45.633">  2  4  1 -1</clus>
<clus scale="   68.242">  2  6  1 -1</clus>
<clus scale="   32.112">  1  3  2 -1</clus>
</clustering>
</event>
<event>
 6    0  0.8777103E+002  0.1141798E+03  0.7546771E-02  0.1253020E+00
         21   -1    0    0  506  501  0.00000000000E+00  0.00000000000E+00  0.29879578561E+02  0.29879578561E+02  0.00000000000E+00 0. -1.
         21   -1    0    0  503  502 -0.00000000000E+00 -0.00000000000E+00 -0.10111219768E+04  0.10111219768E+04  0.00000000000E+00 0.  1.
         21    1    1    2  503  505 -0.70346892178E+02 -0.29947348734E+02 -0.26102817202E+03  0.27199491820E+03  0.00000000000E+00 0. -1.
         21    1    1    2  504  502  0.48105709798E+02  0.93752314251E+02 -0.56957335122E+03  0.57923868842E+03  0.00000000000E+00 0.  1.
         21    1    1    2  505  501 -0.27122987213E+02 -0.39438121263E+02 -0.11399374062E+03  0.12363492526E+03  0.00000000000E+00 0. -1.
         21    1    1    2  506  504  0.49364169593E+02 -0.24366844254E+02 -0.36647134403E+02  0.66133023509E+02  0.00000000000E+00 0.  1.
<scales pt_clust_3="31.31919" pt_clust_4="107.09902" pt_clust_5="31.31919" pt_clust_6="55.05056"></scales>
<clustering>
<clus scale="   31.319">  3  5 -1 -1</clus>
<clus scale="   55.051">  1  6  2 -1</clus>
<clus scale="  107.099">  2  4  1 -1</clus>
<clus scale="   55.051">  1  3  2 -1</clus>
</clustering>
</event>
<event>
 6    0  0.8777103E+002  0.7849953E+02  0.7546771E-02  0.1333364E+00
         21   -1    0    0  505  501  0.00000000000E+00  0.00000000000E+00  0.57061335262E+02  0.57061335262E+02  0.00000000000E+00 0. -1.
         21   -1    0    0  504  502 -0.00000000000E+00 -0.00000000000E+00 -0.19088478382E+04  0.19088478382E+04  0.00000000000E+00 0. -1.
         21    1    1    2  503  506 -0.67900173936E+02 -0.24128439147E+02 -0.11363691070E+04  0.11386515545E+04  0.00000000000E+00 0. -1.
         21    1    1    2  504  503  0.16786004846E+01  0.65159830137E+02 -0.65423122709E+03  0.65747024242E+03  0.00000000000E+00 0. -1.
         21    1    1    2  505  502 -0.30302271954E+02  0.13973494832E+01  0.20326995833E+02  0.36515298585E+02  0.00000000000E+00 0. -1.
         21    1    1    2  506  501  0.96523845405E+02 -0.42428740473E+02 -0.81513164675E+02  0.13327207797E+03  0.00000000000E+00 0. -1.
<scales pt_clust_3="78.49953" pt_clust_4="65.23885" pt_clust_5="30.33447" pt_clust_6="14000.00000"></scales>
<clustering>
<clus scale="   30.334">  1  5  2 -1</clus>
<clus scale="   65.239">  2  4  1 -1</clus>
<clus scale="   78.500">  2  3  1 -1</clus>
<clus scale="   30.334">  1  3  2 -1</clus>
</clustering>
</event>
<event>
 6    0  0.8777103E+002  0.9679594E+02  0.7546771E-02  0.1287182E+00
         21   -1    0    0  504  501  0.00000000000E+00  0.00000000000E+00  0.92528688871E+03  0.92528688871E+03  0.00000000000E+00 0. -1.
         21   -1    0    0  505  502 -0.00000000000E+00 -0.00000000000E+00 -0.14834143570E+03  0.14834143570E+03  0.00000000000E+00 0. -1.
         21    1    1    2  503  501  0.80764646089E+02 -0.14610412302E+02  0.64189583810E+03  0.64712182715E+03  0.00000000000E+00 0. -1.
         21    1    1    2  504  506 -0.63088685453E+02  0.67523014822E+02  0.14713495688E+03  0.17374761955E+03  0.00000000000E+00 0. -1.
         21    1    1    2  505  503 -0.24206339882E+02 -0.13909228680E+03  0.46160079696E+02  0.14853741648E+03  0.00000000000E+00 0. -1.
         21    1    1    2  506  502  0.65303792460E+01  0.86179684279E+02 -0.58245421665E+02  0.10422146123E+03  0.00000000000E+00 0. -1.
<scales pt_clust_3="82.07553" pt_clust_4="61.55093" pt_clust_5="96.79594" pt_clust_6="14000.00000"></scales>
<clustering>
<clus scale="   82.076">  1  3  2 -1</clus>
<clus scale="   61.551">  1  4  2 -1</clus>
<clus scale="   96.796">  1  5  2 -1</clus>
<clus scale="   82.076">  1  3  2 -1</clus>
</clustering>
</event>
<event>
 6    0  0.8777103E+002  0.1179364E+03  0.7546771E-02  0.1246541E+00
         21   -1    0    0  503  501  0.00000000000E+00  0.00000000000E+00  0.34068845443E+03  0.34068845443E+03  0.00000000000E+00 0.  1.
         21   -1    0    0  504  502 -0.00000000000E+00 -0.00000000000E+00 -0.10806324986E+04  0.10806324986E+04  0.00000000000E+00 0.  1.
         21    1    1    2  503  505  0.30017008912E+02  0.26317321872E+02  0.28840316830E+03  0.29115289753E+03  0.00000000000E+00 0.  1.
         21    1    1    2  504  506  0.92996881839E+02  0.24415238473E+02 -0.43168174667E+03  0.44225971365E+03  0.00000000000E+00 0.  1.
         21    1    1    2  505  502 -0.16288070604E+03 -0.14378051477E+02 -0.61065695497E+03  0.63216988968E+03  0.00000000000E+00 0.  1.
         21    1    1    2  506  501  0.39866815287E+02 -0.36354508869E+02  0.13991489210E+02  0.55738452136E+02  0.00000000000E+00 0. -1.
<scales pt_clust_3="39.92020" pt_clust_4="117.93642" pt_clust_5="14000.00000" pt_clust_6="63.14294"></scales>
<clustering>
<clus scale="   39.920">  1  3  2 -1</clus>
<clus scale="   63.143">  1  6  2 -1</clus>
<clus scale="  117.936">  2  4  1 -1</clus>
<clus scale="   39.920">  1  3  2 -1</clus>
</clustering>
</event>
<event>
 6    0  0.8777103E+002  0.8366844E+02  0.7546771E-02  0.1318952E+00
         21   -1    0    0  503  501  0.00000000000E+00  0.00000000000E+00  0.56111898605E+03  0.56111898605E+03  0.00000000000E+00 0.  1.
         21   -1    0    0  505  502 -0.00000000000E+00 -0.00000000000E+00 -0.45896816768E+03  0.45896816768E+03  0.00000000000E+00 0. -1.
         21    1    1    2  503  506 -0.76852253423E+02 -0.68218607256E+02  0.25241912380E+03  0.27253524780E+03  0.00000000000E+00 0.  1.
         21    1    1    2  504  501  0.71696887747E+01  0.29752282819E+02  0.17235235691E+03  0.17504838675E+03  0.00000000000E+00 0.  1.
         21    1    1    2  505  504  0.53450883481E+02 -0.47400978927E+02 -0.42895733199E+03  0.43486577518E+03  0.00000000000E+00 0. -1.
         21    1    1    2  506  502  0.16231681168E+02  0.85867303365E+02  0.10633666965E+03  0.13763774400E+03  0.00000000000E+00 0.  1.
<scales pt_clust_3="14000.00000" pt_clust_4="30.60397" pt_clust_5="71.33191" pt_clust_6="83.66844"></scales>
<clustering>
<clus scale="   30.604">  1  4  2 -1</clus>
<clus scale="   71.332">  2  5  1 -1</clus>
<clus scale="   83.668">  2  6  1 -1</clus>
<clus scale="   30.604">  1  3  2 -1</clus>
</clustering>
</event>
<event>
 6    0  0.8777103E+002  0.1095391E+03  0.7546771E-02  0.1261426E+00
         21   -1    0    0  506  501  0.00000000000E+00  0.00000000000E+00  0.11522997802E+04  0.11522997802E+04  0.00000000000E+00 0.  1.
         21   -1    0    0  503  502 -0.00000000000E+00 -0.00000000000E+00 -0.10329666863E+03  0.10329666863E+03  0.00000000000E+00 0.  1.
         21    1    1    2  503  504  0.79612379315E+02 -0.20308796613E+02 -0.66129361063E+02  0.10546881319E+03  0.00000000000E+00 0.  1.
         21    1    1    2  504  501 -0.72672898708E+01 -0.36253591797E+02  0.10064774288E+03  0.10722455208E+03  0.00000000000E+00 0. -1.
         21    1    1    2  505  502  0.31147584964E+02  0.44390719811E+02  0.53132049561E+02  0.75919185619E+02  0.00000000000E+00 0. -1.
         21    1    1    2  506  505 -0.10349267441E+03  0.12171668598E+02  0.96135268016E+03  0.96698389791E+03  0.00000000000E+00 0.  1.
<scales pt_clust_3="14000.00000" pt_clust_4="36.97481" pt_clust_5="52.15284" pt_clust_6="109.53911"></scales>
<clustering>
<clus scale="   36.975">  1  4  2 -1</clus>
<clus scale="   52.153">  2  5  1 -1</clus>
<clus scale="  109.539">  1  6  2 -1</clus>
<clus scale="   36.975">  1  3  2 -1</clus>
</clustering>
</event>
<event>
 6    0  0.8777103E+002  0.9043290E+02  0.7546771E-02  0.1301807E+00
         21   -1    0    0  504  501  0.00000000000E+00  0.00000000000E+00  0.64653580632E+03  0.64653580632E+03  0.00000000000E+00 0.  1.
         21   -1    0    0  503  502 -0.00000000000E+00 -0.00000000000E+00 -0.49792813484E+02  0.49792813484E+02  0.00000000000E+00 0.  1.
         21    1    1    2  503  506  0.94143856126E+02  0.63386596035E+01  0.20209569654E+03  0.22303792236E+03  0.00000000000E+00 0.  1.
         21    1    1    2  504  505 -0.54539658158E+02  0.20659195836E+02  0.11013251811E+03  0.12462162024E+03  0.00000000000E+00 0. -1.
         21    1    1    2  505  502 -0.53551010429E+02 -0.86110484312E+02  0.63926268731E+02  0.11987199031E+03  0.00000000000E+00 0.  1.
         21    1    1    2  506  501  0.13946812460E+02  0.59112628872E+02  0.22058850946E+03  0.22879708690E+03  0.00000000000E+00 0.  1.
<scales pt_clust_3="14000.00000" pt_clust_4="58.32132" pt_clust_5="90.43290" pt_clust_6="68.50717"></scales>
<clustering>
<clus scale="   58.321">  1  4  2 -1</clus>
<clus scale="   68.507">  1  6  2 -1</clus>
<clus scale="   90.433">  2  5  1 -1</clus>
<clus scale="   58.321">  1  3  2 -1</clus>
</clustering>
</event>
<event>
 6    0  0.8777103E+002  0.1011087E+03  0.7546771E-02  0.1277982E+00
         21   -1    0    0  503  501  0.00000000000E+00  0.00000000000E+00  0.38423938947E+03  0.38423938947E+03  0.00000000000E+00 0. -1.
         21   -1    0    0  504  502 -0.00000000000E+00 -0.00000000000E+00 -0.22837689687E+03  0.22837689687E+03  0.00000000000E+00 0. -1.
         21    1    1    2  503  505  0.16528704390E+01 -0.39409064952E+02  0.19249212966E+03  0.19649179719E+03  0.00000000000E+00 0. -1.
         21    1    1    2  504  501 -0.47677879503E+02  0.16158006405E+02  0.72644677206E+02  0.88382749964E+02  0.00000000000E+00 0.  1.
         21    1    1    2  505  506 -0.24923458864E+02 -0.57001154868E+02  0.85332238777E+02  0.10560256357E+03  0.00000000000E+00 0. -1.
         21    1    1    2  506  502  0.70948467927E+02  0.80252213415E+02 -0.19460655304E+03  0.22213917562E+03  0.00000000000E+00 0. -1.
<scales pt_clust_3="39.44371" pt_clust_4="46.97992" pt_clust_5="14000.00000" pt_clust_6="101.10867"></scales>
<clustering>
<clus scale="   39.444">  1  3  2 -1</clus>
<clus scale="   46.980">  1  4  2 -1</clus>
<clus scale="  101.109">  2  6  1 -1</clus>
<clus scale="   39.444">  1  3  2 -1</clus>
</clustering>
</event>
<event>
 6    0  0.8777103E+002  0.9087646E+02  0.7546771E-02  0.1300743E+00
         21   -1    0    0  503  501  0.00000000000E+00  0.00000000000E+00  0.60920188698E+03  0.60920188698E+03  0.00000000000E+00 0.  1.
         21   -1    0    0  505  502 -0.00000000000E+00 -0.00000000000E+00 -0.13276000003E+03  0.13276000003E+03  0.00000000000E+00 0.  1.
         21    1    1    2  503  506 -0.41672989052E+02  0.94231618555E+02  0.30308804770E+03  0.32012278989E+03  0.00000000000E+00 0.  1.
         21    1    1    2  504  501  0.16717210495E+02 -0.27851034070E+02  0.14790228739E+03  0.15142731537E+03  0.00000000000E+00 0. -1.
         21    1    1    2  505  504  0.71489563918E+02 -0.13304597970E+03  0.81540052785E+02  0.17164140139E+03  0.00000000000E+00 0.  1.
         21    1    1    2  506  502 -0.46533785361E+02  0.66665395211E+02 -0.56088500928E+02  0.98770380352E+02  0.00000000000E+00 0.  1.
<scales pt_clust_3="14000.00000" pt_clust_4="32.48300" pt_clust_5="90.87646" pt_clust_6="79.79499"></scales>
<clustering>
<clus scale="   32.483">  1  4  2 -1</clus>
<clus scale="   79.795">  2  6  1 -1</clus>
<clus scale="   90.876">  2  5  1 -1</clus>
<clus scale="   32.483">  1  3  2 -1</clus>
</clustering>
</event>
<event>
 6    0  0.8777103E+002  0.2582507E+03  0.7546771E-02  0.1108199E+00
         21   -1    0    0  503  501  0.00000000000E+00  0.00000000000E+00  0.94778901408E+03  0.94778901408E+03  0.00000000000E+00 0.  1.
         21   -1    0    0  506  502 -0.00000000000E+00 -0.00000000000E+00 -0.46993180661E+03  0.46993180661E+03  0.00000000000E+00 0.  1.
         21    1    1    2  503  502 -0.94917382788E+02 -0.49659621204E+01 -0.24120724886E+03  0.25925837930E+03  0.00000000000E+00 0.  1.
         21    1    1    2  504  501  0.11347681382E+03 -0.19734999972E+02  0.55716038925E+03  0.56894125957E+03  0.00000000000E+00 0.  1.
         21    1    1    2  505  504  0.18837158597E+03 -0.48797550216E+02  0.27938710882E+03  0.34047351128E+03  0.00000000000E+00 0.  1.
         21    1    1    2  506  505 -0.20693101700E+03  0.73498512309E+02 -0.11748304173E+03  0.24904767054E+03  0.00000000000E+00 0.  1.
<scales pt_clust_3="95.04720" pt_clust_4="112.69712" pt_clust_5="258.25066" pt_clust_6="14000.00000"></scales>
<clustering>
<clus scale="   95.047">  2  3  1 -1</clus>
<clus scale="  112.697">  1  4  2 -1</clus>
<clus scale="  258.251">  1  5  2 -1</clus>
<clus scale="  112.697">  1  3  2 -1</clus>
</clustering>
</event>
<event>
 6    0  0.8777103E+002  0.1429488E+03  0.7546771E-02  0.1209415E+00
         21   -1    0    0  506  501  0.00000000000E+00  0.00000000000E+00  0.10337997318E+04  0.10337997318E+04  0.00000000000E+00 0.  1.
         21   -1    0    0  503  502 -0.00000000000E+00 -0.00000000000E+00 -0.45643630784E+03  0.45643630784E+03  0.00000000000E+00 0.  1.
         21    1    1    2  503  501 -0.40061217395E+02  0.92814516179E+02 -0.11360219953E+02  0.10172752897E+03  0.00000000000E+00 0.  1.
         21    1    1    2  504  505  0.56633910970E+02 -0.45275000117E+02 -0.21490052228E+03  0.22680268954E+03  0.00000000000E+00 0.  1.
         21    1    1    2  505  502  0.15935616452E+02 -0.76565708913E+02 -0.16998975755E+03  0.18711699368E+03  0.00000000000E+00 0.  1.
         21    1    1    2  506  504 -0.32508310027E+02  0.29026192852E+02  0.97361392371E+03  0.97458882742E+03  0.00000000000E+00 0.  1.
<scales pt_clust_3="131.74554" pt_clust_4="53.50769" pt_clust_5="53.50769" pt_clust_6="43.58107"></scales>
<clustering>
<clus scale="   43.581">  1  6  2 -1</clus>
<clus scale="   53.508">  4  5 -1 -1</clus>
<clus scale="  131.746">  1  3  2 -1</clus>
<clus scale="   43.581">  1  3  2 -1</clus>
</clustering>
</event>
<event>
 6    0  0.1258684E+003  0.7148426E+02  0.7546771E-02  0.1355117E+00
         21   -1    0    0  506  501  0.00000000000E+00  0.00000000000E+00  0.89364089611E+03  0.89364089611E+03  0.00000000000E+00 0.  1.
         21   -1    0    0  505  502 -0.00000000000E+00 -0.00000000000E+00 -0.99218526920E+03  0.99218526920E+03  0.00000000000E+00 0. -1.
         21    1    1    2  503  501  0.13658707797E+02  0.92988137732E+02  0.47798454694E+03  0.48713712769E+03  0.00000000000E+00 0.  1.
         21    1    1    2  504  502 -0.27803200980E+02 -0.37554757800E+02 -0.97231187425E+03  0.97343400322E+03  0.00000000000E+00 0. -1.
         21    1    1    2  505  503  0.56144959282E+02 -0.45272613330E+02  0.36535247982E+03  0.37240341094E+03  0.00000000000E+00 0.  1.
         21    1    1    2  506  504 -0.42000466098E+02 -0.10160766601E+02  0.30430474392E+02  0.52851623458E+02  0.00000000000E+00 0. -1.
<scales pt_clust_3="71.48426" pt_clust_4="46.74847" pt_clust_5="14000.00000" pt_clust_6="43.21204"></scales>
<clustering>
<clus scale="   43.212">  1  6  2 -1</clus>
<clus scale="   46.748">  2  4  1 -1</clus>
<clus scale="   71.484">  1  3  2 -1</clus>
<clus scale="   43.212">  1  3  2 -1</clus>
</clustering>
</event>
<event>
 6    0  0.8777103E+002  0.8458193E+02  0.7546771E-02  0.1316529E+00
         21   -1    0    0  504  501  0.00000000000E+00  0.00000000000E+00  0.10968812965E+04  0.10968812965E+04  0.00000000000E+00 0. -1.
         21   -1    0    0  506  502 -0.00000000000E+00 -0.00000000000E+00 -0.22281382533E+03  0.22281382533E+03  0.00000000000E+00 0.  1.
         21    1    1    2  503  502 -0.70489250825E+01  0.31295985802E+02  0.52725505262E+01  0.32510396201E+02  0.00000000000E+00 0. -1.
         21    1    1    2  504  503 -0.34365881560E+02 -0.76618901819E+01  0.50915688052E+03  0.51037285132E+03  0.00000000000E+00 0. -1.
         21    1    1    2  505  501  0.11645727501E+03 -0.70674021403E+01  0.55486776680E+03  0.56700130839E+03  0.00000000000E+00 0. -1.
         21    1    1    2  506  505 -0.75042468366E+02 -0.16566693479E+02 -0.19522972669E+03  0.20981056593E+03  0.00000000000E+00 0.  1.
<scales pt_clust_3="32.07999" pt_clust_4="35.20996" pt_clust_5="84.58193" pt_clust_6="14000.00000"></scales>
<clustering>
<clus scale="   32.080">  2  3  1 -1</clus>
<clus scale="   35.210">  1  4  2 -1</clus>
<clus scale="   84.582">  1  5  2 -1</clus>
<clus scale="   35.210">  1  3  2 -1</clus>
</clustering>
</event>
<event>
 6    0  0.8777103E+002  0.1559238E+03  0.7546771E-02  0.1193377E+00
         21   -1    0    0  506  501  0.00000000000E+00  0.00000000000E+00  0.15104066373E+04  0.15104066373E+04  0.00000000000E+00 0.  1.
         21   -1    0    0  504  502 -0.00000000000E+00 -0.00000000000E+00 -0.47487906778E+03  0.47487906778E+03  0.00000000000E+00 0. -1.
         21    1    1    2  503  502 -0.13704528974E+02  0.32107308090E+02 -0.11249041871E+03  0.11778279861E+03  0.00000000000E+00 0. -1.
         21    1    1    2  504  501 -0.10682807917E+03  0.15105628798E+03  0.91577402804E+03  0.93427635690E+03  0.00000000000E+00 0.  1.
         21    1    1    2  505  503  0.90120109522E+02 -0.16619754864E+03 -0.32441240626E+03  0.37548191521E+03  0.00000000000E+00 0. -1.
         21    1    1    2  506  505  0.30412498621E+02 -0.16966047435E+02  0.55665636650E+03  0.55774463440E+03  0.00000000000E+00 0.  1.
<scales pt_clust_3="34.83338" pt_clust_4="14000.00000" pt_clust_5="155.92377" pt_clust_6="34.82480"></scales>
<clustering>
<clus scale="   34.825">  1  6  2 -1</clus>
<clus scale="   34.833">  2  3  1 -1</clus>
<clus scale="  155.924">  2  5  1 -1</clus>
<clus scale="   34.825">  1  3  2 -1</clus>
</clustering>
</event>
<event>
 6    0  0.8777103E+002  0.1203913E+03  0.7546771E-02  0.1242453E+00
         21   -1    0    0  504  501  0.00000000000E+00  0.00000000000E+00  0.44673100327E+03  0.44673100327E+03  0.00000000000E+00 0. -1.
         21   -1    0    0  503  502 -0.00000000000E+00 -0.00000000000E+00 -0.44665466987E+03  0.44665466987E+03  0.00000000000E+00 0. -1.
         21    1    1    2  503  506 -0.34220885823E+02 -0.35365686052E+02 -0.20010258765E+03  0.20606515076E+03  0.00000000000E+00 0. -1.
         21    1    1    2  504  505  0.77050274134E+02 -0.95848695637E+02  0.39621996726E+03  0.41486621899E+03  0.00000000000E+00 0. -1.
         21    1    1    2  505  502  0.90996885506E+01  0.82300635584E+02 -0.24001830051E+02  0.86210711603E+02  0.00000000000E+00 0. -1.
         21    1    1    2  506  501 -0.51929076862E+02  0.48913746105E+02 -0.17203921617E+03  0.18624359179E+03  0.00000000000E+00 0. -1.
<scales pt_clust_3="49.21180" pt_clust_4="14000.00000" pt_clust_5="74.31178" pt_clust_6="120.39129"></scales>
<clustering>
<clus scale="   49.212">  2  3  1 -1</clus>
<clus scale="   74.312">  2  5  1 -1</clus>
<clus scale="  120.391">  2  6  1 -1</clus>
<clus scale="  120.391">  1  3  2 -1</clus>
</clustering>
</event>
<event>
 6    0  0.8777103E+002  0.1734763E+03  0.7546771E-02  0.1174270E+00
         21   -1    0    0  503  501  0.00000000000E+00  0.00000000000E+00  0.23379995900E+03  0.23379995900E+03  0.00000000000E+00 0. -1.
         21   -1    0    0  504  502 -0.00000000000E+00 -0.00000000000E+00 -0.75319779316E+03  0.75319779316E+03  0.00000000000E+00 0. -1.
         21    1    1    2  503  505  0.40918316172E+02 -0.22350816758E+02 -0.61742265958E+01  0.47031783744E+02  0.00000000000E+00 0. -1.
         21    1    1    2  504  501 -0.16801029387E+03 -0.50434581829E+01  0.14840246384E+03  0.22422351926E+03  0.00000000000E+00 0. -1.
         21    1    1    2  505  506  0.11038639081E+03 -0.31826473266E+01 -0.88393956236E+02  0.14145238075E+03  0.00000000000E+00 0. -1.
         21    1    1    2  506  502  0.16705586887E+02  0.30576922267E+02 -0.57323211516E+03  0.57429006840E+03  0.00000000000E+00 0. -1.
<scales pt_clust_3="34.15178" pt_clust_4="164.48692" pt_clust_5="34.15178" pt_clust_6="34.84286"></scales>
<clustering>
<clus scale="   34.843">  2  6  1 -1</clus>
<clus scale="   34.152">  3  5 -1 -1</clus>
<clus scale="  164.487">  1  4  2 -1</clus>
<clus scale="  164.487">  1  3  2 -1</clus>
</clustering>
</event>
<event>
 6    0  0.8777103E+002  0.1009370E+03  0.7546771E-02  0.1278338E+00
         21   -1    0    0  503  501  0.00000000000E+00  0.00000000000E+00  0.76362301707E+03  0.76362301707E+03  0.00000000000E+00 0.  1.
         21   -1    0    0  506  502 -0.00000000000E+00 -0.00000000000E+00 -0.41907844192E+02  0.41907844192E+02  0.00000000000E+00 0.  1.
         21    1    1    2  503  502  0.47895004869E+02 -0.22786072790E+02  0.63079328735E+02  0.82414430279E+02  0.00000000000E+00 0.  1.
         21    1    1    2  504  505 -0.30144814949E+01  0.64066969568E+02  0.52803218497E+02  0.83077334887E+02  0.00000000000E+00 0.  1.
         21    1    1    2  505  501 -0.56656506973E+01 -0.90164358895E+02  0.54590041241E+03  0.55332537578E+03  0.00000000000E+00 0.  1.
         21    1    1    2  506  504 -0.39214872677E+02  0.48883462117E+02  0.59932213240E+02  0.86713720318E+02  0.00000000000E+00 0.  1.
<scales pt_clust_3="53.03901" pt_clust_4="39.27408" pt_clust_5="92.78831" pt_clust_6="39.27408"></scales>
<clustering>
<clus scale="   39.274">  4  6 -1 -1</clus>
<clus scale="   53.039">  2  3  1 -1</clus>
<clus scale="   92.788">  1  5  2 -1</clus>
<clus scale="   92.788">  1  3  2 -1</clus>
</clustering>
</event>
<event>
 6    0  0.8777103E+002  0.7225153E+02  0.7546771E-02  0.1352600E+00
         21   -1    0    0  503  501  0.00000000000E+00  0.00000000000E+00  0.22812024577E+03  0.22812024577E+03  0.00000000000E+00 0. -1.
         21   -1    0    0  505  502 -0.00000000000E+00 -0.00000000000E+00 -0.22689770023E+03  0.22689770023E+03  0.00000000000E+00 0.  1.
         21    1    1    2  503  506  0.28542918527E+02  0.16524895233E+02  0.84638420830E+02  0.90837396710E+02  0.00000000000E+00 0. -1.
         21    1    1    2  504  501 -0.57935813952E+02  0.23367497581E+02  0.45808351890E+02  0.77466144763E+02  0.00000000000E+00 0. -1.
         21    1    1    2  505  504 -0.58833792781E+02 -0.41537034329E+02 -0.17359754575E+03  0.18794373702E+03  0.00000000000E+00 0.  1.
         21    1    1    2  506  502  0.88226688206E+02  0.16446415149E+01  0.44373318569E+02  0.98770667500E+02  0.00000000000E+00 0. -1.
<scales pt_clust_3="32.98136" pt_clust_4="54.76544" pt_clust_5="72.25153" pt_clust_6="14000.00000"></scales>
<clustering>
<clus scale="   32.981">  1  3  2 -1</clus>
<clus scale="   54.765">  1  4  2 -1</clus>
<clus scale="   72.252">  2  5  1 -1</clus>
<clus scale="   32.981">  1  3  2 -1</clus>
</clustering>
</event>
<event>
 6    0  0.8777103E+002  0.6748379E+02  0.7546771E-02  0.1368865E+00
         21   -1    0    0  506  501  0.00000000000E+00  0.00000000000E+00  0.54535962479E+03  0.54535962479E+03  0.00000000000E+00 0.  1.
         21   -1    0    0  505  502 -0.00000000000E+00 -0.00000000000E+00 -0.66906080385E+02  0.66906080385E+02  0.00000000000E+00 0.  1.
         21    1    1    2  503  501  0.49094231826E+02  0.34044587780E+02  0.15962449117E+03  0.17043842213E+03  0.00000000000E+00 0.  1.
         21    1    1    2  504  502 -0.22413001356E+02 -0.59517808922E+02 -0.27546377297E+01  0.63657680116E+02  0.00000000000E+00 0.  1.
         21    1    1    2  505  503  0.45541153451E+02  0.63159773249E+02  0.45209109664E+02  0.90038976067E+02  0.00000000000E+00 0.  1.
         21    1    1    2  506  504 -0.72222383921E+02 -0.37686552107E+02  0.27637458130E+03  0.28813062687E+03  0.00000000000E+00 0.  1.
<scales pt_clust_3="59.74343" pt_clust_4="14000.00000" pt_clust_5="67.48379" pt_clust_6="37.88236"></scales>
<clustering>
<clus scale="   59.743">  1  3  2 -1</clus>
<clus scale="   37.882">  1  6  2 -1</clus>
<clus scale="   67.484">  1  5  2 -1</clus>
<clus scale="   59.743">  1  3  2 -1</clus>
</clustering>
</event>
<event>
 6    0  0.8777103E+002  0.2533038E+03  0.7546771E-02  0.1111235E+00
         21   -1    0    0  502  501  0.00000000000E+00  0.00000000000E+00  0.48681691636E+03  0.48681691636E+03  0.00000000000E+00 0. -1.
         21   -1    0    0  505  502 -0.00000000000E+00 -0.00000000000E+00 -0.27697307811E+04  0.27697307811E+04  0.00000000000E+00 0.  1.
         21    1    1    2  503  506  0.78431075780E+02  0.29471765707E+03  0.33825550282E+03  0.45544123246E+03  0.00000000000E+00 0. -1.
         21    1    1    2  504  503 -0.10694375928E+02 -0.27491787811E+03 -0.20404743466E+04  0.20589389910E+04  0.00000000000E+00 0.  1.
         21    1    1    2  505  504 -0.31618262122E+02  0.27000123999E+02 -0.64985552398E+03  0.65118424677E+03  0.00000000000E+00 0.  1.
         21    1    1    2  506  501 -0.36118437730E+02 -0.46799902958E+02  0.69160503037E+02  0.90983227252E+02  0.00000000000E+00 0.  1.
<scales pt_clust_3="14000.00000" pt_clust_4="253.30382" pt_clust_5="41.57789" pt_clust_6="59.10640"></scales>
<clustering>
<clus scale="   41.578">  2  5  1 -1</clus>
<clus scale="   59.106">  1  6  2 -1</clus>
<clus scale="  253.304">  2  4  1 -1</clus>
<clus scale="   59.106">  1  3  2 -1</clus>
</clustering>
</event>
<event>
 6    0  0.8777103E+002  0.1011735E+03  0.7546771E-02  0.1277847E+00
         21   -1    0    0  506  501  0.00000000000E+00  0.00000000000E+00  0.16030958892E+03  0.16030958892E+03  0.00000000000E+00 0. -1.
         21   -1    0    0  505  502 -0.00000000000E+00 -0.00000000000E+00 -0.90776816423E+03  0.90776816423E+03  0.00000000000E+00 0. -1.
         21    1    1    2  503  504  0.12247598105E+03 -0.10254689018E+02 -0.29007104984E+01  0.12293875997E+03  0.00000000000E+00 0. -1.
         21    1    1    2  504  502 -0.58418709822E+01 -0.54850607383E+02 -0.15038350305E+03  0.16018088081E+03  0.00000000000E+00 0. -1.
         21    1    1    2  505  501 -0.35265503488E+02  0.13389089773E+02 -0.66453285875E+03  0.66560261704E+03  0.00000000000E+00 0. -1.
         21    1    1    2  506  503 -0.81368606580E+02  0.51716206629E+02  0.70358496989E+02  0.11935549532E+03  0.00000000000E+00 0. -1.
<scales pt_clust_3="14000.00000" pt_clust_4="54.30534" pt_clust_5="37.72166" pt_clust_6="101.17348"></scales>
<clustering>
<clus scale="   37.722">  2  5  1 -1</clus>
<clus scale="   54.305">  2  4  1 -1</clus>
<clus scale="  101.173">  1  6  2 -1</clus>
<clus scale="  101.173">  1  3  2 -1</clus>
</clustering>
</event>
<event>
 6    0  0.8777103E+002  0.1357570E+03  0.7546771E-02  0.1219155E+00
         21   -1    0    0  504  501  0.00000000000E+00  0.00000000000E+00  0.20166352293E+03  0.20166352293E+03  0.00000000000E+00 0.  1.
         21   -1    0    0  503  502 -0.00000000000E+00 -0.00000000000E+00 -0.30160482820E+03  0.30160482820E+03  0.00000000000E+00 0.  1.
         21    1    1    2  503  505  0.41681368870E+02 -0.10296129872E+02 -0.31966520277E+02  0.53527611752E+02  0.00000000000E+00 0. -1.
         21    1    1    2  504  502  0.14088125678E+02 -0.33316275691E+02 -0.13144077676E+01  0.36196369692E+02  0.00000000000E+00 0. -1.
         21    1    1    2  505  506  0.32277232733E+02  0.13103475009E+03 -0.19362895412E+03  0.23601715480E+03  0.00000000000E+00 0.  1.
         21    1    1    2  506  501 -0.88046727281E+02 -0.87422344528E+02  0.12696857689E+03  0.17752721489E+03  0.00000000000E+00 0.  1.
<scales pt_clust_3="44.23462" pt_clust_4="36.17250" pt_clust_5="135.75702" pt_clust_6="14000.00000"></scales>
<clustering>
<clus scale="   36.172">  1  4  2 -1</clus>
<clus scale="   44.235">  2  3  1 -1</clus>
<clus scale="  135.757">  2  5  1 -1</clus>
<clus scale="   36.172">  1  3  2 -1</clus>
</clustering>
</event>
<event>
 6    0  0.8777103E+002  0.1261999E+03  0.7546771E-02  0.1233206E+00
         21   -1    0    0  504  501  0.00000000000E+00  0.00000000000E+00  0.17629397889E+03  0.17629397889E+03  0.00000000000E+00 0.  1.
         21   -1    0    0  506  502 -0.00000000000E+00 -0.00000000000E+00 -0.57489188169E+03  0.57489188169E+03  0.00000000000E+00 0.  1.
         21    1    1    2  503  502 -0.23612581538E+02  0.49249234959E+02 -0.21432419392E+03  0.22117391630E+03  0.00000000000E+00 0.  1.
         21    1    1    2  504  505 -0.36941793189E+02  0.14032985875E+02  0.10261308460E+03  0.10995938299E+03  0.00000000000E+00 0.  1.
         21    1    1    2  505  503 -0.95994442944E+02 -0.78749323325E+01 -0.95377767882E+01  0.96787999367E+02  0.00000000000E+00 0.  1.
         21    1    1    2  506  501  0.15654881767E+03 -0.55407288502E+02 -0.27734901669E+03  0.32326456192E+03  0.00000000000E+00 0.  1.
<scales pt_clust_3="56.03343" pt_clust_4="39.51735" pt_clust_5="126.19992" pt_clust_6="14000.00000"></scales>
<clustering>
<clus scale="   39.517">  1  4  2 -1</clus>
<clus scale="   56.033">  2  3  1 -1</clus>
<clus scale="  126.200">  1  5  2 -1</clus>
<clus scale="   39.517">  1  3  2 -1</clus>
</clustering>
</event>
<event>
 6    0  0.8777103E+002  0.1406068E+03  0.7546771E-02  0.1212515E+00
         21   -1    0    0  504  501  0.00000000000E+00  0.00000000000E+00  0.24566672702E+03  0.24566672702E+03  0.00000000000E+00 0.  1.
         21   -1    0    0  505  502 -0.00000000000E+00 -0.00000000000E+00 -0.10319818457E+04  0.10319818457E+04  0.00000000000E+00 0.  1.
         21    1    1    2  503  502  0.90798951736E+02  0.11394966107E+03 -0.94905721480E+03  0.96017632332E+03  0.00000000000E+00 0.  1.
         21    1    1    2  504  506  0.16949119075E+02 -0.25865014038E+02  0.15207356559E+03  0.15518582712E+03  0.00000000000E+00 0.  1.
         21    1    1    2  505  501 -0.48814159261E+02 -0.36395012984E+02 -0.36313881994E+02  0.70895113654E+02  0.00000000000E+00 0.  1.
         21    1    1    2  506  503 -0.58933911550E+02 -0.51689634048E+02  0.46982412548E+02  0.91391308599E+02  0.00000000000E+00 0.  1.
<scales pt_clust_3="140.60680" pt_clust_4="30.92364" pt_clust_5="61.51425" pt_clust_6="14000.00000"></scales>
<clustering>
<clus scale="   30.924">  1  4  2 -1</clus>
<clus scale="   61.514">  1  5  2 -1</clus>
<clus scale="  140.607">  2  3  1 -1</clus>
<clus scale="   30.924">  1  3  2 -1</clus>
</clustering>
</event>
<event>
 6    0  0.8777103E+002  0.9180964E+02  0.7546771E-02  0.1298528E+00
         21   -1    0    0  504  501  0.00000000000E+00  0.00000000000E+00  0.14537533241E+04  0.14537533241E+04  0.00000000000E+00 0. -1.
         21   -1    0    0  506  502 -0.00000000000E+00 -0.00000000000E+00 -0.15169432798E+03  0.15169432798E+03  0.00000000000E+00 0.  1.
         21    1    1    2  503  505  0.57571665019E+02 -0.11039810603E+03  0.96385725128E+03  0.97186575167E+03  0.00000000000E+00 0. -1.
         21    1    1    2  504  503 -0.11336981198E+02  0.37869306430E+02  0.39074704900E+03  0.39274147708E+03  0.00000000000E+00 0.  1.
         21    1    1    2  505  502 -0.73672444663E+02  0.14167996414E+03 -0.25673527491E+02  0.16174044440E+03  0.00000000000E+00 0.  1.
         21    1    1    2  506  501  0.27437760842E+02 -0.69151164534E+02 -0.26871776711E+02  0.79099978888E+02  0.00000000000E+00 0.  1.
<scales pt_clust_3="91.80964" pt_clust_4="39.52988" pt_clust_5="14000.00000" pt_clust_6="73.42736"></scales>
<clustering>
<clus scale="   39.530">  1  4  2 -1</clus>
<clus scale="   73.427">  2  6  1 -1</clus>
<clus scale="   91.810">  1  3  2 -1</clus>
<clus scale="   39.530">  1  3  2 -1</clus>
</clustering>
</event>
<event>
 6    0  0.8777103E+002  0.8454340E+02  0.7546771E-02  0.1316631E+00
         21   -1    0    0  504  501  0.00000000000E+00  0.00000000000E+00  0.16143731559E+03  0.16143731559E+03  0.00000000000E+00 0.  1.
         21   -1    0    0  505  502 -0.00000000000E+00 -0.00000000000E+00 -0.24850769834E+03  0.24850769834E+03  0.00000000000E+00 0.  1.
         21    1    1    2  503  501 -0.11083646779E+02  0.30418854576E+02  0.30732095552E+02  0.44638723511E+02  0.00000000000E+00 0. -1.
         21    1    1    2  504  506 -0.10968447538E+02 -0.43710185035E+02  0.65561964121E+02  0.79556635528E+02  0.00000000000E+00 0.  1.
         21    1    1    2  505  503  0.17538253537E+02 -0.81004498197E+02 -0.17166226158E+03  0.19062332260E+03  0.00000000000E+00 0.  1.
         21    1    1    2  506  502  0.45138407797E+01  0.94295828656E+02 -0.11702180833E+02  0.95126332300E+02  0.00000000000E+00 0.  1.
<scales pt_clust_3="32.37521" pt_clust_4="31.21861" pt_clust_5="84.54340" pt_clust_6="14000.00000"></scales>
<clustering>
<clus scale="   32.375">  1  3  2 -1</clus>
<clus scale="   31.219">  1  4  2 -1</clus>
<clus scale="   84.543">  2  5  1 -1</clus>
<clus scale="   32.375">  1  3  2 -1</clus>
</clustering>
</event>
<event>
 6    0  0.8777103E+002  0.6412304E+02  0.7546771E-02  0.1381301E+00
         21   -1    0    0  506  501  0.00000000000E+00  0.00000000000E+00  0.98004529660E+02  0.98004529660E+02  0.00000000000E+00 0. -1.
         21   -1    0    0  503  502 -0.00000000000E+00 -0.00000000000E+00 -0.24012963297E+03  0.24012963297E+03  0.00000000000E+00 0. -1.
         21    1    1    2  503  504  0.40212182620E+02 -0.51524221070E+02 -0.92420757547E+02  0.11319611925E+03  0.00000000000E+00 0. -1.
         21    1    1    2  504  505 -0.23793046759E+02  0.58345769438E+02 -0.19033848128E+02  0.65822680437E+02  0.00000000000E+00 0. -1.
         21    1    1    2  505  501  0.45264483111E+02  0.40693065856E+02  0.22431911371E+02  0.64869019476E+02  0.00000000000E+00 0. -1.
         21    1    1    2  506  502 -0.61683618971E+02 -0.47514614223E+02 -0.53102409003E+02  0.94246343463E+02  0.00000000000E+00 0. -1.
<scales pt_clust_3="64.12304" pt_clust_4="14000.00000" pt_clust_5="60.86706" pt_clust_6="54.91921"></scales>
<clustering>
<clus scale="   60.867">  1  5  2 -1</clus>
<clus scale="   54.919">  1  6  2 -1</clus>
<clus scale="   64.123">  2  3  1 -1</clus>
<clus scale="   60.867">  1  3  2 -1</clus>
</clustering>
</event>
<event>
 6    0  0.8777103E+002  0.7295860E+02  0.7546771E-02  0.1350312E+00
         21   -1    0    0  505  501  0.00000000000E+00  0.00000000000E+00  0.11282753617E+04  0.11282753617E+04  0.00000000000E+00 0. -1.
         21   -1    0    0  504  502 -0.00000000000E+00 -0.00000000000E+00 -0.64861526763E+03  0.64861526763E+03  0.00000000000E+00 0. -1.
         21    1    1    2  503  501  0.88395719294E+02 -0.40356414205E+02  0.94568056869E+03  0.95065986628E+03  0.00000000000E+00 0. -1.
         21    1    1    2  504  503  0.18628392395E+02  0.44573287221E+02 -0.18209538181E+03  0.18839459391E+03  0.00000000000E+00 0. -1.
         21    1    1    2  505  506 -0.45811056386E+02 -0.19178837190E+02  0.17125707061E+03  0.17831282880E+03  0.00000000000E+00 0. -1.
         21    1    1    2  506  502 -0.61213055302E+02  0.14961964174E+02 -0.45518216337E+03  0.45952334039E+03  0.00000000000E+00 0. -1.
<scales pt_clust_3="72.95860" pt_clust_4="48.30937" pt_clust_5="49.40247" pt_clust_6="14000.00000"></scales>
<clustering>
<clus scale="   48.309">  2  4  1 -1</clus>
<clus scale="   49.402">  1  5  2 -1</clus>
<clus scale="   72.959">  1  3  2 -1</clus>
<clus scale="   49.402">  1  3  2 -1</clus>
</clustering>
</event>
<event>
 6    0  0.8777103E+002  0.1441654E+03  0.7546771E-02  0.1207832E+00
         21   -1    0    0  502  501  0.00000000000E+00  0.00000000000E+00  0.96880174446E+02  0.96880174446E+02  0.00000000000E+00 0.  1.
         21   -1    0    0  504  502 -0.00000000000E+00 -0.00000000000E+00 -0.11585908479E+04  0.11585908479E+04  0.00000000000E+00 0. -1.
         21    1    1    2  503  506 -0.18673316497E+02 -0.10090075134E+03 -0.42611219797E+03  0.43829357698E+03  0.00000000000E+00 0.  1.
         21    1    1    2  504  503 -0.12042295236E+02 -0.38228525574E+02 -0.66431225718E+03  0.66552025671E+03  0.00000000000E+00 0. -1.
         21    1    1    2  505  501  0.19417897764E+02  0.89014085810E+02  0.39271047166E+02  0.99210772457E+02  0.00000000000E+00 0.  1.
         21    1    1    2  506  505  0.11297713970E+02  0.50115191107E+02 -0.10557265504E+02  0.52446416232E+02  0.00000000000E+00 0.  1.
<scales pt_clust_3="137.50869" pt_clust_4="40.08038" pt_clust_5="32.51566" pt_clust_6="32.51566"></scales>
<clustering>
<clus scale="   32.516">  5  6 -1 -1</clus>
<clus scale="   40.080">  2  4  1 -1</clus>
<clus scale="  137.509">  2  3  1 -1</clus>
<clus scale="  144.165">  1  3  2 -1</clus>
</clustering>
</event>
<event>
 6    0  0.8777103E+002  0.1039749E+03  0.7546771E-02  0.1272153E+00
         21   -1    0    0  505  501  0.00000000000E+00  0.00000000000E+00  0.34256251236E+03  0.34256251236E+03  0.00000000000E+00 0.  1.
         21   -1    0    0  504  502 -0.00000000000E+00 -0.00000000000E+00 -0.52907997617E+03  0.52907997617E+03  0.00000000000E+00 0.  1.
         21    1    1    2  503  502 -0.40807643603E+02  0.54749231192E+02 -0.38104670749E+03  0.38711669479E+03  0.00000000000E+00 0.  1.
         21    1    1    2  504  506 -0.98598058613E+01 -0.56602225139E+02 -0.25742831524E+02  0.62958089529E+02  0.00000000000E+00 0.  1.
         21    1    1    2  505  503  0.93449249320E+02 -0.54119057525E+02  0.29782202369E+03  0.31679582128E+03  0.00000000000E+00 0.  1.
         21    1    1    2  506  501 -0.42781799855E+02  0.55972051472E+02 -0.77549948479E+02  0.10477188294E+03  0.00000000000E+00 0.  1.
<scales pt_clust_3="49.61781" pt_clust_4="57.45457" pt_clust_5="103.97491" pt_clust_6="14000.00000"></scales>
<clustering>
<clus scale="   57.455">  2  4  1 -1</clus>
<clus scale="   49.618">  2  3  1 -1</clus>
<clus scale="  103.975">  1  5  2 -1</clus>
<clus scale="  103.975">  1  3  2 -1</clus>
</clustering>
</event>
<event>
 6    0  0.8777103E+002  0.1001407E+03  0.7546771E-02  0.1280000E+00
         21   -1    0    0  505  501  0.00000000000E+00  0.00000000000E+00  0.29778052880E+03  0.29778052880E+03  0.00000000000E+00 0. -1.
         21   -1    0    0  506  502 -0.00000000000E+00 -0.00000000000E+00 -0.14943948384E+04  0.14943948384E+04  0.00000000000E+00 0.  1.
         21    1    1    2  503  501  0.17197765216E+02  0.69768649894E+02  0.14850084385E+03  0.16497250759E+03  0.00000000000E+00 0. -1.
         21    1    1    2  504  503  0.95212545695E+02 -0.79665244316E+02  0.99650002563E+02  0.15919203190E+03  0.00000000000E+00 0.  1.
         21    1    1    2  505  502 -0.64028107055E+02  0.22092003693E+02 -0.91578954117E+02  0.11390504799E+03  0.00000000000E+00 0.  1.
         21    1    1    2  506  504 -0.48382203855E+02 -0.12195409271E+02 -0.13531862019E+04  0.13541057797E+04  0.00000000000E+00 0.  1.
<scales pt_clust_3="70.53369" pt_clust_4="14000.00000" pt_clust_5="100.14073" pt_clust_6="49.89555"></scales>
<clustering>
<clus scale="   49.896">  2  6  1 -1</clus>
<clus scale="   70.534">  1  3  2 -1</clus>
<clus scale="  100.141">  2  5  1 -1</clus>
<clus scale="   70.534">  1  3  2 -1</clus>
</clustering>
</event>
<event>
 6    0  0.8777103E+002  0.9166964E+02  0.7546771E-02  0.1298858E+00
         21   -1    0    0  503  501  0.00000000000E+00  0.00000000000E+00  0.45204554448E+03  0.45204554448E+03  0.00000000000E+00 0. -1.
         21   -1    0    0  504  502 -0.00000000000E+00 -0.00000000000E+00 -0.11055763442E+03  0.11055763442E+03  0.00000000000E+00 0. -1.
         21    1    1    2  503  502 -0.42872998349E+01 -0.30503627957E+02 -0.49596887172E+02  0.58384102935E+02  0.00000000000E+00 0. -1.
         21    1    1    2  504  505  0.37806369429E+02 -0.36025568294E+02 -0.90656418923E+01  0.53003292381E+02  0.00000000000E+00 0. -1.
         21    1    1    2  505  506 -0.38643425374E+02 -0.45739485950E+02  0.35435670907E+02  0.69578025786E+02  0.00000000000E+00 0.  1.
         21    1    1    2  506  501  0.51243557801E+01  0.11226868220E+03  0.36471476822E+03  0.38163775780E+03  0.00000000000E+00 0. -1.
<scales pt_clust_3="30.80345" pt_clust_4="63.56653" pt_clust_5="14000.00000" pt_clust_6="91.66964"></scales>
<clustering>
<clus scale="   30.803">  2  3  1 -1</clus>
<clus scale="   63.567">  2  4  1 -1</clus>
<clus scale="   91.670">  1  6  2 -1</clus>
<clus scale="   91.670">  1  3  2 -1</clus>
</clustering>
</event>
<event>
 6    0  0.8777103E+002  0.8290851E+02  0.7546771E-02  0.1320994E+00
         21   -1    0    0  503  501  0.00000000000E+00  0.00000000000E+00  0.87975220198E+03  0.87975220198E+03  0.00000000000E+00 0. -1.
         21   -1    0    0  505  502 -0.00000000000E+00 -0.00000000000E+00 -0.39893600534E+03  0.39893600534E+03  0.00000000000E+00 0.  1.
         21    1    1    2  503  506 -0.12049665147E+03  0.28233788815E+02  0.52668571898E+03  0.54103090155E+03  0.00000000000E+00 0. -1.
         21    1    1    2  504  501  0.41517860777E+02 -0.44047468320E+01  0.31627462477E+03  0.31901845218E+03  0.00000000000E+00 0. -1.
         21    1    1    2  505  504  0.66521886891E+01 -0.58229529693E+02 -0.32519802812E+03  0.33043711540E+03  0.00000000000E+00 0.  1.
         21    1    1    2  506  502  0.72326602007E+02  0.34400487710E+02 -0.36946119000E+02  0.88201738201E+02  0.00000000000E+00 0.  1.
<scales pt_clust_3="82.90851" pt_clust_4="41.75086" pt_clust_5="58.65094" pt_clust_6="14000.00000"></scales>
<clustering>
<clus scale="   41.751">  1  4  2 -1</clus>
<clus scale="   58.651">  2  5  1 -1</clus>
<clus scale="   82.909">  1  3  2 -1</clus>
<clus scale="   41.751">  1  3  2 -1</clus>
</clustering>
</event>
<event>
 6    0  0.8777103E+002  0.1219386E+03  0.7546771E-02  0.1239933E+00
         21   -1    0    0  506  501  0.00000000000E+00  0.00000000000E+00  0.20842609640E+03  0.20842609640E+03  0.00000000000E+00 0.  1.
         21   -1    0    0  505  502 -0.00000000000E+00 -0.00000000000E+00 -0.45264395142E+03  0.45264395142E+03  0.00000000000E+00 0. -1.
         21    1    1    2  503  501 -0.10361134411E+03  0.65067128192E+02  0.47217065418E+02  0.13114302523E+03  0.00000000000E+00 0.  1.
         21    1    1    2  504  502  0.12393240906E+02  0.30861974184E+02 -0.30615632683E+03  0.30795738395E+03  0.00000000000E+00 0. -1.
         21    1    1    2  505  503  0.41504993859E+02 -0.13211910665E+03  0.54401818972E+02  0.14878736762E+03  0.00000000000E+00 0.  1.
         21    1    1    2  506  504  0.49713109341E+02  0.36190004274E+02 -0.39680412577E+02  0.73182271023E+02  0.00000000000E+00 0. -1.
<scales pt_clust_3="121.93862" pt_clust_4="33.25739" pt_clust_5="14000.00000" pt_clust_6="72.73756"></scales>
<clustering>
<clus scale="   33.257">  2  4  1 -1</clus>
<clus scale="   72.738">  2  6  1 -1</clus>
<clus scale="  121.939">  1  3  2 -1</clus>
<clus scale="  121.939">  1  3  2 -1</clus>
</clustering>
</event>
<event>
 6    0  0.8777103E+002  0.2299055E+03  0.7546771E-02  0.1126706E+00
         21   -1    0    0  503  501  0.00000000000E+00  0.00000000000E+00  0.41552024216E+03  0.41552024216E+03  0.00000000000E+00 0.  1.
         21   -1    0    0  504  502 -0.00000000000E+00 -0.00000000000E+00 -0.81897964948E+03  0.81897964948E+03  0.00000000000E+00 0.  1.
         21    1    1    2  503  502  0.95034081911E+02  0.13747524360E+03  0.34884033313E+03  0.38680808853E+03  0.00000000000E+00 0.  1.
         21    1    1    2  504  506 -0.39655872691E+02 -0.29214538241E+02 -0.28313831861E+03  0.28739064868E+03  0.00000000000E+00 0.  1.
         21    1    1    2  505  501  0.70313044039E+02  0.95867219454E+01 -0.12289023981E+02  0.72019785546E+02  0.00000000000E+00 0.  1.
         21    1    1    2  506  505 -0.12569125326E+03 -0.11784742731E+03 -0.45687239787E+03  0.48828136888E+03  0.00000000000E+00 0.  1.
<scales pt_clust_3="218.56861" pt_clust_4="38.12446" pt_clust_5="70.96358" pt_clust_6="38.12446"></scales>
<clustering>
<clus scale="   38.124">  4  6 -1 -1</clus>
<clus scale="   70.964">  1  5  2 -1</clus>
<clus scale="  218.569">  1  3  2 -1</clus>
<clus scale="   70.964">  1  3  2 -1</clus>
</clustering>
</event>
<event>
 6    0  0.8777103E+002  0.8491692E+02  0.7546771E-02  0.1315650E+00
         21   -1    0    0  505  501  0.00000000000E+00  0.00000000000E+00  0.39238838558E+03  0.39238838558E+03  0.00000000000E+00 0.  1.
         21   -1    0    0  504  502 -0.00000000000E+00 -0.00000000000E+00 -0.42271626121E+03  0.42271626121E+03  0.00000000000E+00 0. -1.
         21    1    1    2  503  501  0.26803726079E+02 -0.27741823721E+02  0.28598769774E+03  0.28857756631E+03  0.00000000000E+00 0.  1.
         21    1    1    2  504  503 -0.19581863107E+02 -0.61396237334E+02  0.58126140914E+02  0.86784765824E+02  0.00000000000E+00 0.  1.
         21    1    1    2  505  506 -0.86963736609E+02  0.46456202136E+02 -0.66830769538E+02  0.11911012534E+03  0.00000000000E+00 0.  1.
         21    1    1    2  506  502  0.79741873638E+02  0.42681858919E+02 -0.30761094475E+03  0.32063218931E+03  0.00000000000E+00 0. -1.
<scales pt_clust_3="38.57523" pt_clust_4="80.52785" pt_clust_5="14000.00000" pt_clust_6="84.91692"></scales>
<clustering>
<clus scale="   38.575">  1  3  2 -1</clus>
<clus scale="   80.528">  1  4  2 -1</clus>
<clus scale="   84.917">  2  6  1 -1</clus>
<clus scale="   38.575">  1  3  2 -1</clus>
</clustering>
</event>
<event>
 6    0  0.8777103E+002  0.8058895E+02  0.7546771E-02  0.1327388E+00
         21   -1    0    0  504  501  0.00000000000E+00  0.00000000000E+00  0.76906925244E+03  0.76906925244E+03  0.00000000000E+00 0. -1.
         21   -1    0    0  506  502 -0.00000000000E+00 -0.00000000000E+00 -0.11254310335E+03  0.11254310335E+03  0.00000000000E+00 0. -1.
         21    1    1    2  503  501 -0.66406033215E+02 -0.33887342945E+02  0.25754340750E+03  0.26811698940E+03  0.00000000000E+00 0. -1.
         21    1    1    2  504  505  0.20396126914E+02  0.49526315592E+02  0.25450124200E+03  0.26007641206E+03  0.00000000000E+00 0. -1.
         21    1    1    2  505  502  0.12327881406E+03 -0.94195952037E+01  0.21539512273E+03  0.24835751179E+03  0.00000000000E+00 0. -1.
         21    1    1    2  506  503 -0.77268907754E+02 -0.62193774429E+01 -0.70913623136E+02  0.10506144253E+03  0.00000000000E+00 0. -1.
<scales pt_clust_3="56.56648" pt_clust_4="53.56172" pt_clust_5="14000.00000" pt_clust_6="80.58895"></scales>
<clustering>
<clus scale="   53.562">  1  4  2 -1</clus>
<clus scale="   56.566">  1  3  2 -1</clus>
<clus scale="   80.589">  2  6  1 -1</clus>
<clus scale="   53.562">  1  3  2 -1</clus>
</clustering>
</event>
<event>
 6    0  0.8777103E+002  0.1382089E+03  0.7546771E-02  0.1215760E+00
         21   -1    0    0  506  501  0.00000000000E+00  0.00000000000E+00  0.60155343935E+03  0.60155343935E+03  0.00000000000E+00 0.  1.
         21   -1    0    0  503  502 -0.00000000000E+00 -0.00000000000E+00 -0.86185351168E+02  0.86185351168E+02  0.00000000000E+00 0.  1.
         21    1    1    2  503  501  0.36811968818E+02 -0.16519442222E+02  0.47762561299E+02  0.62524197567E+02  0.00000000000E+00 0.  1.
         21    1    1    2  504  505  0.47700615344E+02 -0.20775417313E+02  0.24835044431E+03  0.25374181732E+03  0.00000000000E+00 0.  1.
         21    1    1    2  505  502 -0.13455379481E+03  0.14280811545E+02 -0.10014719277E+02  0.13567962219E+03  0.00000000000E+00 0.  1.
         21    1    1    2  506  504  0.50041210648E+02  0.23014047990E+02  0.22926980185E+03  0.23579315344E+03  0.00000000000E+00 0.  1.
<scales pt_clust_3="40.34864" pt_clust_4="43.39328" pt_clust_5="130.90756" pt_clust_6="43.39328"></scales>
<clustering>
<clus scale="   40.349">  1  3  2 -1</clus>
<clus scale="   43.393">  4  6 -1 -1</clus>
<clus scale="  130.908">  2  5  1 -1</clus>
<clus scale="   40.349">  1  3  2 -1</clus>
</clustering>
</event>
<event>
 6    0  0.8777103E+002  0.1533398E+03  0.7546771E-02  0.1196428E+00
         21   -1    0    0  506  501  0.00000000000E+00  0.00000000000E+00  0.88117191967E+02  0.88117191967E+02  0.00000000000E+00 0. -1.
         21   -1    0    0  505  502 -0.00000000000E+00 -0.00000000000E+00 -0.10537058177E+04  0.10537058177E+04  0.00000000000E+00 0. -1.
         21    1    1    2  503  504 -0.13555936126E+03  0.21750113478E+02 -0.14102727985E+03  0.19681997236E+03  0.00000000000E+00 0. -1.
         21    1    1    2  504  501 -0.31526443719E+02  0.97571787033E+00  0.42263714296E+02  0.52736042941E+02  0.00000000000E+00 0. -1.
         21    1    1    2  505  503  0.14289553735E+03 -0.57929263474E+02 -0.50734813268E+03  0.53026131473E+03  0.00000000000E+00 0. -1.
         21    1    1    2  506  502  0.24190267626E+02  0.35203432126E+02 -0.35947692755E+03  0.36200567968E+03  0.00000000000E+00 0. -1.
<scales pt_clust_3="153.33984" pt_clust_4="31.54154" pt_clust_5="14000.00000" pt_clust_6="42.19091"></scales>
<clustering>
<clus scale="   31.542">  1  4  2 -1</clus>
<clus scale="   42.191">  2  6  1 -1</clus>
<clus scale="  153.340">  1  3  2 -1</clus>
<clus scale="   31.542">  1  3  2 -1</clus>
</clustering>
</event>
<event>
 6    0  0.8777103E+002  0.1675957E+03  0.7546771E-02  0.1180379E+00
         21   -1    0    0  503  501  0.00000000000E+00  0.00000000000E+00  0.24753363807E+03  0.24753363807E+03  0.00000000000E+00 0.  1.
         21   -1    0    0  504  502 -0.00000000000E+00 -0.00000000000E+00 -0.25831600964E+03  0.25831600964E+03  0.00000000000E+00 0.  1.
         21    1    1    2  503  502 -0.23309949683E+02 -0.50862537333E+02 -0.15989754012E+02  0.58189549676E+02  0.00000000000E+00 0.  1.
         21    1    1    2  504  505  0.34568010786E+02 -0.45092620745E+02 -0.18029396364E+02  0.59609990343E+02  0.00000000000E+00 0. -1.
         21    1    1    2  505  506  0.15313267242E+03  0.23970645301E+02 -0.86694955945E+02  0.17759567164E+03  0.00000000000E+00 0.  1.
         21    1    1    2  506  501 -0.16439073353E+03  0.71984512776E+02  0.10993173475E+03  0.21045443605E+03  0.00000000000E+00 0.  1.
<scales pt_clust_3="55.94954" pt_clust_4="62.02261" pt_clust_5="167.59571" pt_clust_6="14000.00000"></scales>
<clustering>
<clus scale="   55.950">  2  3  1 -1</clus>
<clus scale="   62.023">  2  4  1 -1</clus>
<clus scale="  167.596">  2  5  1 -1</clus>
<clus scale="  167.596">  1  3  2 -1</clus>
</clustering>
</event>
<event>
 6    0  0.8777103E+002  0.1697835E+03  0.7546771E-02  0.1178074E+00
         21   -1    0    0  504  501  0.00000000000E+00  0.00000000000E+00  0.26355512111E+03  0.26355512111E+03  0.00000000000E+00 0.  1.
         21   -1    0    0  503  502 -0.00000000000E+00 -0.00000000000E+00 -0.50968106533E+03  0.50968106533E+03  0.00000000000E+00 0. -1.
         21    1    1    2  503  506 -0.20330744666E+03  0.30100016958E+01 -0.38054045336E+03  0.43145569253E+03  0.00000000000E+00 0. -1.
         21    1    1    2  504  502  0.32075016066E+02 -0.42634473819E+02 -0.43632601760E+02  0.68922485082E+02  0.00000000000E+00 0. -1.
         21    1    1    2  505  501  0.56718597927E+02 -0.38003917316E+02  0.63645263189E+02  0.93338184086E+02  0.00000000000E+00 0.  1.
         21    1    1    2  506  505  0.11451383266E+03  0.77628389439E+02  0.11440184771E+03  0.17951982475E+03  0.00000000000E+00 0.  1.
<scales pt_clust_3="169.78351" pt_clust_4="53.35265" pt_clust_5="69.92568" pt_clust_6="14000.00000"></scales>
<clustering>
<clus scale="   53.353">  2  4  1 -1</clus>
<clus scale="   69.926">  1  5  2 -1</clus>
<clus scale="  169.784">  2  3  1 -1</clus>
<clus scale="   69.926">  1  3  2 -1</clus>
</clustering>
</event>
<event>
 6    0  0.8777103E+002  0.1476125E+03  0.7546771E-02  0.1203438E+00
         21   -1    0    0  505  501  0.00000000000E+00  0.00000000000E+00  0.11879477872E+04  0.11879477872E+04  0.00000000000E+00 0.  1.
         21   -1    0    0  501  502 -0.00000000000E+00 -0.00000000000E+00 -0.11935765251E+03  0.11935765251E+03  0.00000000000E+00 0.  1.
         21    1    1    2  503  502  0.12858063324E+03  0.56835606025E+02 -0.69860050836E+02  0.15698309482E+03  0.00000000000E+00 0.  1.
         21    1    1    2  504  503 -0.57862163070E+02 -0.50357746244E+02  0.70457247996E+03  0.70873571382E+03  0.00000000000E+00 0.  1.
         21    1    1    2  505  506 -0.27927894582E+02 -0.12596180351E+02  0.91542361496E+02  0.96533077251E+02  0.00000000000E+00 0. -1.
         21    1    1    2  506  504 -0.42790575585E+02  0.61183205698E+01  0.34233534404E+03  0.34505355379E+03  0.00000000000E+00 0.  1.
<scales pt_clust_3="139.36189" pt_clust_4="35.70996" pt_clust_5="30.63709" pt_clust_6="35.70996"></scales>
<clustering>
<clus scale="   30.637">  1  5  2 -1</clus>
<clus scale="   35.710">  4  6 -1 -1</clus>
<clus scale="  139.362">  2  3  1 -1</clus>
<clus scale="   30.637">  1  3  2 -1</clus>
</clustering>
</event>
<event>
 6    0  0.8777103E+002  0.1400513E+03  0.7546771E-02  0.1213260E+00
         21   -1    0    0  504  501  0.00000000000E+00  0.00000000000E+00  0.20397594107E+02  0.20397594107E+02  0.00000000000E+00 0.  1.
         21   -1    0    0  506  502 -0.00000000000E+00 -0.00000000000E+00 -0.15369534599E+04  0.15369534599E+04  0.00000000000E+00 0.  1.
         21    1    1    2  503  502  0.43007546726E+02  0.32121667121E+01 -0.62838329183E+03  0.62986151537E+03  0.00000000000E+00 0.  1.
         21    1    1    2  504  505  0.35657700853E+01  0.68711583060E+02 -0.24309064018E+03  0.25264017042E+03  0.00000000000E+00 0.  1.
         21    1    1    2  505  503  0.52074528148E+02  0.23997674311E+02 -0.25006514254E+03  0.25655451734E+03  0.00000000000E+00 0.  1.
         21    1    1    2  506  501 -0.98647844960E+02 -0.95921424083E+02 -0.39501679120E+03  0.41829485085E+03  0.00000000000E+00 0.  1.
<scales pt_clust_3="43.12734" pt_clust_4="65.04732" pt_clust_5="65.04732" pt_clust_6="123.40424"></scales>
<clustering>
<clus scale="   43.127">  2  3  1 -1</clus>
<clus scale="   65.047">  4  5 -1 -1</clus>
<clus scale="  123.404">  1  6  2 -1</clus>
<clus scale="  123.404">  1  3  2 -1</clus>
</clustering>
</event>
<event>
 6    0  0.8777103E+002  0.1019119E+03  0.7546771E-02  0.1276326E+00
         21   -1    0    0  503  501  0.00000000000E+00  0.00000000000E+00  0.14777639463E+03  0.14777639463E+03  0.00000000000E+00 0. -1.
         21   -1    0    0  506  502 -0.00000000000E+00 -0.00000000000E+00 -0.26034126094E+03  0.26034126094E+03  0.00000000000E+00 0. -1.
         21    1    1    2  503  504  0.68376763969E+02  0.10079533736E+03 -0.77762044064E+01  0.12204733196E+03  0.00000000000E+00 0. -1.
         21    1    1    2  504  502 -0.42397090782E+02 -0.21319764749E+02 -0.64141777828E+02  0.79788553933E+02  0.00000000000E+00 0.  1.
         21    1    1    2  505  501 -0.42846339779E+02  0.89839948019E+01  0.58029389416E+02  0.72690652983E+02  0.00000000000E+00 0.  1.
         21    1    1    2  506  505  0.16866666593E+02 -0.88459567409E+02 -0.98676273500E+02  0.13359111670E+03  0.00000000000E+00 0. -1.
<scales pt_clust_3="14000.00000" pt_clust_4="50.77230" pt_clust_5="43.77809" pt_clust_6="101.91185"></scales>
<clustering>
<clus scale="   43.778">  1  5  2 -1</clus>
<clus scale="   50.772">  2  4  1 -1</clus>
<clus scale="  101.912">  2  6  1 -1</clus>
<clus scale="   43.778">  1  3  2 -1</clus>
</clustering>
</event>
<event>
 6    0  0.8777103E+002  0.1802274E+03  0.7546771E-02  0.1167583E+00
         21   -1    0    0  505  501  0.00000000000E+00  0.00000000000E+00  0.21806600276E+03  0.21806600276E+03  0.00000000000E+00 0.  1.
         21   -1    0    0  504  502 -0.00000000000E+00 -0.00000000000E+00 -0.29693528221E+03  0.29693528221E+03  0.00000000000E+00 0.  1.
         21    1    1    2  503  502 -0.18332825836E+01 -0.30400093816E+02 -0.23603507929E+02  0.38531184976E+02  0.00000000000E+00 0.  1.
         21    1    1    2  504  506  0.18187841610E+02  0.39712935534E+02 -0.48496295265E+02  0.65267185366E+02  0.00000000000E+00 0.  1.
         21    1    1    2  505  503  0.12196458727E+03 -0.13107082221E+03  0.92894237531E+02  0.20170339698E+03  0.00000000000E+00 0.  1.
         21    1    1    2  506  501 -0.13831914630E+03  0.12175798050E+03 -0.99663713794E+02  0.20949951765E+03  0.00000000000E+00 0.  1.
<scales pt_clust_3="30.45532" pt_clust_4="37.67647" pt_clust_5="180.22744" pt_clust_6="14000.00000"></scales>
<clustering>
<clus scale="   30.455">  2  3  1 -1</clus>
<clus scale="   37.676">  2  4  1 -1</clus>
<clus scale="  180.227">  1  5  2 -1</clus>
<clus scale="  180.227">  1  3  2 -1</clus>
</clustering>
</event>
<event>
 6    0  0.8777103E+002  0.1049776E+03  0.7546771E-02  0.1270164E+00
         21   -1    0    0  503  501  0.00000000000E+00  0.00000000000E+00  0.39339630252E+03  0.39339630252E+03  0.00000000000E+00 0.  1.
         21   -1    0    0  506  502 -0.00000000000E+00 -0.00000000000E+00 -0.58076087432E+03  0.58076087432E+03  0.00000000000E+00 0.  1.
         21    1    1    2  503  504 -0.92496739201E+02  0.21905021474E+02  0.32554473577E+03  0.33913839611E+03  0.00000000000E+00 0.  1.
         21    1    1    2  504  502 -0.39846064592E+01  0.57128432382E+02 -0.31968690082E+03  0.32477569095E+03  0.00000000000E+00 0.  1.
         21    1    1    2  505  501 -0.10768540112E+02 -0.48634174837E+02  0.31817348124E+02  0.59106582205E+02  0.00000000000E+00 0. -1.
         21    1    1    2  506  505  0.10724988577E+03 -0.30399279019E+02 -0.22503975487E+03  0.25113650757E+03  0.00000000000E+00 0.  1.
<scales pt_clust_3="14000.00000" pt_clust_4="56.91800" pt_clust_5="49.81209" pt_clust_6="104.97760"></scales>
<clustering>
<clus scale="   49.812">  1  5  2 -1</clus>
<clus scale="   56.918">  2  4  1 -1</clus>
<clus scale="  104.978">  2  6  1 -1</clus>
<clus scale="   49.812">  1  3  2 -1</clus>
</clustering>
</event>
<event>
 6    0  0.8777103E+002  0.9645354E+02  0.7546771E-02  0.1287936E+00
         21   -1    0    0  503  501  0.00000000000E+00  0.00000000000E+00  0.26721220357E+03  0.26721220357E+03  0.00000000000E+00 0. -1.
         21   -1    0    0  504  502 -0.00000000000E+00 -0.00000000000E+00 -0.85553687785E+03  0.85553687785E+03  0.00000000000E+00 0.  1.
         21    1    1    2  503  502 -0.11017936600E+03 -0.11909623000E+03 -0.19133952997E+03  0.25086693767E+03  0.00000000000E+00 0.  1.
         21    1    1    2  504  505  0.30186938393E+02  0.11017948935E+02 -0.50270222462E+03  0.50372827307E+03  0.00000000000E+00 0.  1.
         21    1    1    2  505  506  0.30049780689E+02  0.28725432624E+02 -0.11825449750E+03  0.12534857789E+03  0.00000000000E+00 0. -1.
         21    1    1    2  506  501  0.49942646913E+02  0.79352848438E+02  0.22397157782E+03  0.24280529279E+03  0.00000000000E+00 0. -1.
<scales pt_clust_3="96.45354" pt_clust_4="32.13482" pt_clust_5="51.93830" pt_clust_6="14000.00000"></scales>
<clustering>
<clus scale="   32.135">  2  4  1 -1</clus>
<clus scale="   51.938">  2  5  1 -1</clus>
<clus scale="   96.454">  2  3  1 -1</clus>
<clus scale="   96.454">  1  3  2 -1</clus>
</clustering>
</event>
<event>
 6    0  0.8777103E+002  0.2395856E+03  0.7546771E-02  0.1120069E+00
         21   -1    0    0  506  501  0.00000000000E+00  0.00000000000E+00  0.10631434488E+04  0.10631434488E+04  0.00000000000E+00 0.  1.
         21   -1    0    0  505  502 -0.00000000000E+00 -0.00000000000E+00 -0.16466523951E+03  0.16466523951E+03  0.00000000000E+00 0. -1.
         21    1    1    2  503  504  0.13091643753E+03  0.92618424307E+02  0.48656524884E+03  0.51231145557E+03  0.00000000000E+00 0.  1.
         21    1    1    2  504  501  0.54110016920E+02  0.34612318698E+02  0.40079769878E+03  0.40591218494E+03  0.00000000000E+00 0.  1.
         21    1    1    2  505  503 -0.21951453621E+03 -0.14287284983E+03 -0.16930198338E+02  0.26246126275E+03  0.00000000000E+00 0. -1.
         21    1    1    2  506  502  0.34488081767E+02  0.15642106828E+02  0.28045460024E+02  0.47123785055E+02  0.00000000000E+00 0.  1.
<scales pt_clust_3="45.85295" pt_clust_4="45.85295" pt_clust_5="228.25870" pt_clust_6="37.86956"></scales>
<clustering>
<clus scale="   37.870">  2  6  1 -1</clus>
<clus scale="   45.853">  3  4 -1 -1</clus>
<clus scale="  228.259">  2  5  1 -1</clus>
<clus scale="  239.586">  1  3  2 -1</clus>
</clustering>
</event>
<event>
 6    0  0.8777103E+002  0.9732360E+02  0.7546771E-02  0.1286027E+00
         21   -1    0    0  506  501  0.00000000000E+00  0.00000000000E+00  0.79978166275E+03  0.79978166275E+03  0.00000000000E+00 0. -1.
         21   -1    0    0  503  502 -0.00000000000E+00 -0.00000000000E+00 -0.44867949539E+02  0.44867949539E+02  0.00000000000E+00 0. -1.
         21    1    1    2  503  505  0.65105355415E+02  0.34003330551E+02  0.89441803735E+02  0.11573577687E+03  0.00000000000E+00 0. -1.
         21    1    1    2  504  501  0.28628664482E+02 -0.33718942946E+02  0.28988337344E+03  0.29323870437E+03  0.00000000000E+00 0. -1.
         21    1    1    2  505  504 -0.74559632109E+02  0.88242362802E+02  0.12999140476E+03  0.17390692523E+03  0.00000000000E+00 0. -1.
         21    1    1    2  506  502 -0.19174387788E+02 -0.88526750407E+02  0.24559713128E+03  0.26176820582E+03  0.00000000000E+00 0. -1.
<scales pt_clust_3="75.92268" pt_clust_4="44.23310" pt_clust_5="97.32360" pt_clust_6="14000.00000"></scales>
<clustering>
<clus scale="   44.233">  1  4  2 -1</clus>
<clus scale="   75.923">  2  3  1 -1</clus>
<clus scale="   97.324">  2  5  1 -1</clus>
<clus scale="   44.233">  1  3  2 -1</clus>
</clustering>
</event>
<event>
 6    0  0.8777103E+002  0.7965503E+02  0.7546771E-02  0.1330033E+00
         21   -1    0    0  503  501  0.00000000000E+00  0.00000000000E+00  0.20611689937E+03  0.20611689937E+03  0.00000000000E+00 0. -1.
         21   -1    0    0  506  502 -0.00000000000E+00 -0.00000000000E+00 -0.18738033250E+04  0.18738033250E+04  0.00000000000E+00 0. -1.
         21    1    1    2  503  504  0.31884713295E+02 -0.10390305339E+03  0.91477185282E+02  0.14205827985E+03  0.00000000000E+00 0. -1.
         21    1    1    2  504  502  0.29817607347E+02  0.69275902080E+02 -0.29810757260E+02  0.81098221715E+02  0.00000000000E+00 0.  1.
         21    1    1    2  505  501 -0.28785200068E+02  0.55494239759E+02  0.48103225005E+02  0.78880407233E+02  0.00000000000E+00 0.  1.
         21    1    1    2  506  505 -0.32917120575E+02 -0.20867088446E+02 -0.17774560786E+04  0.17778833155E+04  0.00000000000E+00 0. -1.
<scales pt_clust_3="79.65503" pt_clust_4="58.25421" pt_clust_5="14000.00000" pt_clust_6="38.97399"></scales>
<clustering>
<clus scale="   38.974">  2  6  1 -1</clus>
<clus scale="   58.254">  2  4  1 -1</clus>
<clus scale="   79.655">  2  3  1 -1</clus>
<clus scale="   79.655">  1  3  2 -1</clus>
</clustering>
</event>
<event>
 6    0  0.8777103E+002  0.8789117E+02  0.7546771E-02  0.1308040E+00
         21   -1    0    0  506  501  0.00000000000E+00  0.00000000000E+00  0.46256522249E+03  0.46256522249E+03  0.00000000000E+00 0.  1.
         21   -1    0    0  504  502 -0.00000000000E+00 -0.00000000000E+00 -0.23491603439E+03  0.23491603439E+03  0.00000000000E+00 0.  1.
         21    1    1    2  503  502 -0.34283716706E+02 -0.50256217786E+02  0.66980626410E+02  0.90484611795E+02  0.00000000000E+00 0.  1.
         21    1    1    2  504  505  0.52275219165E+02 -0.70520108401E+02 -0.15819133386E+03  0.18091512467E+03  0.00000000000E+00 0.  1.
         21    1    1    2  505  501  0.38237324692E+02  0.12952868886E+03  0.39111581558E+02  0.14060401861E+03  0.00000000000E+00 0. -1.
         21    1    1    2  506  503 -0.56228827151E+02 -0.87523626753E+01  0.27974831398E+03  0.28547750180E+03  0.00000000000E+00 0.  1.
<scales pt_clust_3="79.95423" pt_clust_4="87.89117" pt_clust_5="14000.00000" pt_clust_6="56.90593"></scales>
<clustering>
<clus scale="   56.906">  1  6  2 -1</clus>
<clus scale="   79.954">  1  3  2 -1</clus>
<clus scale="   87.891">  2  4  1 -1</clus>
<clus scale="   56.906">  1  3  2 -1</clus>
</clustering>
</event>
<event>
 6    0  0.8777103E+002  0.9006007E+02  0.7546771E-02  0.1302706E+00
         21   -1    0    0  504  501  0.00000000000E+00  0.00000000000E+00  0.17875584769E+03  0.17875584769E+03  0.00000000000E+00 0.  1.
         21   -1    0    0  505  502 -0.00000000000E+00 -0.00000000000E+00 -0.20851861964E+03  0.20851861964E+03  0.00000000000E+00 0.  1.
         21    1    1    2  503  502 -0.86597208507E+02 -0.53189406374E+02  0.37191883706E+02  0.10821934062E+03  0.00000000000E+00 0.  1.
         21    1    1    2  504  503  0.47280087534E+02 -0.37975302234E+02  0.38603843023E+02  0.71887321227E+02  0.00000000000E+00 0.  1.
         21    1    1    2  505  506  0.60408663802E+02 -0.16972632133E+02 -0.63403191200E+02  0.89203371900E+02  0.00000000000E+00 0.  1.
         21    1    1    2  506  501 -0.21091542829E+02  0.10813734074E+03 -0.42155307478E+02  0.11796443358E+03  0.00000000000E+00 0.  1.
<scales pt_clust_3="14000.00000" pt_clust_4="60.64264" pt_clust_5="68.61962" pt_clust_6="90.06007"></scales>
<clustering>
<clus scale="   60.643">  1  4  2 -1</clus>
<clus scale="   68.620">  2  5  1 -1</clus>
<clus scale="   90.060">  2  6  1 -1</clus>
<clus scale="   60.643">  1  3  2 -1</clus>
</clustering>
</event>
<event>
 6    0  0.8777103E+002  0.8979729E+02  0.7546771E-02  0.1303343E+00
         21   -1    0    0  503  501  0.00000000000E+00  0.00000000000E+00  0.32608544879E+03  0.32608544879E+03  0.00000000000E+00 0. -1.
         21   -1    0    0  505  502 -0.00000000000E+00 -0.00000000000E+00 -0.31984377648E+03  0.31984377648E+03  0.00000000000E+00 0. -1.
         21    1    1    2  503  506 -0.32439905311E+02 -0.63011954769E+02  0.10852976318E+03  0.12962084476E+03  0.00000000000E+00 0.  1.
         21    1    1    2  504  502  0.15591956552E+02  0.35856699220E+02 -0.26307359076E+03  0.26596339249E+03  0.00000000000E+00 0. -1.
         21    1    1    2  505  501  0.10271221809E+03  0.21400964616E+02  0.10038829707E+03  0.14520885379E+03  0.00000000000E+00 0. -1.
         21    1    1    2  506  504 -0.85864269336E+02  0.57542909326E+01  0.60397202823E+02  0.10513613423E+03  0.00000000000E+00 0. -1.
<scales pt_clust_3="63.43697" pt_clust_4="39.10003" pt_clust_5="14000.00000" pt_clust_6="89.79729"></scales>
<clustering>
<clus scale="   39.100">  2  4  1 -1</clus>
<clus scale="   63.437">  1  3  2 -1</clus>
<clus scale="   89.797">  2  6  1 -1</clus>
<clus scale="   63.437">  1  3  2 -1</clus>
</clustering>
</event>
<event>
 6    0  0.8777103E+002  0.1205320E+03  0.7546771E-02  0.1242222E+00
         21   -1    0    0  503  501  0.00000000000E+00  0.00000000000E+00  0.14565885317E+04  0.14565885317E+04  0.00000000000E+00 0. -1.
         21   -1    0    0  506  502 -0.00000000000E+00 -0.00000000000E+00 -0.10158007844E+03  0.10158007844E+03  0.00000000000E+00 0.  1.
         21    1    1    2  503  502 -0.67847567087E+02  0.21345082502E+02  0.54330475965E+02  0.89502544798E+02  0.00000000000E+00 0.  1.
         21    1    1    2  504  505 -0.38865381088E+02 -0.77157156926E+02  0.15249779655E+03  0.17526928614E+03  0.00000000000E+00 0. -1.
         21    1    1    2  505  501  0.10360591973E+02 -0.38908150613E+02  0.11572770259E+04  0.11579772453E+04  0.00000000000E+00 0. -1.
         21    1    1    2  506  504  0.96352356202E+02  0.94720225036E+02 -0.90968450914E+01  0.13541953392E+03  0.00000000000E+00 0.  1.
<scales pt_clust_3="66.44521" pt_clust_4="120.53201" pt_clust_5="40.26395" pt_clust_6="14000.00000"></scales>
<clustering>
<clus scale="   40.264">  1  5  2 -1</clus>
<clus scale="   66.445">  1  3  2 -1</clus>
<clus scale="  120.532">  1  4  2 -1</clus>
<clus scale="   40.264">  1  3  2 -1</clus>
</clustering>
</event>
<event>
 6    0  0.8777103E+002  0.9357417E+02  0.7546771E-02  0.1294420E+00
         21   -1    0    0  504  501  0.00000000000E+00  0.00000000000E+00  0.43960471342E+03  0.43960471342E+03  0.00000000000E+00 0.  1.
         21   -1    0    0  505  502 -0.00000000000E+00 -0.00000000000E+00 -0.99210208643E+03  0.99210208643E+03  0.00000000000E+00 0. -1.
         21    1    1    2  503  501 -0.28927839052E+02  0.20995595267E+02  0.36539347662E+03  0.36713761405E+03  0.00000000000E+00 0.  1.
         21    1    1    2  504  506 -0.77471398076E+02  0.57888746030E+02 -0.71398622462E+03  0.72050624799E+03  0.00000000000E+00 0. -1.
         21    1    1    2  505  503  0.78345975108E+02 -0.98043075015E+02  0.11471323162E+02  0.12602431364E+03  0.00000000000E+00 0.  1.
         21    1    1    2  506  502  0.28053262020E+02  0.19158733717E+02 -0.21537594817E+03  0.21803862418E+03  0.00000000000E+00 0. -1.
<scales pt_clust_3="35.73116" pt_clust_4="14000.00000" pt_clust_5="93.57417" pt_clust_6="33.97120"></scales>
<clustering>
<clus scale="   33.971">  2  6  1 -1</clus>
<clus scale="   35.731">  1  3  2 -1</clus>
<clus scale="   93.574">  1  5  2 -1</clus>
<clus scale="   35.731">  1  3  2 -1</clus>
</clustering>
</event>
<event>
 6    0  0.8777103E+002  0.1656193E+03  0.7546771E-02  0.1182495E+00
         21   -1    0    0  503  501  0.00000000000E+00  0.00000000000E+00  0.32266392848E+03  0.32266392848E+03  0.00000000000E+00 0. -1.
         21   -1    0    0  505  502 -0.00000000000E+00 -0.00000000000E+00 -0.52857376622E+03  0.52857376622E+03  0.00000000000E+00 0. -1.
         21    1    1    2  503  502  0.16078159086E+02  0.77108721332E+02  0.14708553256E+03  0.16684848214E+03  0.00000000000E+00 0. -1.
         21    1    1    2  504  506  0.17606148740E+02 -0.72671027944E+02 -0.14331154879E+03  0.16164546017E+03  0.00000000000E+00 0. -1.
         21    1    1    2  505  504  0.39890993970E+02 -0.77351824970E+02 -0.34302613908E+03  0.35389479837E+03  0.00000000000E+00 0. -1.
         21    1    1    2  506  501 -0.73575301796E+02  0.72914131582E+02  0.13334231756E+03  0.16884895402E+03  0.00000000000E+00 0. -1.
<scales pt_clust_3="78.76714" pt_clust_4="54.40078" pt_clust_5="54.40078" pt_clust_6="154.87128"></scales>
<clustering>
<clus scale="   54.401">  4  5 -1 -1</clus>
<clus scale="   78.767">  1  3  2 -1</clus>
<clus scale="  154.871">  1  6  2 -1</clus>
<clus scale="   78.767">  1  3  2 -1</clus>
</clustering>
</event>
<event>
 6    0  0.8777103E+002  0.1117754E+03  0.7546771E-02  0.1257317E+00
         21   -1    0    0  503  501  0.00000000000E+00  0.00000000000E+00  0.11225906584E+04  0.11225906584E+04  0.00000000000E+00 0. -1.
         21   -1    0    0  506  502 -0.00000000000E+00 -0.00000000000E+00 -0.40273162300E+03  0.40273162300E+03  0.00000000000E+00 0.  1.
         21    1    1    2  503  504  0.12412307641E+02 -0.65797291011E+02  0.10402853538E+03  0.12371453051E+03  0.00000000000E+00 0. -1.
         21    1    1    2  504  502  0.35337812776E+02 -0.15582349155E+02 -0.28562782394E+03  0.28822703625E+03  0.00000000000E+00 0.  1.
         21    1    1    2  505  501 -0.41695782080E+02  0.12490737829E+03  0.99834545961E+03  0.10069925760E+04  0.00000000000E+00 0. -1.
         21    1    1    2  506  505 -0.60543383364E+01 -0.43527738126E+02 -0.96887135630E+02  0.10638813867E+03  0.00000000000E+00 0. -1.
<scales pt_clust_3="14000.00000" pt_clust_4="38.62086" pt_clust_5="111.77542" pt_clust_6="62.41242"></scales>
<clustering>
<clus scale="   38.621">  2  4  1 -1</clus>
<clus scale="   62.412">  2  6  1 -1</clus>
<clus scale="  111.775">  1  5  2 -1</clus>
<clus scale="  111.775">  1  3  2 -1</clus>
</clustering>
</event>
<event>
 6    0  0.8777103E+002  0.7223625E+02  0.7546771E-02  0.1352650E+00
         21   -1    0    0  504  501  0.00000000000E+00  0.00000000000E+00  0.75499231062E+02  0.75499231062E+02  0.00000000000E+00 0. -1.
         21   -1    0    0  503  502 -0.00000000000E+00 -0.00000000000E+00 -0.42855881082E+03  0.42855881082E+03  0.00000000000E+00 0. -1.
         21    1    1    2  503  506  0.12388345275E+02 -0.96350915792E+02 -0.93637656542E+02  0.13492583442E+03  0.00000000000E+00 0. -1.
         21    1    1    2  504  505  0.34146669754E+02  0.36994620329E+02 -0.26666964415E+01  0.50415357367E+02  0.00000000000E+00 0.  1.
         21    1    1    2  505  502  0.31310145284E+02  0.40937401206E+02 -0.22793500905E+03  0.23368903347E+03  0.00000000000E+00 0. -1.
         21    1    1    2  506  501 -0.77845160312E+02  0.18418894257E+02 -0.28820217731E+02  0.85027816623E+02  0.00000000000E+00 0. -1.
<scales pt_clust_3="72.23625" pt_clust_4="50.34478" pt_clust_5="54.33260" pt_clust_6="14000.00000"></scales>
<clustering>
<clus scale="   50.345">  1  4  2 -1</clus>
<clus scale="   54.333">  2  5  1 -1</clus>
<clus scale="   72.236">  2  3  1 -1</clus>
<clus scale="   50.345">  1  3  2 -1</clus>
</clustering>
</event>
<event>
 6    0  0.8777103E+002  0.7930379E+02  0.7546771E-02  0.1331039E+00
         21   -1    0    0  503  501  0.00000000000E+00  0.00000000000E+00  0.12289651424E+04  0.12289651424E+04  0.00000000000E+00 0. -1.
         21   -1    0    0  506  502 -0.00000000000E+00 -0.00000000000E+00 -0.29496435990E+02  0.29496435990E+02  0.00000000000E+00 0. -1.
         21    1    1    2  503  502 -0.43463312394E+01  0.74053526271E+02  0.18553568573E+03  0.19981568013E+03  0.00000000000E+00 0. -1.
         21    1    1    2  504  501  0.44978974919E+02 -0.47210292453E+01  0.46835231498E+03  0.47053085685E+03  0.00000000000E+00 0. -1.
         21    1    1    2  505  504  0.42240387966E+02 -0.81199555686E+02  0.45761544731E+03  0.46667924299E+03  0.00000000000E+00 0. -1.
         21    1    1    2  506  505 -0.82873031646E+02  0.11867058661E+02  0.87965258424E+02  0.12143579845E+03  0.00000000000E+00 0. -1.
<scales pt_clust_3="73.19755" pt_clust_4="45.22606" pt_clust_5="14000.00000" pt_clust_6="79.30379"></scales>
<clustering>
<clus scale="   45.226">  1  4  2 -1</clus>
<clus scale="   73.198">  1  3  2 -1</clus>
<clus scale="   79.304">  2  6  1 -1</clus>
<clus scale="   45.226">  1  3  2 -1</clus>
</clustering>
</event>
<event>
 6    0  0.8777103E+002  0.7150116E+02  0.7546771E-02  0.1355061E+00
         21   -1    0    0  505  501  0.00000000000E+00  0.00000000000E+00  0.43900780247E+03  0.43900780247E+03  0.00000000000E+00 0.  1.
         21   -1    0    0  503  502 -0.00000000000E+00 -0.00000000000E+00 -0.21671118199E+03  0.21671118199E+03  0.00000000000E+00 0. -1.
         21    1    1    2  503  504  0.16528642885E+02  0.59808449548E+02  0.21467270044E+02  0.65658893961E+02  0.00000000000E+00 0. -1.
         21    1    1    2  504  501 -0.47984096371E+02  0.95653126631E+00  0.22482819717E+03  0.22989368565E+03  0.00000000000E+00 0.  1.
         21    1    1    2  505  506 -0.40868774652E+02 -0.66821663199E+02  0.15133524369E+03  0.17040465779E+03  0.00000000000E+00 0.  1.
         21    1    1    2  506  502  0.72324228138E+02  0.60566823849E+01 -0.17533409043E+03  0.18976174705E+03  0.00000000000E+00 0. -1.
<scales pt_clust_3="60.37293" pt_clust_4="47.99363" pt_clust_5="14000.00000" pt_clust_6="71.50116"></scales>
<clustering>
<clus scale="   47.994">  1  4  2 -1</clus>
<clus scale="   60.373">  1  3  2 -1</clus>
<clus scale="   71.501">  2  6  1 -1</clus>
<clus scale="   47.994">  1  3  2 -1</clus>
</clustering>
</event>
<event>
 6    0  0.8777103E+002  0.1311500E+03  0.7546771E-02  0.1225759E+00
         21   -1    0    0  503  501  0.00000000000E+00  0.00000000000E+00  0.35694191481E+02  0.35694191481E+02  0.00000000000E+00 0. -1.
         21   -1    0    0  504  502 -0.00000000000E+00 -0.00000000000E+00 -0.30584286410E+04  0.30584286410E+04  0.00000000000E+00 0. -1.
         21    1    1    2  503  505  0.30323041784E+02 -0.29068035155E+02 -0.28993326675E+03  0.29296029885E+03  0.00000000000E+00 0. -1.
         21    1    1    2  504  506 -0.16266279463E+03 -0.47350947291E+02 -0.61849335067E+03  0.64127632249E+03  0.00000000000E+00 0. -1.
         21    1    1    2  505  502  0.38675469602E+02 -0.46932828124E+01 -0.19670511566E+04  0.19674369295E+04  0.00000000000E+00 0. -1.
         21    1    1    2  506  501  0.93664283245E+02  0.81112265258E+02 -0.14725667552E+03  0.19244928167E+03  0.00000000000E+00 0. -1.
<scales pt_clust_3="50.71549" pt_clust_4="14000.00000" pt_clust_5="38.95919" pt_clust_6="131.14996"></scales>
<clustering>
<clus scale="   38.959">  2  5  1 -1</clus>
<clus scale="   50.715">  2  3  1 -1</clus>
<clus scale="  131.150">  1  6  2 -1</clus>
<clus scale="  131.150">  1  3  2 -1</clus>
</clustering>
</event>
<event>
 6    0  0.8777103E+002  0.1694534E+03  0.7546771E-02  0.1178419E+00
         21   -1    0    0  503  501  0.00000000000E+00  0.00000000000E+00  0.11403253699E+03  0.11403253699E+03  0.00000000000E+00 0. -1.
         21   -1    0    0  506  502 -0.00000000000E+00 -0.00000000000E+00 -0.60197434503E+03  0.60197434503E+03  0.00000000000E+00 0. -1.
         21    1    1    2  503  505  0.12026163702E+01  0.35283477147E+02  0.11097467291E+02  0.37007078053E+02  0.00000000000E+00 0. -1.
         21    1    1    2  504  501 -0.14182201390E+03  0.85660019950E+02 -0.50172830315E+02  0.17311393805E+03  0.00000000000E+00 0. -1.
         21    1    1    2  505  502  0.13730221214E+03 -0.83569535748E+02 -0.21188783339E+03  0.26595529456E+03  0.00000000000E+00 0. -1.
         21    1    1    2  506  504  0.33171853907E+01 -0.37373961349E+02 -0.23697861162E+03  0.23993057136E+03  0.00000000000E+00 0. -1.
<scales pt_clust_3="35.30397" pt_clust_4="169.45338" pt_clust_5="14000.00000" pt_clust_6="36.94619"></scales>
<clustering>
<clus scale="   35.304">  1  3  2 -1</clus>
<clus scale="   36.946">  2  6  1 -1</clus>
<clus scale="  169.453">  1  4  2 -1</clus>
<clus scale="   35.304">  1  3  2 -1</clus>
</clustering>
</event>
<event>
 6    0  0.8777103E+002  0.8523208E+02  0.7546771E-02  0.1314827E+00
         21   -1    0    0  504  501  0.00000000000E+00  0.00000000000E+00  0.14481235791E+03  0.14481235791E+03  0.00000000000E+00 0. -1.
         21   -1    0    0  503  502 -0.00000000000E+00 -0.00000000000E+00 -0.14929507111E+03  0.14929507111E+03  0.00000000000E+00 0. -1.
         21    1    1    2  503  505  0.51258149698E+02 -0.91833093691E+01 -0.36639163743E+02  0.63672281263E+02  0.00000000000E+00 0. -1.
         21    1    1    2  504  506 -0.64764495284E+02 -0.59302258556E+02  0.39434907525E+02  0.96261672803E+02  0.00000000000E+00 0. -1.
         21    1    1    2  505  501  0.21705481328E+02 -0.27588377275E+02  0.93493982990E+01  0.36327093593E+02  0.00000000000E+00 0. -1.
         21    1    1    2  506  502 -0.81991357421E+01  0.96073945200E+02 -0.16627855283E+02  0.97846381356E+02  0.00000000000E+00 0. -1.
<scales pt_clust_3="55.04176" pt_clust_4="85.23208" pt_clust_5="35.10337" pt_clust_6="14000.00000"></scales>
<clustering>
<clus scale="   35.103">  1  5  2 -1</clus>
<clus scale="   55.042">  2  3  1 -1</clus>
<clus scale="   85.232">  1  4  2 -1</clus>
<clus scale="   35.103">  1  3  2 -1</clus>
</clustering>
</event>
<event>
 6    0  0.8777103E+002  0.7972308E+02  0.7546771E-02  0.1329839E+00
         21   -1    0    0  502  501  0.00000000000E+00  0.00000000000E+00  0.59840180994E+02  0.59840180994E+02  0.00000000000E+00 0.  1.
         21   -1    0    0  506  502 -0.00000000000E+00 -0.00000000000E+00 -0.26400536838E+04  0.26400536838E+04  0.00000000000E+00 0.  1.
         21    1    1    2  503  501  0.61747437906E+02  0.32602987960E+02  0.87948058211E+01  0.70377905065E+02  0.00000000000E+00 0.  1.
         21    1    1    2  504  503 -0.11818754816E+02 -0.98370346932E+02 -0.10746353238E+03  0.14616709244E+03  0.00000000000E+00 0.  1.
         21    1    1    2  505  504 -0.20462190174E+02  0.58727080827E+02 -0.14012494412E+04  0.14026288061E+04  0.00000000000E+00 0.  1.
         21    1    1    2  506  505 -0.29466492917E+02  0.70402781452E+01 -0.10802953350E+04  0.10807200611E+04  0.00000000000E+00 0.  1.
<scales pt_clust_3="69.37777" pt_clust_4="79.72308" pt_clust_5="14000.00000" pt_clust_6="30.29587"></scales>
<clustering>
<clus scale="   30.296">  2  6  1 -1</clus>
<clus scale="   69.378">  1  3  2 -1</clus>
<clus scale="   79.723">  1  4  2 -1</clus>
<clus scale="   69.378">  1  3  2 -1</clus>
</clustering>
</event>
<event>
 6    0  0.8777103E+002  0.1575393E+03  0.7546771E-02  0.1191503E+00
         21   -1    0    0  505  501  0.00000000000E+00  0.00000000000E+00  0.72262401450E+02  0.72262401450E+02  0.00000000000E+00 0. -1.
         21   -1    0    0  506  502 -0.00000000000E+00 -0.00000000000E+00 -0.73659109706E+03  0.73659109706E+03  0.00000000000E+00 0. -1.
         21    1    1    2  503  504 -0.42538177325E+01  0.13286849529E+03 -0.15621593351E+03  0.20512325536E+03  0.00000000000E+00 0. -1.
         21    1    1    2  504  502  0.54564556087E+01  0.33939180804E+02 -0.15162320390E+03  0.15547101615E+03  0.00000000000E+00 0. -1.
         21    1    1    2  505  503  0.42203139503E+02  0.19786357582E+02 -0.36354203347E+01  0.46752766884E+02  0.00000000000E+00 0.  1.
         21    1    1    2  506  501 -0.43405777380E+02 -0.18659403367E+03 -0.35285413786E+03  0.40150646012E+03  0.00000000000E+00 0. -1.
<scales pt_clust_3="14000.00000" pt_clust_4="34.37500" pt_clust_5="47.46313" pt_clust_6="157.53932"></scales>
<clustering>
<clus scale="   34.375">  2  4  1 -1</clus>
<clus scale="   47.463">  1  5  2 -1</clus>
<clus scale="  157.539">  2  6  1 -1</clus>
<clus scale="   47.463">  1  3  2 -1</clus>
</clustering>
</event>
<event>
 6    0  0.8777103E+002  0.1409703E+03  0.7546771E-02  0.1212029E+00
         21   -1    0    0  504  501  0.00000000000E+00  0.00000000000E+00  0.16436895354E+04  0.16436895354E+04  0.00000000000E+00 0.  1.
         21   -1    0    0  505  502 -0.00000000000E+00 -0.00000000000E+00 -0.46487075694E+02  0.46487075694E+02  0.00000000000E+00 0.  1.
         21    1    1    2  503  502 -0.71514432463E+02  0.13286952665E+03  0.94247368717E+03  0.95447644087E+03  0.00000000000E+00 0.  1.
         21    1    1    2  504  503 -0.22128446683E+02 -0.32748300801E+02  0.39068457916E+03  0.39267869786E+03  0.00000000000E+00 0. -1.
         21    1    1    2  505  506 -0.49909504693E+02 -0.31680109350E+02  0.85149071048E+02  0.10365786168E+03  0.00000000000E+00 0.  1.
         21    1    1    2  506  501  0.14355238384E+03 -0.68441116497E+02  0.17889512235E+03  0.23936361071E+03  0.00000000000E+00 0.  1.
<scales pt_clust_3="140.97033" pt_clust_4="39.52366" pt_clust_5="61.85849" pt_clust_6="14000.00000"></scales>
<clustering>
<clus scale="   39.524">  1  4  2 -1</clus>
<clus scale="   61.858">  2  5  1 -1</clus>
<clus scale="  140.970">  1  3  2 -1</clus>
<clus scale="   39.524">  1  3  2 -1</clus>
</clustering>
</event>
<event>
 6    0  0.8777103E+002  0.1000232E+03  0.7546771E-02  0.1280247E+00
         21   -1    0    0  505  501  0.00000000000E+00  0.00000000000E+00  0.13904606756E+04  0.13904606756E+04  0.00000000000E+00 0.  1.
         21   -1    0    0  503  502 -0.00000000000E+00 -0.00000000000E+00 -0.33658565388E+03  0.33658565388E+03  0.00000000000E+00 0. -1.
         21    1    1    2  503  501  0.39528058665E+02  0.82275945718E+02 -0.76853207965E+02  0.11932398854E+03  0.00000000000E+00 0. -1.
         21    1    1    2  504  502  0.60007759382E+02 -0.94050236043E+02 -0.22068929280E+03  0.24728554758E+03  0.00000000000E+00 0. -1.
         21    1    1    2  505  506  0.20756598464E+01 -0.33061452079E+02  0.59363361015E+03  0.59455717225E+03  0.00000000000E+00 0.  1.
         21    1    1    2  506  504 -0.10161147789E+03  0.44835742403E+02  0.75778391230E+03  0.76587962108E+03  0.00000000000E+00 0.  1.
<scales pt_clust_3="90.50904" pt_clust_4="14000.00000" pt_clust_5="33.12654" pt_clust_6="100.02323"></scales>
<clustering>
<clus scale="   33.127">  1  5  2 -1</clus>
<clus scale="   90.509">  2  3  1 -1</clus>
<clus scale="  100.023">  1  6  2 -1</clus>
<clus scale="   33.127">  1  3  2 -1</clus>
</clustering>
</event>
<event>
 6    0  0.8777103E+002  0.1039796E+03  0.7546771E-02  0.1272143E+00
         21   -1    0    0  504  501  0.00000000000E+00  0.00000000000E+00  0.81234918318E+02  0.81234918318E+02  0.00000000000E+00 0.  1.
         21   -1    0    0  506  502 -0.00000000000E+00 -0.00000000000E+00 -0.35324700324E+03  0.35324700324E+03  0.00000000000E+00 0. -1.
         21    1    1    2  503  502  0.93542201855E+02  0.68773817696E+02 -0.17696879818E+03  0.21165523158E+03  0.00000000000E+00 0. -1.
         21    1    1    2  504  505 -0.19698273827E+02  0.31083591975E+02  0.14750620425E+02  0.39645838177E+02  0.00000000000E+00 0. -1.
         21    1    1    2  505  503 -0.77343087404E+02 -0.62417038464E+02 -0.46887547709E+02  0.10989213798E+03  0.00000000000E+00 0.  1.
         21    1    1    2  506  501  0.34991593762E+01 -0.37440371206E+02 -0.62906359465E+02  0.73288713821E+02  0.00000000000E+00 0. -1.
<scales pt_clust_3="103.97964" pt_clust_4="36.79962" pt_clust_5="14000.00000" pt_clust_6="34.49169"></scales>
<clustering>
<clus scale="   36.800">  1  4  2 -1</clus>
<clus scale="   34.492">  2  6  1 -1</clus>
<clus scale="  103.980">  2  3  1 -1</clus>
<clus scale="   36.800">  1  3  2 -1</clus>
</clustering>
</event>
<event>
 6    0  0.8777103E+002  0.1175617E+03  0.7546771E-02  0.1247175E+00
         21   -1    0    0  505  501  0.00000000000E+00  0.00000000000E+00  0.53522003281E+03  0.53522003281E+03  0.00000000000E+00 0. -1.
         21   -1    0    0  504  502 -0.00000000000E+00 -0.00000000000E+00 -0.86956695673E+02  0.86956695673E+02  0.00000000000E+00 0. -1.
         21    1    1    2  503  501 -0.22959092033E+02 -0.24339088405E+02  0.66352255057E+02  0.74311054914E+02  0.00000000000E+00 0.  1.
         21    1    1    2  504  503 -0.97238772829E+02  0.13004820833E+02  0.77332319550E+02  0.12491914166E+03  0.00000000000E+00 0. -1.
         21    1    1    2  505  506 -0.63033095106E+01  0.54707021113E+02  0.28199645136E+03  0.28732314290E+03  0.00000000000E+00 0. -1.
         21    1    1    2  506  502  0.12650117437E+03 -0.43372753541E+02  0.22582311173E+02  0.13562338901E+03  0.00000000000E+00 0. -1.
<scales pt_clust_3="33.45910" pt_clust_4="117.56170" pt_clust_5="44.70942" pt_clust_6="14000.00000"></scales>
<clustering>
<clus scale="   33.459">  1  3  2 -1</clus>
<clus scale="   44.709">  1  5  2 -1</clus>
<clus scale="  117.562">  1  4  2 -1</clus>
<clus scale="   33.459">  1  3  2 -1</clus>
</clustering>
</event>
<event>
 6    0  0.8777103E+002  0.1306108E+03  0.7546771E-02  0.1226552E+00
         21   -1    0    0  506  501  0.00000000000E+00  0.00000000000E+00  0.62515908879E+03  0.62515908879E+03  0.00000000000E+00 0.  1.
         21   -1    0    0  505  502 -0.00000000000E+00 -0.00000000000E+00 -0.13145657449E+04  0.13145657449E+04  0.00000000000E+00 0.  1.
         21    1    1    2  503  501  0.36762684118E+02  0.94139445779E+02  0.47250205023E+03  0.48318931866E+03  0.00000000000E+00 0.  1.
         21    1    1    2  504  502 -0.88997949541E+02 -0.14086051128E+03 -0.89469760984E+03  0.91008028861E+03  0.00000000000E+00 0.  1.
         21    1    1    2  505  503  0.67139140343E+02  0.76172652983E+02 -0.39842162690E+03  0.41115657603E+03  0.00000000000E+00 0. -1.
         21    1    1    2  506  504 -0.14903874920E+02 -0.29451587480E+02  0.13121053044E+03  0.13529865036E+03  0.00000000000E+00 0.  1.
<scales pt_clust_3="69.21516" pt_clust_4="130.61076" pt_clust_5="14000.00000" pt_clust_6="33.00790"></scales>
<clustering>
<clus scale="   33.008">  1  6  2 -1</clus>
<clus scale="   69.215">  1  3  2 -1</clus>
<clus scale="  130.611">  1  4  2 -1</clus>
<clus scale="   33.008">  1  3  2 -1</clus>
</clustering>
</event>
<event>
 6    0  0.8777103E+002  0.9690021E+02  0.7546771E-02  0.1286953E+00
         21   -1    0    0  505  501  0.00000000000E+00  0.00000000000E+00  0.55873327798E+03  0.55873327798E+03  0.00000000000E+00 0.  1.
         21   -1    0    0  506  502 -0.00000000000E+00 -0.00000000000E+00 -0.89591770884E+02  0.89591770884E+02  0.00000000000E+00 0.  1.
         21    1    1    2  503  502  0.61861596717E+02 -0.30239733262E+02 -0.31565849209E+02  0.75747616810E+02  0.00000000000E+00 0.  1.
         21    1    1    2  504  501  0.40254828988E+02  0.26768783391E+02  0.13014962649E+03  0.13883783453E+03  0.00000000000E+00 0.  1.
         21    1    1    2  505  503 -0.38008951934E+02 -0.98011194496E+02  0.18358935213E+03  0.21155596160E+03  0.00000000000E+00 0.  1.
         21    1    1    2  506  504 -0.64107473771E+02  0.10148214437E+03  0.18696837769E+03  0.22218363593E+03  0.00000000000E+00 0.  1.
<scales pt_clust_3="70.16177" pt_clust_4="48.34272" pt_clust_5="96.90021" pt_clust_6="14000.00000"></scales>
<clustering>
<clus scale="   48.343">  1  4  2 -1</clus>
<clus scale="   70.162">  2  3  1 -1</clus>
<clus scale="   96.900">  1  5  2 -1</clus>
<clus scale="   48.343">  1  3  2 -1</clus>
</clustering>
</event>
<event>
 6    0  0.1032038E+003  0.1173206E+03  0.7546771E-02  0.1247584E+00
         21   -1    0    0  503  501  0.00000000000E+00  0.00000000000E+00  0.62987210513E+03  0.62987210513E+03  0.00000000000E+00 0. -1.
         21   -1    0    0  506  502 -0.00000000000E+00 -0.00000000000E+00 -0.86511865725E+03  0.86511865725E+03  0.00000000000E+00 0. -1.
         21    1    1    2  503  504  0.21019082777E+02 -0.11556918255E+03  0.59467513329E+03  0.60616544932E+03  0.00000000000E+00 0. -1.
         21    1    1    2  504  502  0.57163630124E+02  0.11012859092E+03 -0.75111967187E+03  0.76129938173E+03  0.00000000000E+00 0. -1.
         21    1    1    2  505  501 -0.59128503273E+02 -0.23761320239E+02 -0.61657945370E+02  0.88670640384E+02  0.00000000000E+00 0.  1.
         21    1    1    2  506  505 -0.19054209627E+02  0.29201911868E+02 -0.17144068167E+02  0.38855290948E+02  0.00000000000E+00 0.  1.
<scales pt_clust_3="14000.00000" pt_clust_4="117.32060" pt_clust_5="64.40729" pt_clust_6="34.86853"></scales>
<clustering>
<clus scale="   34.869">  2  6  1 -1</clus>
<clus scale="   64.407">  2  5  1 -1</clus>
<clus scale="  117.321">  2  4  1 -1</clus>
<clus scale="  117.321">  1  3  2 -1</clus>
</clustering>
</event>
<event>
 6    0  0.8777103E+002  0.2087050E+03  0.7546771E-02  0.1142596E+00
         21   -1    0    0  506  501  0.00000000000E+00  0.00000000000E+00  0.18345816553E+04  0.18345816553E+04  0.00000000000E+00 0. -1.
         21   -1    0    0  504  502 -0.00000000000E+00 -0.00000000000E+00 -0.10038446353E+04  0.10038446353E+04  0.00000000000E+00 0.  1.
         21    1    1    2  503  501 -0.18987266460E+03 -0.77636592948E+01 -0.25713968847E+03  0.31973852216E+03  0.00000000000E+00 0.  1.
         21    1    1    2  504  503 -0.25740755341E+02  0.65268116733E+02 -0.65858986307E+03  0.66231648121E+03  0.00000000000E+00 0.  1.
         21    1    1    2  505  502  0.18433835120E+03 -0.36413490017E+02  0.10652456314E+03  0.21599549192E+03  0.00000000000E+00 0.  1.
         21    1    1    2  506  505  0.31275068739E+02 -0.21090967421E+02  0.16399420084E+04  0.16403757953E+04  0.00000000000E+00 0. -1.
<scales pt_clust_3="14000.00000" pt_clust_4="69.86292" pt_clust_5="208.70495" pt_clust_6="37.72213"></scales>
<clustering>
<clus scale="   37.722">  1  6  2 -1</clus>
<clus scale="   69.863">  2  4  1 -1</clus>
<clus scale="  208.705">  1  5  2 -1</clus>
<clus scale="   37.722">  1  3  2 -1</clus>
</clustering>
</event>
<event>
 6    0  0.8777103E+002  0.1304649E+03  0.7546771E-02  0.1226768E+00
         21   -1    0    0  505  501  0.00000000000E+00  0.00000000000E+00  0.28286270359E+02  0.28286270359E+02  0.00000000000E+00 0. -1.
         21   -1    0    0  506  502 -0.00000000000E+00 -0.00000000000E+00 -0.10163736526E+04  0.10163736526E+04  0.00000000000E+00 0.  1.
         21    1    1    2  503  504  0.16460330011E+02  0.33873390896E+02 -0.91187888346E+02  0.98658907636E+02  0.00000000000E+00 0.  1.
         21    1    1    2  504  501 -0.10220590657E+03 -0.68751264539E+02 -0.16049130986E+03  0.20231224445E+03  0.00000000000E+00 0. -1.
         21    1    1    2  505  502  0.29546787522E+02 -0.89564126793E+01 -0.28822791711E+03  0.28987680519E+03  0.00000000000E+00 0. -1.
         21    1    1    2  506  503  0.56198789034E+02  0.43834286322E+02 -0.44818026689E+03  0.45381196566E+03  0.00000000000E+00 0.  1.
<scales pt_clust_3="37.05789" pt_clust_4="118.46040" pt_clust_5="30.87442" pt_clust_6="37.05789"></scales>
<clustering>
<clus scale="   30.874">  2  5  1 -1</clus>
<clus scale="   37.058">  3  6 -1 -1</clus>
<clus scale="  118.460">  1  4  2 -1</clus>
<clus scale="  118.460">  1  3  2 -1</clus>
</clustering>
</event>
<event>
 6    0  0.8777103E+002  0.8235040E+02  0.7546771E-02  0.1322511E+00
         21   -1    0    0  506  501  0.00000000000E+00  0.00000000000E+00  0.28469041273E+04  0.28469041273E+04  0.00000000000E+00 0. -1.
         21   -1    0    0  504  502 -0.00000000000E+00 -0.00000000000E+00 -0.27007137676E+02  0.27007137676E+02  0.00000000000E+00 0. -1.
         21    1    1    2  503  501 -0.46291282188E+02  0.67510666451E+02  0.20777058541E+04  0.20793177220E+04  0.00000000000E+00 0. -1.
         21    1    1    2  504  503  0.75642029340E+02 -0.51357515785E+02  0.34976593293E+03  0.36151835205E+03  0.00000000000E+00 0. -1.
         21    1    1    2  505  502  0.42824966236E+02 -0.60032131085E+02  0.77326059659E+02  0.10685108328E+03  0.00000000000E+00 0. -1.
         21    1    1    2  506  505 -0.72175713388E+02  0.43878980420E+02  0.31509914290E+03  0.32622410761E+03  0.00000000000E+00 0. -1.
<scales pt_clust_3="82.35040" pt_clust_4="14000.00000" pt_clust_5="73.74167" pt_clust_6="55.27512"></scales>
<clustering>
<clus scale="   73.742">  2  5  1 -1</clus>
<clus scale="   55.275">  2  6  1 -1</clus>
<clus scale="   82.350">  1  3  2 -1</clus>
<clus scale="   82.350">  1  3  2 -1</clus>
</clustering>
</event>
<event>
 6    0  0.8777103E+002  0.1046234E+03  0.7546771E-02  0.1270863E+00
         21   -1    0    0  504  501  0.00000000000E+00  0.00000000000E+00  0.84096520563E+03  0.84096520563E+03  0.00000000000E+00 0.  1.
         21   -1    0    0  503  502 -0.00000000000E+00 -0.00000000000E+00 -0.94466068767E+02  0.94466068767E+02  0.00000000000E+00 0.  1.
         21    1    1    2  503  506  0.22973817795E+02  0.49054779301E+02 -0.21670867074E+02  0.58342044497E+02  0.00000000000E+00 0.  1.
         21    1    1    2  504  502  0.71187631604E+02 -0.57536206164E+02  0.76374629048E+03  0.76921160297E+03  0.00000000000E+00 0.  1.
         21    1    1    2  505  501 -0.63337481587E+02 -0.18386548556E+02 -0.42078732733E+01  0.66086367270E+02  0.00000000000E+00 0.  1.
         21    1    1    2  506  505 -0.30823967812E+02  0.26867975418E+02  0.86315867292E+01  0.41791259663E+02  0.00000000000E+00 0.  1.
<scales pt_clust_3="54.16796" pt_clust_4="90.91954" pt_clust_5="40.76032" pt_clust_6="40.76032"></scales>
<clustering>
<clus scale="   40.760">  5  6 -1 -1</clus>
<clus scale="   54.168">  2  3  1 -1</clus>
<clus scale="   90.920">  1  4  2 -1</clus>
<clus scale="   90.920">  1  3  2 -1</clus>
</clustering>
</event>
<event>
 6    0  0.8777103E+002  0.1115892E+03  0.7546771E-02  0.1257655E+00
         21   -1    0    0  506  501  0.00000000000E+00  0.00000000000E+00  0.20325679035E+03  0.20325679035E+03  0.00000000000E+00 0.  1.
         21   -1    0    0  505  502 -0.00000000000E+00 -0.00000000000E+00 -0.10306609515E+03  0.10306609515E+03  0.00000000000E+00 0.  1.
         21    1    1    2  503  501 -0.69619412306E+02 -0.78687313707E+02  0.61278902979E+02  0.12162918999E+03  0.00000000000E+00 0.  1.
         21    1    1    2  504  503  0.13541015230E+02  0.49172870662E+02  0.39739022840E+02  0.64656942696E+02  0.00000000000E+00 0.  1.
         21    1    1    2  505  504 -0.52581679179E+01  0.52731741212E+02 -0.96422683935E+01  0.53863328906E+02  0.00000000000E+00 0.  1.
         21    1    1    2  506  502  0.61336564994E+02 -0.23217298167E+02  0.88150377711E+01  0.66173423898E+02  0.00000000000E+00 0.  1.
<scales pt_clust_3="98.81332" pt_clust_4="50.86395" pt_clust_5="50.86395" pt_clust_6="65.58367"></scales>
<clustering>
<clus scale="   50.864">  4  5 -1 -1</clus>
<clus scale="   65.584">  2  6  1 -1</clus>
<clus scale="   98.813">  1  3  2 -1</clus>
<clus scale="   98.813">  1  3  2 -1</clus>
</clustering>
</event>
<event>
 6    0  0.8777103E+002  0.3298113E+03  0.7546771E-02  0.1071220E+00
         21   -1    0    0  503  501  0.00000000000E+00  0.00000000000E+00  0.14498076173E+04  0.14498076173E+04  0.00000000000E+00 0. -1.
         21   -1    0    0  501  502 -0.00000000000E+00 -0.00000000000E+00 -0.19294854705E+03  0.19294854705E+03  0.00000000000E+00 0. -1.
         21    1    1    2  503  505 -0.29322751144E+02  0.17078886709E+02  0.47684722304E+03  0.47805312072E+03  0.00000000000E+00 0.  1.
         21    1    1    2  504  506  0.22939018523E+03  0.18211287894E+03  0.71376600526E+02  0.30146239709E+03  0.00000000000E+00 0. -1.
         21    1    1    2  505  504 -0.30049428933E+03 -0.14708695655E+03  0.66027568767E+03  0.74019955041E+03  0.00000000000E+00 0. -1.
         21    1    1    2  506  502  0.10042685524E+03 -0.52104809095E+02  0.48359558982E+02  0.12304109610E+03  0.00000000000E+00 0. -1.
<scales pt_clust_3="33.93394" pt_clust_4="329.81127" pt_clust_5="14000.00000" pt_clust_6="110.15197"></scales>
<clustering>
<clus scale="   33.934">  1  3  2 -1</clus>
<clus scale="  110.152">  2  6  1 -1</clus>
<clus scale="  329.811">  2  4  1 -1</clus>
<clus scale="   33.934">  1  3  2 -1</clus>
</clustering>
</event>
<event>
 6    0  0.8777103E+002  0.8395803E+02  0.7546771E-02  0.1318180E+00
         21   -1    0    0  505  501  0.00000000000E+00  0.00000000000E+00  0.29251324380E+03  0.29251324380E+03  0.00000000000E+00 0.  1.
         21   -1    0    0  506  502 -0.00000000000E+00 -0.00000000000E+00 -0.19956838080E+04  0.19956838080E+04  0.00000000000E+00 0. -1.
         21    1    1    2  503  501 -0.63771513512E+01  0.41336953139E+02 -0.35901302511E+03  0.36144123168E+03  0.00000000000E+00 0. -1.
         21    1    1    2  504  502 -0.95245107952E+02 -0.17365163530E+00 -0.57645626662E+02  0.11133139277E+03  0.00000000000E+00 0. -1.
         21    1    1    2  505  504  0.66185188172E+02 -0.52691405890E+02  0.25746003793E+03  0.27100283120E+03  0.00000000000E+00 0.  1.
         21    1    1    2  506  503  0.35437071132E+02  0.11528104387E+02 -0.15439719504E+04  0.15444215962E+04  0.00000000000E+00 0. -1.
<scales pt_clust_3="55.07494" pt_clust_4="83.95803" pt_clust_5="14000.00000" pt_clust_6="37.26504"></scales>
<clustering>
<clus scale="   37.265">  2  6  1 -1</clus>
<clus scale="   55.075">  2  3  1 -1</clus>
<clus scale="   83.958">  2  4  1 -1</clus>
<clus scale="   83.958">  1  3  2 -1</clus>
</clustering>
</event>
<event>
 6    0  0.8777103E+002  0.2065285E+03  0.7546771E-02  0.1144345E+00
         21   -1    0    0  504  501  0.00000000000E+00  0.00000000000E+00  0.17032589726E+03  0.17032589726E+03  0.00000000000E+00 0. -1.
         21   -1    0    0  505  502 -0.00000000000E+00 -0.00000000000E+00 -0.49967258119E+03  0.49967258119E+03  0.00000000000E+00 0. -1.
         21    1    1    2  503  501 -0.17734293074E+02  0.19159096109E+03  0.52539629957E+02  0.19945429110E+03  0.00000000000E+00 0. -1.
         21    1    1    2  504  506  0.43004983645E+02 -0.20220307910E+02 -0.77655178958E+02  0.91041838126E+02  0.00000000000E+00 0. -1.
         21    1    1    2  505  503 -0.62993223278E+02 -0.14602079772E+02 -0.10335197751E+03  0.12191389653E+03  0.00000000000E+00 0. -1.
         21    1    1    2  506  502  0.37722532706E+02 -0.15676857340E+03 -0.20087915742E+03  0.25758845270E+03  0.00000000000E+00 0. -1.
<scales pt_clust_3="191.13956" pt_clust_4="42.46875" pt_clust_5="64.66349" pt_clust_6="42.46875"></scales>
<clustering>
<clus scale="   42.469">  4  6 -1 -1</clus>
<clus scale="   64.663">  2  5  1 -1</clus>
<clus scale="  191.140">  1  3  2 -1</clus>
<clus scale="  191.140">  1  3  2 -1</clus>
</clustering>
</event>
<event>
 6    0  0.8777103E+002  0.7645986E+02  0.7546771E-02  0.1339409E+00
         21   -1    0    0  506  501  0.00000000000E+00  0.00000000000E+00  0.18762964404E+04  0.18762964404E+04  0.00000000000E+00 0. -1.
         21   -1    0    0  503  502 -0.00000000000E+00 -0.00000000000E+00 -0.87991083805E+03  0.87991083805E+03  0.00000000000E+00 0.  1.
         21    1    1    2  503  504 -0.46417842523E+02  0.71852971998E+00 -0.24614347571E+03  0.25048301943E+03  0.00000000000E+00 0.  1.
         21    1    1    2  504  505  0.68415107951E+02 -0.91167589228E+02  0.12229374896E+04  0.12282378677E+04  0.00000000000E+00 0. -1.
         21    1    1    2  505  501 -0.24680264590E+02  0.28481930515E+02  0.64645965431E+03  0.64755727197E+03  0.00000000000E+00 0. -1.
         21    1    1    2  506  502  0.26829991614E+01  0.61967128993E+02 -0.62686806577E+03  0.62992911938E+03  0.00000000000E+00 0.  1.
<scales pt_clust_3="46.46777" pt_clust_4="76.45986" pt_clust_5="37.68734" pt_clust_6="14000.00000"></scales>
<clustering>
<clus scale="   37.687">  1  5  2 -1</clus>
<clus scale="   46.468">  2  3  1 -1</clus>
<clus scale="   76.460">  1  4  2 -1</clus>
<clus scale="   37.687">  1  3  2 -1</clus>
</clustering>
</event>
<event>
 6    0  0.8777103E+002  0.1118532E+03  0.7546771E-02  0.1257176E+00
         21   -1    0    0  503  501  0.00000000000E+00  0.00000000000E+00  0.35904943364E+03  0.35904943364E+03  0.00000000000E+00 0. -1.
         21   -1    0    0  506  502 -0.00000000000E+00 -0.00000000000E+00 -0.61311230334E+03  0.61311230334E+03  0.00000000000E+00 0. -1.
         21    1    1    2  503  505  0.45450349040E+02 -0.19876455139E+02  0.28462462256E+03  0.28891518386E+03  0.00000000000E+00 0. -1.
         21    1    1    2  504  501  0.43220648841E+02  0.87346060205E+02 -0.46608231421E+02  0.10802632066E+03  0.00000000000E+00 0. -1.
         21    1    1    2  505  502 -0.40480208158E+02  0.36812573785E+02  0.13826229434E+02  0.56435604555E+02  0.00000000000E+00 0. -1.
         21    1    1    2  506  504 -0.48190789724E+02 -0.10428217885E+03 -0.50590549028E+03  0.51878462789E+03  0.00000000000E+00 0. -1.
<scales pt_clust_3="49.60653" pt_clust_4="111.85322" pt_clust_5="32.79313" pt_clust_6="14000.00000"></scales>
<clustering>
<clus scale="   49.607">  1  3  2 -1</clus>
<clus scale="   32.793">  1  5  2 -1</clus>
<clus scale="  111.853">  1  4  2 -1</clus>
<clus scale="   49.607">  1  3  2 -1</clus>
</clustering>
</event>
<event>
 6    0  0.8777103E+002  0.1198698E+03  0.7546771E-02  0.1243312E+00
         21   -1    0    0  505  501  0.00000000000E+00  0.00000000000E+00  0.16491693140E+03  0.16491693140E+03  0.00000000000E+00 0.  1.
         21   -1    0    0  504  502 -0.00000000000E+00 -0.00000000000E+00 -0.27409842404E+03  0.27409842404E+03  0.00000000000E+00 0. -1.
         21    1    1    2  503  506 -0.31928156899E+02 -0.33493145892E+02 -0.38876703688E+02  0.60436711644E+02  0.00000000000E+00 0. -1.
         21    1    1    2  504  501  0.11734909879E+03  0.18418222494E+02 -0.60624919363E+02  0.13336199892E+03  0.00000000000E+00 0. -1.
         21    1    1    2  505  503 -0.19821515489E+02  0.27383949075E+02  0.10622145389E+03  0.11147093975E+03  0.00000000000E+00 0.  1.
         21    1    1    2  506  502 -0.65599426404E+02 -0.12309025677E+02 -0.11590132348E+03  0.13374570513E+03  0.00000000000E+00 0. -1.
<scales pt_clust_3="37.53507" pt_clust_4="110.57880" pt_clust_5="33.80493" pt_clust_6="37.53507"></scales>
<clustering>
<clus scale="   33.805">  1  5  2 -1</clus>
<clus scale="   37.535">  3  6 -1 -1</clus>
<clus scale="  110.579">  1  4  2 -1</clus>
<clus scale="   33.805">  1  3  2 -1</clus>
</clustering>
</event>
<event>
 6    0  0.8777103E+002  0.7171423E+02  0.7546771E-02  0.1354359E+00
         21   -1    0    0  504  501  0.00000000000E+00  0.00000000000E+00  0.55164731693E+03  0.55164731693E+03  0.00000000000E+00 0.  1.
         21   -1    0    0  506  502 -0.00000000000E+00 -0.00000000000E+00 -0.11356101326E+03  0.11356101326E+03  0.00000000000E+00 0.  1.
         21    1    1    2  503  501  0.35102410181E+02 -0.32565746367E+02  0.25757830696E+03  0.26199101369E+03  0.00000000000E+00 0.  1.
         21    1    1    2  504  505 -0.10453988607E+03  0.21188256427E+02  0.25018757678E+03  0.27197675188E+03  0.00000000000E+00 0.  1.
         21    1    1    2  505  502  0.48670491730E+02  0.46755811630E+02 -0.56893328344E+02  0.88271022972E+02  0.00000000000E+00 0.  1.
         21    1    1    2  506  503  0.20766984156E+02 -0.35378321690E+02 -0.12786251730E+02  0.42969541652E+02  0.00000000000E+00 0.  1.
<scales pt_clust_3="48.89478" pt_clust_4="71.71423" pt_clust_5="14000.00000" pt_clust_6="41.02308"></scales>
<clustering>
<clus scale="   41.023">  2  6  1 -1</clus>
<clus scale="   48.895">  1  3  2 -1</clus>
<clus scale="   71.714">  1  4  2 -1</clus>
<clus scale="   48.895">  1  3  2 -1</clus>
</clustering>
</event>
<event>
 6    0  0.8777103E+002  0.1001605E+03  0.7546771E-02  0.1279959E+00
         21   -1    0    0  506  501  0.00000000000E+00  0.00000000000E+00  0.79465289852E+02  0.79465289852E+02  0.00000000000E+00 0.  1.
         21   -1    0    0  503  502 -0.00000000000E+00 -0.00000000000E+00 -0.11108602503E+04  0.11108602503E+04  0.00000000000E+00 0.  1.
         21    1    1    2  503  504 -0.14970477870E+03  0.16359725746E+02 -0.28599411205E+03  0.32322096702E+03  0.00000000000E+00 0.  1.
         21    1    1    2  504  501  0.31966159021E+02 -0.31565216461E+02  0.42487266058E+02  0.61833372784E+02  0.00000000000E+00 0.  1.
         21    1    1    2  505  502  0.88838686445E+02  0.30776233139E+02 -0.74672650270E+03  0.75262205560E+03  0.00000000000E+00 0.  1.
         21    1    1    2  506  505  0.28899933236E+02 -0.15570742424E+02 -0.41161611745E+02  0.52649144743E+02  0.00000000000E+00 0.  1.
<scales pt_clust_3="100.16052" pt_clust_4="67.53097" pt_clust_5="14000.00000" pt_clust_6="32.82764"></scales>
<clustering>
<clus scale="   32.828">  1  6  2 -1</clus>
<clus scale="   67.531">  1  4  2 -1</clus>
<clus scale="  100.161">  1  3  2 -1</clus>
<clus scale="   32.828">  1  3  2 -1</clus>
</clustering>
</event>
<event>
 6    0  0.8777103E+002  0.9600822E+02  0.7546771E-02  0.1288921E+00
         21   -1    0    0  506  501  0.00000000000E+00  0.00000000000E+00  0.23012495780E+03  0.23012495780E+03  0.00000000000E+00 0.  1.
         21   -1    0    0  504  502 -0.00000000000E+00 -0.00000000000E+00 -0.29869552962E+03  0.29869552962E+03  0.00000000000E+00 0. -1.
         21    1    1    2  503  502  0.21593321701E+02 -0.28895890604E+02 -0.14553199921E+03  0.14993600911E+03  0.00000000000E+00 0.  1.
         21    1    1    2  504  505  0.18976186184E+02  0.11657882504E+03 -0.10100874667E+03  0.15541391506E+03  0.00000000000E+00 0. -1.
         21    1    1    2  505  501 -0.41227210168E+02 -0.56289143369E+02  0.17893300610E+03  0.19205512540E+03  0.00000000000E+00 0.  1.
         21    1    1    2  506  503  0.65770228332E+00 -0.31393791072E+02 -0.96283203553E+00  0.31415437856E+02  0.00000000000E+00 0.  1.
<scales pt_clust_3="36.33496" pt_clust_4="96.00822" pt_clust_5="14000.00000" pt_clust_6="31.40068"></scales>
<clustering>
<clus scale="   31.401">  1  6  2 -1</clus>
<clus scale="   36.335">  2  3  1 -1</clus>
<clus scale="   96.008">  2  4  1 -1</clus>
<clus scale="   31.401">  1  3  2 -1</clus>
</clustering>
</event>
<event>
 6    0  0.8777103E+002  0.1744277E+03  0.7546771E-02  0.1173308E+00
         21   -1    0    0  504  501  0.00000000000E+00  0.00000000000E+00  0.11047437587E+03  0.11047437587E+03  0.00000000000E+00 0.  1.
         21   -1    0    0  506  502 -0.00000000000E+00 -0.00000000000E+00 -0.21878584184E+04  0.21878584184E+04  0.00000000000E+00 0.  1.
         21    1    1    2  503  502 -0.21508640996E+02 -0.18574428547E+03 -0.14007702452E+03  0.23363461649E+03  0.00000000000E+00 0.  1.
         21    1    1    2  504  503 -0.12066724009E+01  0.47662547404E+02 -0.10245601634E+03  0.11300623774E+03  0.00000000000E+00 0.  1.
         21    1    1    2  505  501 -0.17714864733E+02 -0.30603502911E+02  0.48692624656E+02  0.60177757675E+02  0.00000000000E+00 0.  1.
         21    1    1    2  506  505  0.40430178130E+02  0.16868524098E+03 -0.18835436263E+04  0.18915141823E+04  0.00000000000E+00 0.  1.
<scales pt_clust_3="14000.00000" pt_clust_4="44.87390" pt_clust_5="35.36087" pt_clust_6="174.42768"></scales>
<clustering>
<clus scale="   35.361">  1  5  2 -1</clus>
<clus scale="   44.874">  1  4  2 -1</clus>
<clus scale="  174.428">  2  6  1 -1</clus>
<clus scale="   35.361">  1  3  2 -1</clus>
</clustering>
</event>
<event>
 6    0  0.8777103E+002  0.5540877E+02  0.7546771E-02  0.1418176E+00
         21   -1    0    0  503  501  0.00000000000E+00  0.00000000000E+00  0.31056642092E+03  0.31056642092E+03  0.00000000000E+00 0.  1.
         21   -1    0    0  505  502 -0.00000000000E+00 -0.00000000000E+00 -0.93590091021E+02  0.93590091021E+02  0.00000000000E+00 0.  1.
         21    1    1    2  503  502 -0.12200237644E+02  0.54657250962E+02 -0.36462507570E+02  0.66826456884E+02  0.00000000000E+00 0.  1.
         21    1    1    2  504  501  0.69527725813E+01  0.52405927434E+02  0.61009823616E+02  0.80727447962E+02  0.00000000000E+00 0.  1.
         21    1    1    2  505  506 -0.46685245818E+02 -0.58218436216E+02  0.32291707982E+02  0.81312071041E+02  0.00000000000E+00 0.  1.
         21    1    1    2  506  504  0.51932710881E+02 -0.48844742180E+02  0.16013730588E+03  0.17529053606E+03  0.00000000000E+00 0.  1.
<scales pt_clust_3="55.40877" pt_clust_4="52.86513" pt_clust_5="14000.00000" pt_clust_6="58.08814"></scales>
<clustering>
<clus scale="   52.865">  1  4  2 -1</clus>
<clus scale="   58.088">  1  6  2 -1</clus>
<clus scale="   55.409">  2  3  1 -1</clus>
<clus scale="   52.865">  1  3  2 -1</clus>
</clustering>
</event>
<event>
 6    0  0.8777103E+002  0.6641295E+02  0.7546771E-02  0.1372734E+00
         21   -1    0    0  504  501  0.00000000000E+00  0.00000000000E+00  0.84591866739E+03  0.84591866739E+03  0.00000000000E+00 0. -1.
         21   -1    0    0  503  502 -0.00000000000E+00 -0.00000000000E+00 -0.50376567625E+03  0.50376567625E+03  0.00000000000E+00 0. -1.
         21    1    1    2  503  506  0.87706617504E+02 -0.76666187414E+02 -0.44757378947E+03  0.46248508307E+03  0.00000000000E+00 0. -1.
         21    1    1    2  504  505 -0.32405278187E+02 -0.14266532660E+02  0.60264159358E+02  0.69895671623E+02  0.00000000000E+00 0. -1.
         21    1    1    2  505  502 -0.45841560930E+02  0.25638746340E+02 -0.26248654926E+02  0.58717849993E+02  0.00000000000E+00 0.  1.
         21    1    1    2  506  501 -0.94597783874E+01  0.65293973734E+02  0.75571127617E+03  0.75858573895E+03  0.00000000000E+00 0. -1.
<scales pt_clust_3="14000.00000" pt_clust_4="35.40672" pt_clust_5="52.97072" pt_clust_6="66.41295"></scales>
<clustering>
<clus scale="   35.407">  1  4  2 -1</clus>
<clus scale="   52.971">  2  5  1 -1</clus>
<clus scale="   66.413">  1  6  2 -1</clus>
<clus scale="   35.407">  1  3  2 -1</clus>
</clustering>
</event>
<event>
 6    0  0.8777103E+002  0.8278902E+02  0.7546771E-02  0.1321318E+00
         21   -1    0    0  504  501  0.00000000000E+00  0.00000000000E+00  0.23547399130E+03  0.23547399130E+03  0.00000000000E+00 0. -1.
         21   -1    0    0  503  502 -0.00000000000E+00 -0.00000000000E+00 -0.35418888678E+03  0.35418888678E+03  0.00000000000E+00 0.  1.
         21    1    1    2  503  506  0.22371762276E+02  0.20143241150E+02 -0.41243728321E+02  0.51061639586E+02  0.00000000000E+00 0. -1.
         21    1    1    2  504  505  0.16262258086E+02  0.75151208368E+02  0.91501561073E+02  0.11951862129E+03  0.00000000000E+00 0. -1.
         21    1    1    2  505  502 -0.81561677492E+02 -0.77848310026E+02 -0.27833701815E+03  0.30030678028E+03  0.00000000000E+00 0.  1.
         21    1    1    2  506  501  0.42927657130E+02 -0.17446139493E+02  0.10936428991E+03  0.11877583693E+03  0.00000000000E+00 0. -1.
<scales pt_clust_3="30.10392" pt_clust_4="14000.00000" pt_clust_5="82.78902" pt_clust_6="46.53997"></scales>
<clustering>
<clus scale="   30.104">  2  3  1 -1</clus>
<clus scale="   46.540">  1  6  2 -1</clus>
<clus scale="   82.789">  2  5  1 -1</clus>
<clus scale="   46.540">  1  3  2 -1</clus>
</clustering>
</event>
<event>
 6    0  0.8777103E+002  0.1296653E+03  0.7546771E-02  0.1227953E+00
         21   -1    0    0  503  501  0.00000000000E+00  0.00000000000E+00  0.48488168681E+02  0.48488168681E+02  0.00000000000E+00 0. -1.
         21   -1    0    0  504  502 -0.00000000000E+00 -0.00000000000E+00 -0.57737221077E+03  0.57737221077E+03  0.00000000000E+00 0. -1.
         21    1    1    2  503  506 -0.30987552325E+02  0.40749230532E+02 -0.18133473437E+03  0.18842243518E+03  0.00000000000E+00 0. -1.
         21    1    1    2  504  501  0.92734281683E+02 -0.71544217187E+02 -0.69179663265E+02  0.13602958436E+03  0.00000000000E+00 0. -1.
         21    1    1    2  505  502  0.10847766241E+02  0.38315736075E+02 -0.68792406925E+02  0.79486885170E+02  0.00000000000E+00 0. -1.
         21    1    1    2  506  505 -0.72594495600E+02 -0.75207494198E+01 -0.20957723753E+03  0.22192147475E+03  0.00000000000E+00 0. -1.
<scales pt_clust_3="57.72779" pt_clust_4="114.35260" pt_clust_5="39.82172" pt_clust_6="57.72779"></scales>
<clustering>
<clus scale="   39.822">  2  5  1 -1</clus>
<clus scale="   57.728">  3  6 -1 -1</clus>
<clus scale="  114.353">  1  4  2 -1</clus>
<clus scale="  114.353">  1  3  2 -1</clus>
</clustering>
</event>
<event>
 6    0  0.8777103E+002  0.8767511E+02  0.7546771E-02  0.1308581E+00
         21   -1    0    0  506  501  0.00000000000E+00  0.00000000000E+00  0.37162976993E+03  0.37162976993E+03  0.00000000000E+00 0. -1.
         21   -1    0    0  503  502 -0.00000000000E+00 -0.00000000000E+00 -0.22235733040E+03  0.22235733040E+03  0.00000000000E+00 0. -1.
         21    1    1    2  503  505 -0.38393287950E+02 -0.94476657545E+02 -0.68543372139E+02  0.12287423344E+03  0.00000000000E+00 0. -1.
         21    1    1    2  504  502 -0.29865874853E+02  0.18946581965E+02 -0.93756008077E+02  0.10020545145E+03  0.00000000000E+00 0.  1.
         21    1    1    2  505  501 -0.39035364728E+01  0.49607711734E+02  0.28567262525E+03  0.28997415657E+03  0.00000000000E+00 0. -1.
         21    1    1    2  506  504  0.72162699276E+02  0.25922363846E+02  0.25899194492E+02  0.80933258859E+02  0.00000000000E+00 0. -1.
<scales pt_clust_3="14000.00000" pt_clust_4="35.36868" pt_clust_5="50.12761" pt_clust_6="87.67511"></scales>
<clustering>
<clus scale="   35.369">  2  4  1 -1</clus>
<clus scale="   50.128">  1  5  2 -1</clus>
<clus scale="   87.675">  1  6  2 -1</clus>
<clus scale="   50.128">  1  3  2 -1</clus>
</clustering>
</event>
<event>
 6    0  0.8777103E+002  0.1387433E+03  0.7546771E-02  0.1215030E+00
         21   -1    0    0  503  501  0.00000000000E+00  0.00000000000E+00  0.61979912152E+03  0.61979912152E+03  0.00000000000E+00 0.  1.
         21   -1    0    0  506  502 -0.00000000000E+00 -0.00000000000E+00 -0.63239046389E+02  0.63239046389E+02  0.00000000000E+00 0.  1.
         21    1    1    2  503  502 -0.14598311710E+03 -0.29638604133E+02  0.42484047259E+03  0.45019878330E+03  0.00000000000E+00 0.  1.
         21    1    1    2  504  505  0.51256597627E+02  0.40600778467E+02  0.46274511704E+02  0.80106132386E+02  0.00000000000E+00 0.  1.
         21    1    1    2  505  501  0.30499993635E+02 -0.35265648868E+02  0.67002719389E+02  0.81628916490E+02  0.00000000000E+00 0.  1.
         21    1    1    2  506  504  0.64226525838E+02  0.24303474534E+02  0.18442371450E+02  0.71104335735E+02  0.00000000000E+00 0.  1.
<scales pt_clust_3="134.61905" pt_clust_4="32.76472" pt_clust_5="46.62527" pt_clust_6="32.76472"></scales>
<clustering>
<clus scale="   32.765">  4  6 -1 -1</clus>
<clus scale="   46.625">  1  5  2 -1</clus>
<clus scale="  134.619">  1  3  2 -1</clus>
<clus scale="   46.625">  1  3  2 -1</clus>
</clustering>
</event>
<event>
 6    0  0.8777103E+002  0.9610056E+02  0.7546771E-02  0.1288716E+00
         21   -1    0    0  506  501  0.00000000000E+00  0.00000000000E+00  0.85492297984E+02  0.85492297984E+02  0.00000000000E+00 0. -1.
         21   -1    0    0  505  502 -0.00000000000E+00 -0.00000000000E+00 -0.10438189801E+04  0.10438189801E+04  0.00000000000E+00 0.  1.
         21    1    1    2  503  502  0.74014062292E+02  0.11250399123E+03 -0.78148406398E+03  0.79300225203E+03  0.00000000000E+00 0.  1.
         21    1    1    2  504  501 -0.13375784887E+02 -0.72385272913E+02  0.43258286353E+02  0.85380435079E+02  0.00000000000E+00 0. -1.
         21    1    1    2  505  504 -0.19299712908E+02 -0.33855427753E+02 -0.20138410437E+03  0.20512002925E+03  0.00000000000E+00 0.  1.
         21    1    1    2  506  503 -0.41338564496E+02 -0.62632905630E+01 -0.18716800159E+02  0.45808561771E+02  0.00000000000E+00 0. -1.
<scales pt_clust_3="14000.00000" pt_clust_4="96.10056" pt_clust_5="38.97010" pt_clust_6="42.75353"></scales>
<clustering>
<clus scale="   38.970">  2  5  1 -1</clus>
<clus scale="   42.754">  1  6  2 -1</clus>
<clus scale="   96.101">  1  4  2 -1</clus>
<clus scale="   42.754">  1  3  2 -1</clus>
</clustering>
</event>
<event>
 6    0  0.8777103E+002  0.8804693E+02  0.7546771E-02  0.1307651E+00
         21   -1    0    0  504  501  0.00000000000E+00  0.00000000000E+00  0.48196666922E+03  0.48196666922E+03  0.00000000000E+00 0. -1.
         21   -1    0    0  505  502 -0.00000000000E+00 -0.00000000000E+00 -0.16216062676E+03  0.16216062676E+03  0.00000000000E+00 0.  1.
         21    1    1    2  503  501 -0.52948195800E+02 -0.66442128419E+02  0.31572263734E+03  0.32695389827E+03  0.00000000000E+00 0. -1.
         21    1    1    2  504  506 -0.30777748247E+02  0.34041731889E+02  0.11844732346E+03  0.12702707480E+03  0.00000000000E+00 0.  1.
         21    1    1    2  505  503  0.66586567932E+02  0.63693707587E+02 -0.12275741208E+03  0.15349280646E+03  0.00000000000E+00 0.  1.
         21    1    1    2  506  502  0.17139376114E+02 -0.31293311057E+02  0.83934937452E+01  0.36653516445E+02  0.00000000000E+00 0.  1.
<scales pt_clust_3="88.04693" pt_clust_4="44.88721" pt_clust_5="14000.00000" pt_clust_6="35.67954"></scales>
<clustering>
<clus scale="   35.680">  2  6  1 -1</clus>
<clus scale="   44.887">  1  4  2 -1</clus>
<clus scale="   88.047">  1  3  2 -1</clus>
<clus scale="   44.887">  1  3  2 -1</clus>
</clustering>
</event>
<event>
 6    0  0.8777103E+002  0.2284486E+03  0.7546771E-02  0.1127737E+00
         21   -1    0    0  503  501  0.00000000000E+00  0.00000000000E+00  0.16787860687E+04  0.16787860687E+04  0.00000000000E+00 0. -1.
         21   -1    0    0  506  502 -0.00000000000E+00 -0.00000000000E+00 -0.26846665995E+03  0.26846665995E+03  0.00000000000E+00 0. -1.
         21    1    1    2  503  504 -0.51695145667E+02  0.10479677012E+02  0.66624830477E+03  0.66833301230E+03  0.00000000000E+00 0. -1.
         21    1    1    2  504  505 -0.15165683731E+03 -0.52461869206E+02  0.88863312067E+03  0.90300657095E+03  0.00000000000E+00 0. -1.
         21    1    1    2  505  502 -0.21116084310E+02 -0.42706840024E+02 -0.12667116073E+03  0.13533420175E+03  0.00000000000E+00 0. -1.
         21    1    1    2  506  501  0.22446806729E+03  0.84689032217E+02 -0.17890855940E+02  0.24057894367E+03  0.00000000000E+00 0. -1.
<scales pt_clust_3="52.10677" pt_clust_4="52.10677" pt_clust_5="47.64203" pt_clust_6="209.40735"></scales>
<clustering>
<clus scale="   47.642">  2  5  1 -1</clus>
<clus scale="   52.107">  3  4 -1 -1</clus>
<clus scale="  209.407">  2  6  1 -1</clus>
<clus scale="  228.449">  1  3  2 -1</clus>
</clustering>
</event>
<event>
 6    0  0.8777103E+002  0.1210630E+03  0.7546771E-02  0.1241354E+00
         21   -1    0    0  504  501  0.00000000000E+00  0.00000000000E+00  0.43048704547E+03  0.43048704547E+03  0.00000000000E+00 0.  1.
         21   -1    0    0  506  502 -0.00000000000E+00 -0.00000000000E+00 -0.61791824442E+03  0.61791824442E+03  0.00000000000E+00 0. -1.
         21    1    1    2  503  501 -0.50683758575E+02 -0.29184473344E+02  0.37139284349E+03  0.37596970764E+03  0.00000000000E+00 0.  1.
         21    1    1    2  504  505 -0.16564341798E+02  0.68326020474E+02 -0.23097441125E+03  0.24143736485E+03  0.00000000000E+00 0. -1.
         21    1    1    2  505  502 -0.22401980867E+02  0.38244152847E+02 -0.30768839136E+03  0.31086429539E+03  0.00000000000E+00 0. -1.
         21    1    1    2  506  503  0.89650081240E+02 -0.77385699977E+02 -0.20161239837E+02  0.12013392202E+03  0.00000000000E+00 0.  1.
<scales pt_clust_3="58.48570" pt_clust_4="35.54339" pt_clust_5="35.54339" pt_clust_6="112.48247"></scales>
<clustering>
<clus scale="   35.543">  4  5 -1 -1</clus>
<clus scale="   58.486">  1  3  2 -1</clus>
<clus scale="  112.482">  1  6  2 -1</clus>
<clus scale="   58.486">  1  3  2 -1</clus>
</clustering>
</event>
<event>
 6    0  0.8777103E+002  0.9125111E+02  0.7546771E-02  0.1299850E+00
         21   -1    0    0  505  501  0.00000000000E+00  0.00000000000E+00  0.11582517948E+04  0.11582517948E+04  0.00000000000E+00 0.  1.
         21   -1    0    0  504  502 -0.00000000000E+00 -0.00000000000E+00 -0.69270592546E+03  0.69270592546E+03  0.00000000000E+00 0. -1.
         21    1    1    2  503  502  0.73185200834E+02 -0.86973970454E+02 -0.73892939860E+02  0.13557548347E+03  0.00000000000E+00 0. -1.
         21    1    1    2  504  506  0.20244475431E+02  0.36863014898E+02 -0.56243062709E+03  0.56400082530E+03  0.00000000000E+00 0. -1.
         21    1    1    2  505  503 -0.70043023597E+02 -0.15722609253E+02  0.10736277947E+04  0.10760250309E+04  0.00000000000E+00 0.  1.
         21    1    1    2  506  501 -0.23386652669E+02  0.65833564809E+02  0.28241641652E+02  0.75356380631E+02  0.00000000000E+00 0. -1.
<scales pt_clust_3="14000.00000" pt_clust_4="42.05616" pt_clust_5="71.52899" pt_clust_6="91.25111"></scales>
<clustering>
<clus scale="   42.056">  2  4  1 -1</clus>
<clus scale="   71.529">  1  5  2 -1</clus>
<clus scale="   91.251">  1  6  2 -1</clus>
<clus scale="   71.529">  1  3  2 -1</clus>
</clustering>
</event>
<event>
 6    0  0.8777103E+002  0.2393234E+03  0.7546771E-02  0.1120244E+00
         21   -1    0    0  505  501  0.00000000000E+00  0.00000000000E+00  0.14966921307E+04  0.14966921307E+04  0.00000000000E+00 0.  1.
         21   -1    0    0  506  502 -0.00000000000E+00 -0.00000000000E+00 -0.20217789483E+03  0.20217789483E+03  0.00000000000E+00 0.  1.
         21    1    1    2  503  501 -0.26955192551E+02 -0.88598722537E+02 -0.27515532467E+02  0.96609629787E+02  0.00000000000E+00 0.  1.
         21    1    1    2  504  502 -0.50340180446E+02  0.72969601376E+02  0.42837833044E+03  0.43745478679E+03  0.00000000000E+00 0.  1.
         21    1    1    2  505  504 -0.72740657587E+01  0.13226016743E+03  0.98523166570E+03  0.99409612162E+03  0.00000000000E+00 0.  1.
         21    1    1    2  506  503  0.84569438756E+02 -0.11663104627E+03 -0.91580227836E+02  0.17070948731E+03  0.00000000000E+00 0.  1.
<scales pt_clust_3="87.23030" pt_clust_4="61.25288" pt_clust_5="225.93092" pt_clust_6="87.23030"></scales>
<clustering>
<clus scale="   61.253">  4  5 -1 -1</clus>
<clus scale="   87.230">  3  6 -1 -1</clus>
<clus scale="  225.931">  1  4  2 -1</clus>
<clus scale="  225.931">  1  3  2 -1</clus>
</clustering>
</event>
<event>
 6    0  0.8777103E+002  0.1180846E+03  0.7546771E-02  0.1246291E+00
         21   -1    0    0  506  501  0.00000000000E+00  0.00000000000E+00  0.79663749513E+03  0.79663749513E+03  0.00000000000E+00 0. -1.
         21   -1    0    0  504  502 -0.00000000000E+00 -0.00000000000E+00 -0.68285560813E+03  0.68285560813E+03  0.00000000000E+00 0.  1.
         21    1    1    2  503  501 -0.60340804081E+02 -0.30260468007E+02  0.87772850131E+02  0.11072841452E+03  0.00000000000E+00 0. -1.
         21    1    1    2  504  503  0.10807721097E+03  0.64693297120E+02 -0.61103012372E+03  0.62387796749E+03  0.00000000000E+00 0.  1.
         21    1    1    2  505  502 -0.79065774834E+02 -0.22021488567E+02 -0.22011122423E+02  0.84975480105E+02  0.00000000000E+00 0.  1.
         21    1    1    2  506  505  0.31329367946E+02 -0.12411340546E+02  0.65905028300E+03  0.65991124115E+03  0.00000000000E+00 0. -1.
<scales pt_clust_3="54.39609" pt_clust_4="118.08460" pt_clust_5="14000.00000" pt_clust_6="33.69823"></scales>
<clustering>
<clus scale="   33.698">  1  6  2 -1</clus>
<clus scale="   54.396">  1  3  2 -1</clus>
<clus scale="  118.085">  2  4  1 -1</clus>
<clus scale="   33.698">  1  3  2 -1</clus>
</clustering>
</event>
<event>
 6    0  0.8777103E+002  0.8789632E+02  0.7546771E-02  0.1308028E+00
         21   -1    0    0  503  501  0.00000000000E+00  0.00000000000E+00  0.48166054176E+02  0.48166054176E+02  0.00000000000E+00 0. -1.
         21   -1    0    0  505  502 -0.00000000000E+00 -0.00000000000E+00 -0.98761796986E+03  0.98761796986E+03  0.00000000000E+00 0. -1.
         21    1    1    2  503  504  0.34496829826E+02  0.36173607143E+02  0.12256666862E+02  0.51466367701E+02  0.00000000000E+00 0. -1.
         21    1    1    2  504  506 -0.95745016647E+02 -0.29618827390E+02 -0.31288545506E+03  0.32854480842E+03  0.00000000000E+00 0. -1.
         21    1    1    2  505  501 -0.22252015295E+02  0.22497786175E+02 -0.42794323076E+02  0.53222708077E+02  0.00000000000E+00 0. -1.
         21    1    1    2  506  502  0.83500202116E+02 -0.29052565927E+02 -0.59602880441E+03  0.60255013984E+03  0.00000000000E+00 0. -1.
<scales pt_clust_3="55.83981" pt_clust_4="14000.00000" pt_clust_5="31.64337" pt_clust_6="87.89632"></scales>
<clustering>
<clus scale="   31.643">  1  5  2 -1</clus>
<clus scale="   55.840">  1  3  2 -1</clus>
<clus scale="   87.896">  2  6  1 -1</clus>
<clus scale="   31.643">  1  3  2 -1</clus>
</clustering>
</event>
<event>
 6    0  0.8777103E+002  0.9963951E+02  0.7546771E-02  0.1281056E+00
         21   -1    0    0  503  501  0.00000000000E+00  0.00000000000E+00  0.64166784149E+03  0.64166784149E+03  0.00000000000E+00 0.  1.
         21   -1    0    0  506  502 -0.00000000000E+00 -0.00000000000E+00 -0.10857846056E+03  0.10857846056E+03  0.00000000000E+00 0.  1.
         21    1    1    2  503  504  0.44190431713E+02  0.26626104870E+02  0.34166440138E+03  0.34553770690E+03  0.00000000000E+00 0.  1.
         21    1    1    2  504  505  0.58941604936E+02 -0.56791790477E+02  0.22389791831E+03  0.23838980280E+03  0.00000000000E+00 0.  1.
         21    1    1    2  505  502 -0.24553577958E+02 -0.44283926485E+02  0.69640225449E+01  0.51112052839E+02  0.00000000000E+00 0.  1.
         21    1    1    2  506  501 -0.78578458692E+02  0.74449612091E+02 -0.39436961301E+02  0.11520673951E+03  0.00000000000E+00 0.  1.
<scales pt_clust_3="50.61275" pt_clust_4="14000.00000" pt_clust_5="50.63541" pt_clust_6="99.63951"></scales>
<clustering>
<clus scale="   50.635">  2  5  1 -1</clus>
<clus scale="   50.613">  1  3  2 -1</clus>
<clus scale="   99.640">  2  6  1 -1</clus>
<clus scale="   50.613">  1  3  2 -1</clus>
</clustering>
</event>
<event>
 6    0  0.8777103E+002  0.1269926E+03  0.7546771E-02  0.1231988E+00
         21   -1    0    0  505  501  0.00000000000E+00  0.00000000000E+00  0.12754499132E+03  0.12754499132E+03  0.00000000000E+00 0.  1.
         21   -1    0    0  504  502 -0.00000000000E+00 -0.00000000000E+00 -0.83903211338E+03  0.83903211338E+03  0.00000000000E+00 0. -1.
         21    1    1    2  503  502  0.21339068622E+02  0.36368367872E+02 -0.15688545909E+03  0.16245325883E+03  0.00000000000E+00 0. -1.
         21    1    1    2  504  501 -0.36655105773E+02 -0.83106412538E+01  0.89991127454E+01  0.38647736900E+02  0.00000000000E+00 0.  1.
         21    1    1    2  505  506 -0.27616104395E+02  0.11705411396E+03  0.52379800732E+02  0.13117910787E+03  0.00000000000E+00 0.  1.
         21    1    1    2  506  503  0.42932141546E+02 -0.14511184058E+03 -0.61598057644E+03  0.63429700110E+03  0.00000000000E+00 0. -1.
<scales pt_clust_3="41.48276" pt_clust_4="37.58542" pt_clust_5="126.99262" pt_clust_6="14000.00000"></scales>
<clustering>
<clus scale="   37.585">  1  4  2 -1</clus>
<clus scale="   41.483">  2  3  1 -1</clus>
<clus scale="  126.993">  1  5  2 -1</clus>
<clus scale="   37.585">  1  3  2 -1</clus>
</clustering>
</event>
<event>
 6    0  0.8777103E+002  0.9251921E+02  0.7546771E-02  0.1296863E+00
         21   -1    0    0  506  501  0.00000000000E+00  0.00000000000E+00  0.14287379163E+03  0.14287379163E+03  0.00000000000E+00 0.  1.
         21   -1    0    0  505  502 -0.00000000000E+00 -0.00000000000E+00 -0.38152305678E+03  0.38152305678E+03  0.00000000000E+00 0.  1.
         21    1    1    2  503  501 -0.21479271367E+02 -0.63189438314E+02  0.11043675110E+01  0.66749410788E+02  0.00000000000E+00 0. -1.
         21    1    1    2  504  503  0.50776572280E+02 -0.26559983823E+02 -0.88747225464E+02  0.10563977973E+03  0.00000000000E+00 0.  1.
         21    1    1    2  505  504 -0.12457898400E+02 -0.43472671942E+02 -0.20302610414E+03  0.20800161394E+03  0.00000000000E+00 0.  1.
         21    1    1    2  506  502 -0.16839402512E+02  0.13322209408E+03  0.52019696939E+02  0.14400604396E+03  0.00000000000E+00 0.  1.
<scales pt_clust_3="14000.00000" pt_clust_4="66.96176" pt_clust_5="45.22248" pt_clust_6="92.51921"></scales>
<clustering>
<clus scale="   45.222">  2  5  1 -1</clus>
<clus scale="   66.962">  2  4  1 -1</clus>
<clus scale="   92.519">  2  6  1 -1</clus>
<clus scale="   92.519">  1  3  2 -1</clus>
</clustering>
</event>
<event>
 6    0  0.8777103E+002  0.9929859E+02  0.7546771E-02  0.1281778E+00
         21   -1    0    0  504  501  0.00000000000E+00  0.00000000000E+00  0.80446519315E+03  0.80446519315E+03  0.00000000000E+00 0. -1.
         21   -1    0    0  505  502 -0.00000000000E+00 -0.00000000000E+00 -0.41716414388E+03  0.41716414388E+03  0.00000000000E+00 0.  1.
         21    1    1    2  503  502 -0.11715150145E+03 -0.25067893365E+02  0.49293258905E+01  0.11990484487E+03  0.00000000000E+00 0. -1.
         21    1    1    2  504  506  0.56849750126E+02 -0.30352840531E+02  0.10642839503E+03  0.12441942086E+03  0.00000000000E+00 0.  1.
         21    1    1    2  505  501  0.41326581261E+02 -0.40694324338E+02 -0.34441197256E+03  0.34926139379E+03  0.00000000000E+00 0.  1.
         21    1    1    2  506  503  0.18975170063E+02  0.96115058234E+02  0.62035530091E+03  0.62804367751E+03  0.00000000000E+00 0. -1.
<scales pt_clust_3="99.29859" pt_clust_4="71.59070" pt_clust_5="57.99926" pt_clust_6="14000.00000"></scales>
<clustering>
<clus scale="   57.999">  2  5  1 -1</clus>
<clus scale="   71.591">  1  4  2 -1</clus>
<clus scale="   99.299">  2  3  1 -1</clus>
<clus scale="   71.591">  1  3  2 -1</clus>
</clustering>
</event>
<event>
 6    0  0.8777103E+002  0.1106707E+03  0.7546771E-02  0.1259333E+00
         21   -1    0    0  503  501  0.00000000000E+00  0.00000000000E+00  0.16026071646E+04  0.16026071646E+04  0.00000000000E+00 0. -1.
         21   -1    0    0  505  502 -0.00000000000E+00 -0.00000000000E+00 -0.11713445205E+04  0.11713445205E+04  0.00000000000E+00 0. -1.
         21    1    1    2  503  504 -0.63536957598E+02  0.47435760447E+02 -0.13701907238E+03  0.15830768316E+03  0.00000000000E+00 0. -1.
         21    1    1    2  504  502 -0.69018998932E+02  0.13604596807E+02 -0.38235835167E+03  0.38877579189E+03  0.00000000000E+00 0. -1.
         21    1    1    2  505  506  0.68678559412E+02  0.29904017367E+02 -0.63396283640E+03  0.63837283206E+03  0.00000000000E+00 0. -1.
         21    1    1    2  506  501  0.63877397118E+02 -0.90944374621E+02  0.15846029045E+04  0.15884953781E+04  0.00000000000E+00 0. -1.
<scales pt_clust_3="14000.00000" pt_clust_4="70.34705" pt_clust_5="42.87383" pt_clust_6="110.67072"></scales>
<clustering>
<clus scale="   70.347">  2  4  1 -1</clus>
<clus scale="   42.874">  2  5  1 -1</clus>
<clus scale="  110.671">  1  6  2 -1</clus>
<clus scale="  110.671">  1  3  2 -1</clus>
</clustering>
</event>
<event>
 6    0  0.8777103E+002  0.7568661E+02  0.7546771E-02  0.1341758E+00
         21   -1    0    0  505  501  0.00000000000E+00  0.00000000000E+00  0.47514471073E+02  0.47514471073E+02  0.00000000000E+00 0. -1.
         21   -1    0    0  504  502 -0.00000000000E+00 -0.00000000000E+00 -0.10234305583E+04  0.10234305583E+04  0.00000000000E+00 0. -1.
         21    1    1    2  503  501  0.37618271966E+02  0.23241911810E+02  0.93643875451E+01  0.45199696950E+02  0.00000000000E+00 0. -1.
         21    1    1    2  504  503  0.82742031536E+02 -0.63016980346E+02 -0.37712321592E+03  0.39120238187E+03  0.00000000000E+00 0. -1.
         21    1    1    2  505  506 -0.51870890279E+02  0.28616852096E+02 -0.69016801048E+02  0.90955111506E+02  0.00000000000E+00 0. -1.
         21    1    1    2  506  502 -0.68489413224E+02  0.11158216440E+02 -0.53914045776E+03  0.54358783900E+03  0.00000000000E+00 0. -1.
<scales pt_clust_3="44.21901" pt_clust_4="14000.00000" pt_clust_5="51.86158" pt_clust_6="75.68661"></scales>
<clustering>
<clus scale="   44.219">  1  3  2 -1</clus>
<clus scale="   51.862">  1  5  2 -1</clus>
<clus scale="   75.687">  2  6  1 -1</clus>
<clus scale="   44.219">  1  3  2 -1</clus>
</clustering>
</event>
<event>
 6    0  0.8777103E+002  0.1284318E+03  0.7546771E-02  0.1229801E+00
         21   -1    0    0  506  501  0.00000000000E+00  0.00000000000E+00  0.52890858603E+03  0.52890858603E+03  0.00000000000E+00 0. -1.
         21   -1    0    0  503  502 -0.00000000000E+00 -0.00000000000E+00 -0.18231829720E+03  0.18231829720E+03  0.00000000000E+00 0.  1.
         21    1    1    2  503  504  0.40767642466E+02 -0.39305453765E+02 -0.99867850376E+02  0.11480638879E+03  0.00000000000E+00 0.  1.
         21    1    1    2  504  505 -0.35077561123E+02 -0.10959035176E+03  0.19101853856E+03  0.22299901920E+03  0.00000000000E+00 0. -1.
         21    1    1    2  505  501 -0.38059476136E+02  0.23615634755E+01  0.21451016264E+03  0.21787315251E+03  0.00000000000E+00 0. -1.
         21    1    1    2  506  502  0.32369394793E+02  0.14653424205E+03  0.40929438008E+02  0.15554832274E+03  0.00000000000E+00 0. -1.
<scales pt_clust_3="55.93921" pt_clust_4="14000.00000" pt_clust_5="38.13267" pt_clust_6="128.43178"></scales>
<clustering>
<clus scale="   38.133">  1  5  2 -1</clus>
<clus scale="   55.939">  2  3  1 -1</clus>
<clus scale="  128.432">  2  6  1 -1</clus>
<clus scale="   38.133">  1  3  2 -1</clus>
</clustering>
</event>
<event>
 6    0  0.8777103E+002  0.8016386E+02  0.7546771E-02  0.1328587E+00
         21   -1    0    0  504  501  0.00000000000E+00  0.00000000000E+00  0.59258172346E+03  0.59258172346E+03  0.00000000000E+00 0. -1.
         21   -1    0    0  505  502 -0.00000000000E+00 -0.00000000000E+00 -0.87751618761E+03  0.87751618761E+03  0.00000000000E+00 0. -1.
         21    1    1    2  503  501 -0.22025563015E+02  0.42117366182E+02  0.47009453665E+03  0.47249113362E+03  0.00000000000E+00 0. -1.
         21    1    1    2  504  506  0.11667342478E+02  0.38150620273E+02  0.10161487650E+03  0.10916583639E+03  0.00000000000E+00 0. -1.
         21    1    1    2  505  503  0.60926466425E+02 -0.11454531122E+03 -0.77857331088E+03  0.78930923157E+03  0.00000000000E+00 0. -1.
         21    1    1    2  506  502 -0.50568245888E+02  0.34277324761E+02 -0.78070566431E+02  0.99131709498E+02  0.00000000000E+00 0. -1.
<scales pt_clust_3="14000.00000" pt_clust_4="39.89482" pt_clust_5="80.16386" pt_clust_6="61.35024"></scales>
<clustering>
<clus scale="   39.895">  1  4  2 -1</clus>
<clus scale="   61.350">  2  6  1 -1</clus>
<clus scale="   80.164">  2  5  1 -1</clus>
<clus scale="   39.895">  1  3  2 -1</clus>
</clustering>
</event>
<event>
 6    0  0.8777103E+002  0.1260150E+03  0.7546771E-02  0.1233492E+00
         21   -1    0    0  503  501  0.00000000000E+00  0.00000000000E+00  0.58994246321E+02  0.58994246321E+02  0.00000000000E+00 0.  1.
         21   -1    0    0  506  502 -0.00000000000E+00 -0.00000000000E+00 -0.66414078340E+03  0.66414078340E+03  0.00000000000E+00 0.  1.
         21    1    1    2  503  504 -0.12552158635E+03  0.61413813318E+02 -0.24958559152E+03  0.28604246642E+03  0.00000000000E+00 0.  1.
         21    1    1    2  504  502  0.26569864488E+02 -0.19230888606E+02 -0.20961103257E+03  0.21216165947E+03  0.00000000000E+00 0.  1.
         21    1    1    2  505  501 -0.25994666657E+02 -0.18879901659E+02 -0.99258118018E+00  0.32142784550E+02  0.00000000000E+00 0.  1.
         21    1    1    2  506  505  0.12494638851E+03 -0.23303023053E+02 -0.14495733181E+03  0.19278811927E+03  0.00000000000E+00 0.  1.
<scales pt_clust_3="14000.00000" pt_clust_4="32.51816" pt_clust_5="32.12746" pt_clust_6="126.01496"></scales>
<clustering>
<clus scale="   32.127">  1  5  2 -1</clus>
<clus scale="   32.518">  2  4  1 -1</clus>
<clus scale="  126.015">  1  6  2 -1</clus>
<clus scale="   32.127">  1  3  2 -1</clus>
</clustering>
</event>
<event>
 6    0  0.8777103E+002  0.1784896E+03  0.7546771E-02  0.1169273E+00
         21   -1    0    0  506  501  0.00000000000E+00  0.00000000000E+00  0.27748556664E+04  0.27748556664E+04  0.00000000000E+00 0. -1.
         21   -1    0    0  505  502 -0.00000000000E+00 -0.00000000000E+00 -0.45557165048E+03  0.45557165048E+03  0.00000000000E+00 0. -1.
         21    1    1    2  503  504  0.11983150194E+03 -0.17024008773E+03  0.10614454751E+04  0.10816689757E+04  0.00000000000E+00 0. -1.
         21    1    1    2  504  502 -0.96909481257E+02  0.12092080140E+03  0.46398405229E+03  0.48917735899E+03  0.00000000000E+00 0. -1.
         21    1    1    2  505  501  0.16456271321E+02  0.39402711781E+02 -0.43147298807E+03  0.43358081369E+03  0.00000000000E+00 0. -1.
         21    1    1    2  506  503 -0.39378292002E+02  0.99165745509E+01  0.12253274766E+04  0.12260001685E+04  0.00000000000E+00 0. -1.
<scales pt_clust_3="178.48964" pt_clust_4="14000.00000" pt_clust_5="42.69699" pt_clust_6="40.60774"></scales>
<clustering>
<clus scale="   40.608">  1  6  2 -1</clus>
<clus scale="   42.697">  2  5  1 -1</clus>
<clus scale="  178.490">  1  3  2 -1</clus>
<clus scale="   40.608">  1  3  2 -1</clus>
</clustering>
</event>
<event>
 6    0  0.8777103E+002  0.7584034E+02  0.7546771E-02  0.1341288E+00
         21   -1    0    0  503  501  0.00000000000E+00  0.00000000000E+00  0.49186282516E+03  0.49186282516E+03  0.00000000000E+00 0.  1.
         21   -1    0    0  504  502 -0.00000000000E+00 -0.00000000000E+00 -0.16332421812E+03  0.16332421812E+03  0.00000000000E+00 0. -1.
         21    1    1    2  503  505 -0.68622981144E+02  0.22432444825E+02  0.31013768014E+03  0.31843006888E+03  0.00000000000E+00 0.  1.
         21    1    1    2  504  506 -0.40336546481E+02 -0.58243696290E+02 -0.74864190566E+01  0.71241923120E+02  0.00000000000E+00 0.  1.
         21    1    1    2  505  502  0.83920656946E+02  0.16237058258E+02 -0.10237844616E+03  0.13337040512E+03  0.00000000000E+00 0. -1.
         21    1    1    2  506  501  0.25038870679E+02  0.19574193207E+02  0.12826579211E+03  0.13214464616E+03  0.00000000000E+00 0.  1.
<scales pt_clust_3="61.25317" pt_clust_4="75.84034" pt_clust_5="14000.00000" pt_clust_6="31.78198"></scales>
<clustering>
<clus scale="   31.782">  1  6  2 -1</clus>
<clus scale="   61.253">  1  3  2 -1</clus>
<clus scale="   75.840">  1  4  2 -1</clus>
<clus scale="   31.782">  1  3  2 -1</clus>
</clustering>
</event>
<event>
 6    0  0.8777103E+002  0.1192237E+03  0.7546771E-02  0.1244383E+00
         21   -1    0    0  504  501  0.00000000000E+00  0.00000000000E+00  0.41203109941E+03  0.41203109941E+03  0.00000000000E+00 0.  1.
         21   -1    0    0  505  502 -0.00000000000E+00 -0.00000000000E+00 -0.48366038971E+02  0.48366038971E+02  0.00000000000E+00 0.  1.
         21    1    1    2  503  501  0.87777644433E+01  0.43851942019E+02  0.71853663673E+02  0.84634454867E+02  0.00000000000E+00 0.  1.
         21    1    1    2  504  502 -0.10727568334E+03 -0.54136483670E+02  0.15581599081E+03  0.19676751279E+03  0.00000000000E+00 0.  1.
         21    1    1    2  505  506  0.36486031811E+02 -0.19040479840E+02  0.23943086314E+02  0.47613462089E+02  0.00000000000E+00 0.  1.
         21    1    1    2  506  503  0.62011887083E+02  0.29325021491E+02  0.11205231965E+03  0.13138170863E+03  0.00000000000E+00 0.  1.
<scales pt_clust_3="40.17390" pt_clust_4="108.34559" pt_clust_5="41.15544" pt_clust_6="40.17390"></scales>
<clustering>
<clus scale="   40.174">  3  6 -1 -1</clus>
<clus scale="   41.155">  2  5  1 -1</clus>
<clus scale="  108.346">  2  4  1 -1</clus>
<clus scale="  119.224">  1  3  2 -1</clus>
</clustering>
</event>
<event>
 6    0  0.8777103E+002  0.1207485E+03  0.7546771E-02  0.1241867E+00
         21   -1    0    0  505  501  0.00000000000E+00  0.00000000000E+00  0.86448635243E+03  0.86448635243E+03  0.00000000000E+00 0. -1.
         21   -1    0    0  503  502 -0.00000000000E+00 -0.00000000000E+00 -0.76613729535E+02  0.76613729535E+02  0.00000000000E+00 0. -1.
         21    1    1    2  503  504  0.46502486626E+02 -0.12428059990E+02  0.18305449254E+02  0.51497838885E+02  0.00000000000E+00 0. -1.
         21    1    1    2  504  501  0.61808735984E+02  0.10422531203E+03  0.18696925449E+03  0.22280201443E+03  0.00000000000E+00 0. -1.
         21    1    1    2  505  506 -0.17489234432E+02 -0.12190095452E+03  0.55314609599E+03  0.56668890897E+03  0.00000000000E+00 0. -1.
         21    1    1    2  506  502 -0.90821988178E+02  0.30103702482E+02  0.29451823157E+02  0.10011131967E+03  0.00000000000E+00 0. -1.
<scales pt_clust_3="48.13458" pt_clust_4="14000.00000" pt_clust_5="120.74855" pt_clust_6="67.41610"></scales>
<clustering>
<clus scale="   48.135">  2  3  1 -1</clus>
<clus scale="   67.416">  2  6  1 -1</clus>
<clus scale="  120.749">  1  5  2 -1</clus>
<clus scale="  120.749">  1  3  2 -1</clus>
</clustering>
</event>
<event>
 6    0  0.8777103E+002  0.2344354E+03  0.7546771E-02  0.1123556E+00
         21   -1    0    0  504  501  0.00000000000E+00  0.00000000000E+00  0.17624575884E+04  0.17624575884E+04  0.00000000000E+00 0. -1.
         21   -1    0    0  506  502 -0.00000000000E+00 -0.00000000000E+00 -0.19665134539E+03  0.19665134539E+03  0.00000000000E+00 0.  1.
         21    1    1    2  503  502  0.12666704120E+02 -0.55586986926E+02 -0.11063704377E+03  0.12446250023E+03  0.00000000000E+00 0.  1.
         21    1    1    2  504  503  0.29292512632E+02 -0.77876356429E+02  0.17777848227E+03  0.19628542214E+03  0.00000000000E+00 0. -1.
         21    1    1    2  505  501  0.84784432810E+02  0.28746521547E+03  0.13667699333E+04  0.13992443320E+04  0.00000000000E+00 0. -1.
         21    1    1    2  506  505 -0.12674364956E+03 -0.15400187211E+03  0.13189487123E+03  0.23911667942E+03  0.00000000000E+00 0.  1.
<scales pt_clust_3="57.01192" pt_clust_4="89.81581" pt_clust_5="234.43535" pt_clust_6="14000.00000"></scales>
<clustering>
<clus scale="   57.012">  2  3  1 -1</clus>
<clus scale="   89.816">  1  4  2 -1</clus>
<clus scale="  234.435">  1  5  2 -1</clus>
<clus scale="   89.816">  1  3  2 -1</clus>
</clustering>
</event>
<event>
 6    0  0.8777103E+002  0.7371497E+02  0.7546771E-02  0.1347897E+00
         21   -1    0    0  503  501  0.00000000000E+00  0.00000000000E+00  0.17807847061E+04  0.17807847061E+04  0.00000000000E+00 0.  1.
         21   -1    0    0  506  502 -0.00000000000E+00 -0.00000000000E+00 -0.11554818993E+03  0.11554818993E+03  0.00000000000E+00 0.  1.
         21    1    1    2  503  502 -0.41501059030E+01  0.34963393769E+02  0.16833612550E+03  0.17197881681E+03  0.00000000000E+00 0.  1.
         21    1    1    2  504  505  0.28936389291E+02 -0.83025944327E+02 -0.16825136127E+02  0.89519312231E+02  0.00000000000E+00 0.  1.
         21    1    1    2  505  501  0.49716452079E+02  0.24179292339E+02  0.15483083758E+04  0.15492950624E+04  0.00000000000E+00 0.  1.
         21    1    1    2  506  504 -0.74502735467E+02  0.23883258220E+02 -0.34582849016E+02  0.85539704590E+02  0.00000000000E+00 0.  1.
<scales pt_clust_3="35.20884" pt_clust_4="73.71497" pt_clust_5="73.70036" pt_clust_6="14000.00000"></scales>
<clustering>
<clus scale="   35.209">  1  3  2 -1</clus>
<clus scale="   73.700">  1  5  2 -1</clus>
<clus scale="   73.715">  1  4  2 -1</clus>
<clus scale="   35.209">  1  3  2 -1</clus>
</clustering>
</event>
<event>
 6    0  0.8777103E+002  0.1301486E+03  0.7546771E-02  0.1227235E+00
         21   -1    0    0  504  501  0.00000000000E+00  0.00000000000E+00  0.20924386294E+04  0.20924386294E+04  0.00000000000E+00 0.  1.
         21   -1    0    0  505  502 -0.00000000000E+00 -0.00000000000E+00 -0.59425237316E+02  0.59425237316E+02  0.00000000000E+00 0. -1.
         21    1    1    2  503  502  0.80749205063E+02 -0.63105180393E+02  0.22588876561E+03  0.24804925386E+03  0.00000000000E+00 0. -1.
         21    1    1    2  504  503  0.36863530521E+02  0.21189442329E+02  0.17574864857E+04  0.17580007564E+04  0.00000000000E+00 0.  1.
         21    1    1    2  505  506 -0.53247926321E+02 -0.10000060439E+02  0.15507303393E+02  0.56354408211E+02  0.00000000000E+00 0. -1.
         21    1    1    2  506  501 -0.64364809263E+02  0.51915798503E+02  0.34130837370E+02  0.89459448161E+02  0.00000000000E+00 0. -1.
<scales pt_clust_3="117.17769" pt_clust_4="42.51955" pt_clust_5="44.67742" pt_clust_6="44.67742"></scales>
<clustering>
<clus scale="   42.520">  1  4  2 -1</clus>
<clus scale="   44.677">  5  6 -1 -1</clus>
<clus scale="  117.178">  1  3  2 -1</clus>
<clus scale="   42.520">  1  3  2 -1</clus>
</clustering>
</event>
<event>
 6    0  0.8777103E+002  0.1204181E+03  0.7546771E-02  0.1242409E+00
         21   -1    0    0  503  501  0.00000000000E+00  0.00000000000E+00  0.17962374166E+03  0.17962374166E+03  0.00000000000E+00 0.  1.
         21   -1    0    0  506  502 -0.00000000000E+00 -0.00000000000E+00 -0.49760890422E+03  0.49760890422E+03  0.00000000000E+00 0.  1.
         21    1    1    2  503  505  0.28325675588E+02  0.19484453113E+02  0.34574839462E+02  0.48758664199E+02  0.00000000000E+00 0. -1.
         21    1    1    2  504  502  0.67777068116E+02 -0.14491854238E+03 -0.21719536636E+03  0.26975719092E+03  0.00000000000E+00 0.  1.
         21    1    1    2  505  504 -0.43732004059E+02  0.35963015870E+02  0.92456776448E+02  0.10841624510E+03  0.00000000000E+00 0.  1.
         21    1    1    2  506  501 -0.52370739646E+02  0.89471073393E+02 -0.22782141211E+03  0.25030054567E+03  0.00000000000E+00 0.  1.
<scales pt_clust_3="34.38005" pt_clust_4="120.41812" pt_clust_5="55.21706" pt_clust_6="14000.00000"></scales>
<clustering>
<clus scale="   34.380">  1  3  2 -1</clus>
<clus scale="   55.217">  1  5  2 -1</clus>
<clus scale="  120.418">  1  4  2 -1</clus>
<clus scale="   34.380">  1  3  2 -1</clus>
</clustering>
</event>
<event>
 6    0  0.8777103E+002  0.8862961E+02  0.7546771E-02  0.1306205E+00
         21   -1    0    0  506  501  0.00000000000E+00  0.00000000000E+00  0.15524336742E+03  0.15524336742E+03  0.00000000000E+00 0. -1.
         21   -1    0    0  505  502 -0.00000000000E+00 -0.00000000000E+00 -0.74895351886E+03  0.74895351886E+03  0.00000000000E+00 0.  1.
         21    1    1    2  503  501 -0.19223562362E+02 -0.10997594745E+03 -0.42313289930E+02  0.11939291802E+03  0.00000000000E+00 0. -1.
         21    1    1    2  504  503 -0.34938506125E+02  0.15964594031E+02 -0.26186466723E+03  0.26466709546E+03  0.00000000000E+00 0.  1.
         21    1    1    2  505  504 -0.12494534926E+02  0.36461081500E+02 -0.38692148300E+03  0.38883641532E+03  0.00000000000E+00 0.  1.
         21    1    1    2  506  502  0.66656603413E+02  0.57550271921E+02  0.97389288726E+02  0.13130045748E+03  0.00000000000E+00 0. -1.
<scales pt_clust_3="14000.00000" pt_clust_4="33.78138" pt_clust_5="78.37965" pt_clust_6="88.62961"></scales>
<clustering>
<clus scale="   33.781">  4  5 -1 -1</clus>
<clus scale="   78.380">  2  4  1 -1</clus>
<clus scale="   88.630">  1  6  2 -1</clus>
<clus scale="   88.630">  1  3  2 -1</clus>
</clustering>
</event>
<event>
 6    0  0.8777103E+002  0.1193652E+03  0.7546771E-02  0.1244148E+00
         21   -1    0    0  506  501  0.00000000000E+00  0.00000000000E+00  0.32872160255E+03  0.32872160255E+03  0.00000000000E+00 0.  1.
         21   -1    0    0  505  502 -0.00000000000E+00 -0.00000000000E+00 -0.95934225046E+03  0.95934225046E+03  0.00000000000E+00 0. -1.
         21    1    1    2  503  502  0.77179708413E+02  0.13793321831E+03 -0.47238945106E+03  0.49813057884E+03  0.00000000000E+00 0. -1.
         21    1    1    2  504  503 -0.29170024922E+02 -0.96444121863E+02  0.14785733034E+03  0.17892498185E+03  0.00000000000E+00 0.  1.
         21    1    1    2  505  501 -0.85976711011E+02 -0.17216542219E+02 -0.45090048041E+03  0.45934697931E+03  0.00000000000E+00 0. -1.
         21    1    1    2  506  504  0.37967027521E+02 -0.24272554230E+02  0.14481195322E+03  0.15166131301E+03  0.00000000000E+00 0.  1.
<scales pt_clust_3="14000.00000" pt_clust_4="119.36521" pt_clust_5="86.92703" pt_clust_6="45.06276"></scales>
<clustering>
<clus scale="   45.063">  1  6  2 -1</clus>
<clus scale="   86.927">  2  5  1 -1</clus>
<clus scale="  119.365">  1  4  2 -1</clus>
<clus scale="   45.063">  1  3  2 -1</clus>
</clustering>
</event>
<event>
 6    0  0.8777103E+002  0.1009542E+03  0.7546771E-02  0.1278302E+00
         21   -1    0    0  504  501  0.00000000000E+00  0.00000000000E+00  0.41553039329E+03  0.41553039329E+03  0.00000000000E+00 0. -1.
         21   -1    0    0  506  502 -0.00000000000E+00 -0.00000000000E+00 -0.30655048752E+03  0.30655048752E+03  0.00000000000E+00 0. -1.
         21    1    1    2  503  501  0.17825097867E+02  0.31246729064E+02  0.26405189965E+03  0.26649108409E+03  0.00000000000E+00 0. -1.
         21    1    1    2  504  505  0.18612709697E+02 -0.10730157822E+03 -0.16392493646E+03  0.19680306513E+03  0.00000000000E+00 0. -1.
         21    1    1    2  505  502 -0.68061881211E+02  0.96575170803E+01 -0.10365234977E+03  0.12437643234E+03  0.00000000000E+00 0. -1.
         21    1    1    2  506  503  0.31624073647E+02  0.66397332072E+02  0.11250529235E+03  0.13441029926E+03  0.00000000000E+00 0.  1.
<scales pt_clust_3="35.97349" pt_clust_4="100.95419" pt_clust_5="67.86850" pt_clust_6="14000.00000"></scales>
<clustering>
<clus scale="   35.973">  1  3  2 -1</clus>
<clus scale="   67.868">  2  5  1 -1</clus>
<clus scale="  100.954">  2  4  1 -1</clus>
<clus scale="   35.973">  1  3  2 -1</clus>
</clustering>
</event>
<event>
 6    0  0.8777103E+002  0.1539688E+03  0.7546771E-02  0.1195679E+00
         21   -1    0    0  506  501  0.00000000000E+00  0.00000000000E+00  0.17737710807E+04  0.17737710807E+04  0.00000000000E+00 0. -1.
         21   -1    0    0  503  502 -0.00000000000E+00 -0.00000000000E+00 -0.13964475784E+03  0.13964475784E+03  0.00000000000E+00 0.  1.
         21    1    1    2  503  501 -0.14732369588E+03  0.61151023785E+02  0.14623095996E+04  0.14709837131E+04  0.00000000000E+00 0. -1.
         21    1    1    2  504  502  0.14853569024E+03 -0.40033710604E+02 -0.82807904080E+02  0.17470746474E+03  0.00000000000E+00 0.  1.
         21    1    1    2  505  504 -0.29440120363E+02 -0.36150147191E+02  0.10766948117E+03  0.11732975327E+03  0.00000000000E+00 0.  1.
         21    1    1    2  506  505  0.28228126012E+02  0.15032834010E+02  0.14695514623E+03  0.15039490749E+03  0.00000000000E+00 0.  1.
<scales pt_clust_3="14000.00000" pt_clust_4="153.96879" pt_clust_5="44.58873" pt_clust_6="31.98145"></scales>
<clustering>
<clus scale="   31.981">  1  6  2 -1</clus>
<clus scale="   44.589">  1  5  2 -1</clus>
<clus scale="  153.969">  2  4  1 -1</clus>
<clus scale="   31.981">  1  3  2 -1</clus>
</clustering>
</event>
<event>
 6    0  0.8777103E+002  0.1457293E+03  0.7546771E-02  0.1205821E+00
         21   -1    0    0  503  501  0.00000000000E+00  0.00000000000E+00  0.12232075473E+04  0.12232075473E+04  0.00000000000E+00 0. -1.
         21   -1    0    0  505  502 -0.00000000000E+00 -0.00000000000E+00 -0.30631791955E+03  0.30631791955E+03  0.00000000000E+00 0.  1.
         21    1    1    2  503  506 -0.54134857672E+02  0.44361167915E+02  0.10738485118E+04  0.10761269081E+04  0.00000000000E+00 0. -1.
         21    1    1    2  504  501  0.92581744953E+01 -0.32809014573E+02  0.54865252976E+02  0.64593662354E+02  0.00000000000E+00 0.  1.
         21    1    1    2  505  504  0.14674594634E+03  0.54118335455E+02 -0.21699990385E+03  0.26749229011E+03  0.00000000000E+00 0.  1.
         21    1    1    2  506  502 -0.10186926317E+03 -0.65670488797E+02  0.51757668082E+01  0.12131260626E+03  0.00000000000E+00 0. -1.
<scales pt_clust_3="47.69638" pt_clust_4="34.09025" pt_clust_5="14000.00000" pt_clust_6="145.72930"></scales>
<clustering>
<clus scale="   34.090">  1  4  2 -1</clus>
<clus scale="   47.696">  1  3  2 -1</clus>
<clus scale="  145.729">  1  6  2 -1</clus>
<clus scale="   34.090">  1  3  2 -1</clus>
</clustering>
</event>
<event>
 6    0  0.8777103E+002  0.8532799E+02  0.7546771E-02  0.1314577E+00
         21   -1    0    0  506  501  0.00000000000E+00  0.00000000000E+00  0.72482043335E+02  0.72482043335E+02  0.00000000000E+00 0.  1.
         21   -1    0    0  504  502 -0.00000000000E+00 -0.00000000000E+00 -0.22996752730E+04  0.22996752730E+04  0.00000000000E+00 0.  1.
         21    1    1    2  503  501 -0.44468961901E+02 -0.40186611447E+01  0.20322603190E+02  0.49057582599E+02  0.00000000000E+00 0. -1.
         21    1    1    2  504  503 -0.10576943864E+03  0.16690739905E+02 -0.17463616566E+04  0.17496413319E+04  0.00000000000E+00 0.  1.
         21    1    1    2  505  502  0.23971128128E+02 -0.18784648842E+02 -0.42455723349E+03  0.42564812055E+03  0.00000000000E+00 0. -1.
         21    1    1    2  506  505  0.12626727242E+03  0.61125700813E+01 -0.76596942818E+02  0.14781028126E+03  0.00000000000E+00 0.  1.
<scales pt_clust_3="44.48044" pt_clust_4="14000.00000" pt_clust_5="30.45452" pt_clust_6="85.32799"></scales>
<clustering>
<clus scale="   30.455">  2  5  1 -1</clus>
<clus scale="   44.480">  1  3  2 -1</clus>
<clus scale="   85.328">  1  6  2 -1</clus>
<clus scale="   44.480">  1  3  2 -1</clus>
</clustering>
</event>
<event>
 6    0  0.8777103E+002  0.1334808E+03  0.7546771E-02  0.1222380E+00
         21   -1    0    0  506  501  0.00000000000E+00  0.00000000000E+00  0.13323489586E+04  0.13323489586E+04  0.00000000000E+00 0.  1.
         21   -1    0    0  504  502 -0.00000000000E+00 -0.00000000000E+00 -0.29198425719E+03  0.29198425719E+03  0.00000000000E+00 0.  1.
         21    1    1    2  503  502 -0.72356761203E+02 -0.77321762447E+02 -0.24100007501E+03  0.26323979942E+03  0.00000000000E+00 0.  1.
         21    1    1    2  504  505 -0.32751466770E+02 -0.87191662877E+01 -0.23755459336E+02  0.41388455934E+02  0.00000000000E+00 0. -1.
         21    1    1    2  505  501 -0.93980409075E+01  0.80458117982E+02  0.53337973266E+03  0.53949584904E+03  0.00000000000E+00 0.  1.
         21    1    1    2  506  503  0.11450626888E+03  0.55828107527E+01  0.77174050313E+03  0.78020911143E+03  0.00000000000E+00 0.  1.
<scales pt_clust_3="133.48078" pt_clust_4="33.89222" pt_clust_5="80.94880" pt_clust_6="14000.00000"></scales>
<clustering>
<clus scale="   33.892">  2  4  1 -1</clus>
<clus scale="   80.949">  1  5  2 -1</clus>
<clus scale="  133.481">  2  3  1 -1</clus>
<clus scale="   80.949">  1  3  2 -1</clus>
</clustering>
</event>
<event>
 6    0  0.8777103E+002  0.2019714E+03  0.7546771E-02  0.1148086E+00
         21   -1    0    0  506  501  0.00000000000E+00  0.00000000000E+00  0.24008961246E+04  0.24008961246E+04  0.00000000000E+00 0. -1.
         21   -1    0    0  503  502 -0.00000000000E+00 -0.00000000000E+00 -0.17830122406E+03  0.17830122406E+03  0.00000000000E+00 0.  1.
         21    1    1    2  503  504 -0.14112759977E+02 -0.19425057211E+03 -0.45645044922E+02  0.20003980825E+03  0.00000000000E+00 0.  1.
         21    1    1    2  504  501 -0.93488807411E+02  0.28276172910E+01  0.19486236321E+04  0.19508670411E+04  0.00000000000E+00 0. -1.
         21    1    1    2  505  502  0.75138322466E+02  0.22092018247E+03  0.22572447764E+03  0.32465833476E+03  0.00000000000E+00 0. -1.
         21    1    1    2  506  505  0.32463244923E+02 -0.29497227645E+02  0.93891835652E+02  0.10363216447E+03  0.00000000000E+00 0.  1.
<scales pt_clust_3="201.97145" pt_clust_4="69.61411" pt_clust_5="14000.00000" pt_clust_6="43.86284"></scales>
<clustering>
<clus scale="   43.863">  1  6  2 -1</clus>
<clus scale="   69.614">  1  4  2 -1</clus>
<clus scale="  201.971">  2  3  1 -1</clus>
<clus scale="   43.863">  1  3  2 -1</clus>
</clustering>
</event>
<event>
 6    0  0.8777103E+002  0.1406957E+03  0.7546771E-02  0.1212396E+00
         21   -1    0    0  504  501  0.00000000000E+00  0.00000000000E+00  0.81984478562E+03  0.81984478562E+03  0.00000000000E+00 0.  1.
         21   -1    0    0  505  502 -0.00000000000E+00 -0.00000000000E+00 -0.89909356645E+03  0.89909356645E+03  0.00000000000E+00 0.  1.
         21    1    1    2  503  502  0.56615016236E+02  0.29027983420E+02 -0.66504840602E+03  0.66808477474E+03  0.00000000000E+00 0.  1.
         21    1    1    2  504  503  0.91263028916E+02  0.22705212556E+02 -0.70702404801E+02  0.11765754191E+03  0.00000000000E+00 0. -1.
         21    1    1    2  505  506 -0.16383840628E+03 -0.15272292543E+03 -0.41459594363E+02  0.22778545451E+03  0.00000000000E+00 0. -1.
         21    1    1    2  506  501  0.15960361127E+02  0.10098972945E+03  0.69796162436E+03  0.70541058091E+03  0.00000000000E+00 0.  1.
<scales pt_clust_3="63.62298" pt_clust_4="140.69575" pt_clust_5="14000.00000" pt_clust_6="102.84724"></scales>
<clustering>
<clus scale="   63.623">  2  3  1 -1</clus>
<clus scale="  102.847">  1  6  2 -1</clus>
<clus scale="  140.696">  2  4  1 -1</clus>
<clus scale="  102.847">  1  3  2 -1</clus>
</clustering>
</event>
<event>
 6    0  0.8777103E+002  0.1069360E+03  0.7546771E-02  0.1266351E+00
         21   -1    0    0  506  501  0.00000000000E+00  0.00000000000E+00  0.29614392653E+04  0.29614392653E+04  0.00000000000E+00 0.  1.
         21   -1    0    0  504  502 -0.00000000000E+00 -0.00000000000E+00 -0.14373800651E+03  0.14373800651E+03  0.00000000000E+00 0. -1.
         21    1    1    2  503  501  0.62586258190E+02 -0.50054853265E+02  0.24543340278E+04  0.24556420847E+04  0.00000000000E+00 0.  1.
         21    1    1    2  504  505  0.61068073961E+02  0.88299121918E+02 -0.87520335871E+02  0.13851300942E+03  0.00000000000E+00 0. -1.
         21    1    1    2  505  503 -0.11368315656E+03  0.72515048472E+01  0.84872373349E+02  0.14205549679E+03  0.00000000000E+00 0. -1.
         21    1    1    2  506  502 -0.99711755860E+01 -0.45495773501E+02  0.36601519355E+03  0.36896668096E+03  0.00000000000E+00 0. -1.
<scales pt_clust_3="14000.00000" pt_clust_4="106.93602" pt_clust_5="103.57639" pt_clust_6="46.57563"></scales>
<clustering>
<clus scale="   46.576">  1  6  2 -1</clus>
<clus scale="  106.936">  2  4  1 -1</clus>
<clus scale="  103.576">  2  5  1 -1</clus>
<clus scale="   46.576">  1  3  2 -1</clus>
</clustering>
</event>
<event>
 6    0  0.8777103E+002  0.9436689E+02  0.7546771E-02  0.1292608E+00
         21   -1    0    0  504  501  0.00000000000E+00  0.00000000000E+00  0.77678096328E+03  0.77678096328E+03  0.00000000000E+00 0. -1.
         21   -1    0    0  506  502 -0.00000000000E+00 -0.00000000000E+00 -0.86088401469E+02  0.86088401469E+02  0.00000000000E+00 0. -1.
         21    1    1    2  503  505 -0.31318741329E+02 -0.31996400341E+02  0.19048118309E+02  0.48656592609E+02  0.00000000000E+00 0. -1.
         21    1    1    2  504  503  0.20032993518E+02 -0.92884436937E+02  0.40339448478E+03  0.41443449398E+03  0.00000000000E+00 0. -1.
         21    1    1    2  505  502 -0.15894424766E+02  0.28469509974E+02 -0.53579159355E+02  0.62720587163E+02  0.00000000000E+00 0. -1.
         21    1    1    2  506  501  0.27180172577E+02  0.96411327303E+02  0.32182911808E+03  0.33705769099E+03  0.00000000000E+00 0. -1.
<scales pt_clust_3="43.18936" pt_clust_4="14000.00000" pt_clust_5="32.60592" pt_clust_6="94.36689"></scales>
<clustering>
<clus scale="   32.606">  2  5  1 -1</clus>
<clus scale="   43.189">  2  3  1 -1</clus>
<clus scale="   94.367">  2  6  1 -1</clus>
<clus scale="   94.367">  1  3  2 -1</clus>
</clustering>
</event>
<event>
 6    0  0.8777103E+002  0.8772751E+02  0.7546771E-02  0.1308450E+00
         21   -1    0    0  504  501  0.00000000000E+00  0.00000000000E+00  0.36564452748E+02  0.36564452748E+02  0.00000000000E+00 0. -1.
         21   -1    0    0  506  502 -0.00000000000E+00 -0.00000000000E+00 -0.91625678372E+03  0.91625678372E+03  0.00000000000E+00 0.  1.
         21    1    1    2  503  501 -0.30979681972E+02 -0.40011420587E+02 -0.66792694777E+02  0.83796888654E+02  0.00000000000E+00 0. -1.
         21    1    1    2  504  505  0.13391012329E+02 -0.27575900786E+02 -0.36616598546E+02  0.47754840639E+02  0.00000000000E+00 0. -1.
         21    1    1    2  505  502  0.86931872798E+02  0.32154863899E+02 -0.71811367784E+03  0.72407067340E+03  0.00000000000E+00 0.  1.
         21    1    1    2  506  503 -0.69343203155E+02  0.35432457474E+02 -0.58169359814E+02  0.97198833777E+02  0.00000000000E+00 0. -1.
<scales pt_clust_3="54.85507" pt_clust_4="30.65533" pt_clust_5="87.72751" pt_clust_6="14000.00000"></scales>
<clustering>
<clus scale="   30.655">  1  4  2 -1</clus>
<clus scale="   54.855">  1  3  2 -1</clus>
<clus scale="   87.728">  2  5  1 -1</clus>
<clus scale="   30.655">  1  3  2 -1</clus>
</clustering>
</event>
<event>
 6    0  0.8777103E+002  0.1046137E+03  0.7546771E-02  0.1270883E+00
         21   -1    0    0  503  501  0.00000000000E+00  0.00000000000E+00  0.25150506371E+03  0.25150506371E+03  0.00000000000E+00 0. -1.
         21   -1    0    0  505  502 -0.00000000000E+00 -0.00000000000E+00 -0.47957766853E+03  0.47957766853E+03  0.00000000000E+00 0. -1.
         21    1    1    2  503  506  0.10593754250E+03  0.39316232780E+02 -0.10448743206E+03  0.15390306211E+03  0.00000000000E+00 0. -1.
         21    1    1    2  504  501 -0.51048496140E+01 -0.58340738957E+02  0.17152737679E+03  0.18124939255E+03  0.00000000000E+00 0. -1.
         21    1    1    2  505  504 -0.10143088935E+03  0.52571113668E+02 -0.16648053488E+02  0.11545174313E+03  0.00000000000E+00 0. -1.
         21    1    1    2  506  502  0.59819646661E+00 -0.33546607491E+02 -0.27846449607E+03  0.28047853445E+03  0.00000000000E+00 0. -1.
<scales pt_clust_3="14000.00000" pt_clust_4="59.37426" pt_clust_5="104.61372" pt_clust_6="33.55194"></scales>
<clustering>
<clus scale="   33.552">  2  6  1 -1</clus>
<clus scale="   59.374">  1  4  2 -1</clus>
<clus scale="  104.614">  1  5  2 -1</clus>
<clus scale="   59.374">  1  3  2 -1</clus>
</clustering>
</event>
<event>
 6    0  0.8777103E+002  0.1136918E+03  0.7546771E-02  0.1253882E+00
         21   -1    0    0  502  501  0.00000000000E+00  0.00000000000E+00  0.12404504940E+04  0.12404504940E+04  0.00000000000E+00 0.  1.
         21   -1    0    0  503  502 -0.00000000000E+00 -0.00000000000E+00 -0.31987654513E+02  0.31987654513E+02  0.00000000000E+00 0.  1.
         21    1    1    2  503  504  0.38993187291E+02  0.86337478491E+02  0.14777325115E+03  0.17553222667E+03  0.00000000000E+00 0.  1.
         21    1    1    2  504  506 -0.73519335512E+02 -0.14746433215E+03  0.41936621715E+03  0.45057612679E+03  0.00000000000E+00 0.  1.
         21    1    1    2  505  501  0.22381784174E+02  0.24753367857E+02  0.44791687697E+03  0.44915832638E+03  0.00000000000E+00 0.  1.
         21    1    1    2  506  505  0.12144364048E+02  0.36373485802E+02  0.19340649427E+03  0.19717146871E+03  0.00000000000E+00 0.  1.
<scales pt_clust_3="113.69184" pt_clust_4="14000.00000" pt_clust_5="33.37175" pt_clust_6="46.00403"></scales>
<clustering>
<clus scale="   33.372">  1  5  2 -1</clus>
<clus scale="   46.004">  1  6  2 -1</clus>
<clus scale="  113.692">  2  3  1 -1</clus>
<clus scale="   33.372">  1  3  2 -1</clus>
</clustering>
</event>
<event>
 6    0  0.8777103E+002  0.8588484E+02  0.7546771E-02  0.1313135E+00
         21   -1    0    0  506  501  0.00000000000E+00  0.00000000000E+00  0.60873400340E+02  0.60873400340E+02  0.00000000000E+00 0.  1.
         21   -1    0    0  504  502 -0.00000000000E+00 -0.00000000000E+00 -0.17263935214E+04  0.17263935214E+04  0.00000000000E+00 0.  1.
         21    1    1    2  503  502 -0.28962683608E+02  0.19246854514E+02 -0.12022945166E+04  0.12027973159E+04  0.00000000000E+00 0.  1.
         21    1    1    2  504  505  0.47896229654E+02  0.34297144877E+02 -0.12671485985E+03  0.13973903774E+03  0.00000000000E+00 0.  1.
         21    1    1    2  505  501  0.79625101211E+02 -0.32387245084E+02  0.74699060960E+01  0.86283775324E+02  0.00000000000E+00 0.  1.
         21    1    1    2  506  503 -0.98558647257E+02 -0.21156754307E+02 -0.34398065068E+03  0.35844679277E+03  0.00000000000E+00 0.  1.
<scales pt_clust_3="34.77468" pt_clust_4="56.38020" pt_clust_5="85.88484" pt_clust_6="14000.00000"></scales>
<clustering>
<clus scale="   34.775">  2  3  1 -1</clus>
<clus scale="   56.380">  2  4  1 -1</clus>
<clus scale="   85.885">  1  5  2 -1</clus>
<clus scale="   85.885">  1  3  2 -1</clus>
</clustering>
</event>
<event>
 6    0  0.8777103E+002  0.1171899E+03  0.7546771E-02  0.1247806E+00
         21   -1    0    0  503  501  0.00000000000E+00  0.00000000000E+00  0.41409507271E+03  0.41409507271E+03  0.00000000000E+00 0.  1.
         21   -1    0    0  506  502 -0.00000000000E+00 -0.00000000000E+00 -0.22959523612E+03  0.22959523612E+03  0.00000000000E+00 0.  1.
         21    1    1    2  503  504  0.30242411078E+02 -0.85517895393E+01  0.26893028044E+03  0.27076047029E+03  0.00000000000E+00 0.  1.
         21    1    1    2  504  502  0.76021587364E+01  0.12757515908E+03  0.77903674806E+02  0.14967363355E+03  0.00000000000E+00 0.  1.
         21    1    1    2  505  501  0.20704462934E+01 -0.98365266263E+02 -0.70576970255E+02  0.12108311643E+03  0.00000000000E+00 0.  1.
         21    1    1    2  506  505 -0.39915016108E+02 -0.20658103281E+02 -0.91757148402E+02  0.10217308856E+03  0.00000000000E+00 0.  1.
<scales pt_clust_3="31.42828" pt_clust_4="14000.00000" pt_clust_5="117.18991" pt_clust_6="44.12308"></scales>
<clustering>
<clus scale="   31.428">  1  3  2 -1</clus>
<clus scale="   44.123">  2  6  1 -1</clus>
<clus scale="  117.190">  2  5  1 -1</clus>
<clus scale="   31.428">  1  3  2 -1</clus>
</clustering>
</event>
<event>
 6    0  0.8777103E+002  0.1541735E+03  0.7546771E-02  0.1195436E+00
         21   -1    0    0  504  501  0.00000000000E+00  0.00000000000E+00  0.61596373477E+03  0.61596373477E+03  0.00000000000E+00 0.  1.
         21   -1    0    0  505  502 -0.00000000000E+00 -0.00000000000E+00 -0.68819835038E+02  0.68819835038E+02  0.00000000000E+00 0.  1.
         21    1    1    2  503  502 -0.38376685759E+02  0.14201430941E+02 -0.15995673580E+02  0.43935318639E+02  0.00000000000E+00 0.  1.
         21    1    1    2  504  506  0.45143367418E+02  0.21626606876E+02  0.13510540891E+03  0.14408020427E+03  0.00000000000E+00 0.  1.
         21    1    1    2  505  501 -0.84916801490E+02 -0.10821607947E+03  0.30127579315E+03  0.33119282385E+03  0.00000000000E+00 0.  1.
         21    1    1    2  506  503  0.78150119831E+02  0.72388041655E+02  0.12675837125E+03  0.16557522305E+03  0.00000000000E+00 0.  1.
<scales pt_clust_3="40.92005" pt_clust_4="39.22213" pt_clust_5="143.16309" pt_clust_6="39.22213"></scales>
<clustering>
<clus scale="   39.222">  4  6 -1 -1</clus>
<clus scale="   40.920">  2  3  1 -1</clus>
<clus scale="  143.163">  1  5  2 -1</clus>
<clus scale="  143.163">  1  3  2 -1</clus>
</clustering>
</event>
<event>
 6    0  0.8777103E+002  0.1604639E+03  0.7546771E-02  0.1188174E+00
         21   -1    0    0  503  501  0.00000000000E+00  0.00000000000E+00  0.43417954120E+02  0.43417954120E+02  0.00000000000E+00 0. -1.
         21   -1    0    0  505  502 -0.00000000000E+00 -0.00000000000E+00 -0.16922821984E+04  0.16922821984E+04  0.00000000000E+00 0. -1.
         21    1    1    2  503  502  0.71333535604E+02  0.39725663174E+02 -0.10042102398E+04  0.10075240976E+04  0.00000000000E+00 0. -1.
         21    1    1    2  504  501 -0.45765530669E+02  0.73956737742E+01 -0.53264960220E+02  0.70613991356E+02  0.00000000000E+00 0. -1.
         21    1    1    2  505  506  0.46109687128E+02 -0.14397086756E+03 -0.43246936290E+03  0.45813040043E+03  0.00000000000E+00 0. -1.
         21    1    1    2  506  504 -0.71677692063E+02  0.96849530612E+02 -0.15891968138E+03  0.19943166311E+03  0.00000000000E+00 0. -1.
<scales pt_clust_3="81.64926" pt_clust_4="35.32041" pt_clust_5="150.02106" pt_clust_6="35.32041"></scales>
<clustering>
<clus scale="   35.320">  4  6 -1 -1</clus>
<clus scale="   81.649">  2  3  1 -1</clus>
<clus scale="  150.021">  2  5  1 -1</clus>
<clus scale="  160.464">  1  3  2 -1</clus>
</clustering>
</event>
<event>
 6    0  0.8777103E+002  0.1591650E+03  0.7546771E-02  0.1189643E+00
         21   -1    0    0  505  501  0.00000000000E+00  0.00000000000E+00  0.11488749596E+04  0.11488749596E+04  0.00000000000E+00 0.  1.
         21   -1    0    0  506  502 -0.00000000000E+00 -0.00000000000E+00 -0.11690057656E+03  0.11690057656E+03  0.00000000000E+00 0.  1.
         21    1    1    2  503  501 -0.10617176077E+03 -0.25055763858E+02  0.65655983163E+03  0.66556070091E+03  0.00000000000E+00 0.  1.
         21    1    1    2  504  503 -0.43016759891E+02 -0.36917901854E+02  0.23989445503E+03  0.24650095875E+03  0.00000000000E+00 0.  1.
         21    1    1    2  505  502  0.27888702587E+02  0.11693880881E+02 -0.88789141153E+02  0.93797858018E+02  0.00000000000E+00 0.  1.
         21    1    1    2  506  504  0.12129981807E+03  0.50279784832E+02  0.22430923755E+03  0.25991601851E+03  0.00000000000E+00 0.  1.
<scales pt_clust_3="32.95301" pt_clust_4="32.95301" pt_clust_5="30.24114" pt_clust_6="152.33275"></scales>
<clustering>
<clus scale="   30.241">  2  5  1 -1</clus>
<clus scale="   32.953">  3  4 -1 -1</clus>
<clus scale="  152.333">  2  6  1 -1</clus>
<clus scale="  159.165">  1  3  2 -1</clus>
</clustering>
</event>
<event>
 6    0  0.8777103E+002  0.7523957E+02  0.7546771E-02  0.1343131E+00
         21   -1    0    0  503  501  0.00000000000E+00  0.00000000000E+00  0.29416800141E+02  0.29416800141E+02  0.00000000000E+00 0.  1.
         21   -1    0    0  505  502 -0.00000000000E+00 -0.00000000000E+00 -0.16441713072E+04  0.16441713072E+04  0.00000000000E+00 0.  1.
         21    1    1    2  503  504 -0.30670742385E+02  0.59944085640E+02 -0.13659240669E+03  0.15228746963E+03  0.00000000000E+00 0.  1.
         21    1    1    2  504  502 -0.77775247098E+02 -0.54393102486E+00 -0.96569480667E+03  0.96882183324E+03  0.00000000000E+00 0.  1.
         21    1    1    2  505  506  0.56782992479E+02 -0.81960182491E+02 -0.47365508371E+03  0.48403607105E+03  0.00000000000E+00 0.  1.
         21    1    1    2  506  501  0.51662997004E+02  0.22560027876E+02 -0.38812210027E+02  0.68442733466E+02  0.00000000000E+00 0.  1.
<scales pt_clust_3="72.12738" pt_clust_4="75.23957" pt_clust_5="14000.00000" pt_clust_6="56.37393"></scales>
<clustering>
<clus scale="   56.374">  1  6  2 -1</clus>
<clus scale="   72.127">  1  3  2 -1</clus>
<clus scale="   75.240">  2  4  1 -1</clus>
<clus scale="   56.374">  1  3  2 -1</clus>
</clustering>
</event>
<event>
 6    0  0.8777103E+002  0.9766106E+02  0.7546771E-02  0.1285293E+00
         21   -1    0    0  506  501  0.00000000000E+00  0.00000000000E+00  0.92228902777E+02  0.92228902777E+02  0.00000000000E+00 0. -1.
         21   -1    0    0  503  502 -0.00000000000E+00 -0.00000000000E+00 -0.17800074563E+04  0.17800074563E+04  0.00000000000E+00 0. -1.
         21    1    1    2  503  505 -0.11802280534E+03  0.62913162070E+02 -0.63672770991E+02  0.14812720989E+03  0.00000000000E+00 0. -1.
         21    1    1    2  504  502  0.94129410602E+02 -0.21614315532E+02 -0.16141659745E+04  0.16170526639E+04  0.00000000000E+00 0. -1.
         21    1    1    2  505  501 -0.12520597923E+02 -0.28056901143E+02  0.35757157566E+02  0.47143709987E+02  0.00000000000E+00 0. -1.
         21    1    1    2  506  504  0.36413992666E+02 -0.13241945395E+02 -0.45696965573E+02  0.59912775284E+02  0.00000000000E+00 0. -1.
<scales pt_clust_3="14000.00000" pt_clust_4="97.66106" pt_clust_5="30.72385" pt_clust_6="38.68070"></scales>
<clustering>
<clus scale="   30.724">  1  5  2 -1</clus>
<clus scale="   38.681">  1  6  2 -1</clus>
<clus scale="   97.661">  2  4  1 -1</clus>
<clus scale="   30.724">  1  3  2 -1</clus>
</clustering>
</event>
<event>
 6    0  0.8777103E+002  0.1330280E+03  0.7546771E-02  0.1223031E+00
         21   -1    0    0  504  501  0.00000000000E+00  0.00000000000E+00  0.72312238913E+03  0.72312238913E+03  0.00000000000E+00 0.  1.
         21   -1    0    0  503  502 -0.00000000000E+00 -0.00000000000E+00 -0.12404781148E+03  0.12404781148E+03  0.00000000000E+00 0.  1.
         21    1    1    2  503  506 -0.65797291487E+02  0.19359770429E+02  0.29265510112E+02  0.74569124712E+02  0.00000000000E+00 0.  1.
         21    1    1    2  504  505  0.15255209794E+03 -0.84926897400E+02  0.53892917829E+03  0.56650629272E+03  0.00000000000E+00 0.  1.
         21    1    1    2  505  502 -0.41495057937E+02  0.68477651166E+02 -0.62967991237E+02  0.10186263526E+03  0.00000000000E+00 0.  1.
         21    1    1    2  506  501 -0.45259748516E+02 -0.29105241960E+01  0.93847880489E+02  0.10423214792E+03  0.00000000000E+00 0.  1.
<scales pt_clust_3="72.14165" pt_clust_4="14000.00000" pt_clust_5="133.02802" pt_clust_6="45.35324"></scales>
<clustering>
<clus scale="   45.353">  1  6  2 -1</clus>
<clus scale="   72.142">  2  3  1 -1</clus>
<clus scale="  133.028">  2  5  1 -1</clus>
<clus scale="   45.353">  1  3  2 -1</clus>
</clustering>
</event>
<event>
 6    0  0.8777103E+002  0.7170411E+02  0.7546771E-02  0.1354392E+00
         21   -1    0    0  503  501  0.00000000000E+00  0.00000000000E+00  0.24905396021E+03  0.24905396021E+03  0.00000000000E+00 0. -1.
         21   -1    0    0  504  502 -0.00000000000E+00 -0.00000000000E+00 -0.14648317435E+04  0.14648317435E+04  0.00000000000E+00 0.  1.
         21    1    1    2  503  505  0.72173370450E+02  0.10785921652E+02  0.22220725710E+03  0.23388329700E+03  0.00000000000E+00 0. -1.
         21    1    1    2  504  501 -0.65875979846E+02  0.69074073531E+02 -0.36875010639E+03  0.38090354857E+03  0.00000000000E+00 0.  1.
         21    1    1    2  505  506 -0.38785260319E+02 -0.66629432414E+02 -0.87026834503E+02  0.11626455868E+03  0.00000000000E+00 0.  1.
         21    1    1    2  506  502  0.32487869716E+02 -0.13230562769E+02 -0.98220809951E+03  0.98283429947E+03  0.00000000000E+00 0.  1.
<scales pt_clust_3="14000.00000" pt_clust_4="71.46423" pt_clust_5="71.70411" pt_clust_6="35.07862"></scales>
<clustering>
<clus scale="   35.079">  2  6  1 -1</clus>
<clus scale="   71.464">  2  4  1 -1</clus>
<clus scale="   71.704">  2  5  1 -1</clus>
<clus scale="   71.704">  1  3  2 -1</clus>
</clustering>
</event>
<event>
 6    0  0.8777103E+002  0.9372169E+02  0.7546771E-02  0.1294081E+00
         21   -1    0    0  505  501  0.00000000000E+00  0.00000000000E+00  0.82145388523E+03  0.82145388523E+03  0.00000000000E+00 0. -1.
         21   -1    0    0  503  502 -0.00000000000E+00 -0.00000000000E+00 -0.30560700701E+03  0.30560700701E+03  0.00000000000E+00 0. -1.
         21    1    1    2  503  504  0.67882167755E+02 -0.84646089247E+02 -0.11654836336E+03  0.15923715059E+03  0.00000000000E+00 0. -1.
         21    1    1    2  504  501 -0.63294862300E+02  0.73432700634E+02  0.75055012698E+03  0.75678536866E+03  0.00000000000E+00 0. -1.
         21    1    1    2  505  506 -0.18538177239E+02 -0.28682570230E+02  0.36927995037E+02  0.50299410213E+02  0.00000000000E+00 0. -1.
         21    1    1    2  506  502  0.13950871784E+02  0.39895958842E+02 -0.15508288043E+03  0.16073896278E+03  0.00000000000E+00 0. -1.
<scales pt_clust_3="14000.00000" pt_clust_4="93.72169" pt_clust_5="34.15192" pt_clust_6="42.14414"></scales>
<clustering>
<clus scale="   34.152">  1  5  2 -1</clus>
<clus scale="   42.144">  2  6  1 -1</clus>
<clus scale="   93.722">  1  4  2 -1</clus>
<clus scale="   34.152">  1  3  2 -1</clus>
</clustering>
</event>
<event>
 6    0  0.8777103E+002  0.1575079E+03  0.7546771E-02  0.1191539E+00
         21   -1    0    0  506  501  0.00000000000E+00  0.00000000000E+00  0.26084240181E+03  0.26084240181E+03  0.00000000000E+00 0. -1.
         21   -1    0    0  505  502 -0.00000000000E+00 -0.00000000000E+00 -0.19066899355E+04  0.19066899355E+04  0.00000000000E+00 0. -1.
         21    1    1    2  503  502  0.44142165724E+02  0.14483392599E+03 -0.63113163455E+03  0.64903970375E+03  0.00000000000E+00 0. -1.
         21    1    1    2  504  501 -0.74779236764E+02 -0.14027135394E+03 -0.10006568299E+04  0.10132038680E+04  0.00000000000E+00 0. -1.
         21    1    1    2  505  504 -0.61793011394E+02 -0.69213704841E+01 -0.24698027916E+03  0.25468714126E+03  0.00000000000E+00 0.  1.
         21    1    1    2  506  503  0.92430082434E+02  0.23587984347E+01  0.23292120991E+03  0.25060162428E+03  0.00000000000E+00 0. -1.
<scales pt_clust_3="157.50793" pt_clust_4="14000.00000" pt_clust_5="62.17943" pt_clust_6="92.12945"></scales>
<clustering>
<clus scale="   62.179">  2  5  1 -1</clus>
<clus scale="   92.129">  1  6  2 -1</clus>
<clus scale="  157.508">  1  3  2 -1</clus>
<clus scale="   92.129">  1  3  2 -1</clus>
</clustering>
</event>
<event>
 6    0  0.8777103E+002  0.6022625E+02  0.7546771E-02  0.1396885E+00
         21   -1    0    0  505  501  0.00000000000E+00  0.00000000000E+00  0.10195893186E+04  0.10195893186E+04  0.00000000000E+00 0.  1.
         21   -1    0    0  503  502 -0.00000000000E+00 -0.00000000000E+00 -0.31676541253E+03  0.31676541253E+03  0.00000000000E+00 0.  1.
         21    1    1    2  503  506 -0.75444677449E+02  0.65722352727E+02 -0.23767516440E+03  0.25787751119E+03  0.00000000000E+00 0.  1.
         21    1    1    2  504  502  0.29100930312E+02 -0.28892225527E+02 -0.58430632733E+02  0.71384617969E+02  0.00000000000E+00 0.  1.
         21    1    1    2  505  504 -0.34502002939E+02  0.63592760682E-01  0.17381761115E+03  0.17720878701E+03  0.00000000000E+00 0.  1.
         21    1    1    2  506  501  0.80845750076E+02 -0.36893719961E+02  0.82511209201E+03  0.82988381492E+03  0.00000000000E+00 0.  1.
<scales pt_clust_3="60.22625" pt_clust_4="40.81982" pt_clust_5="34.50206" pt_clust_6="14000.00000"></scales>
<clustering>
<clus scale="   34.502">  1  5  2 -1</clus>
<clus scale="   40.820">  2  4  1 -1</clus>
<clus scale="   60.226">  2  3  1 -1</clus>
<clus scale="   34.502">  1  3  2 -1</clus>
</clustering>
</event>
<event>
 6    0  0.8777103E+002  0.6931732E+02  0.7546771E-02  0.1362430E+00
         21   -1    0    0  505  501  0.00000000000E+00  0.00000000000E+00  0.41911775685E+03  0.41911775685E+03  0.00000000000E+00 0.  1.
         21   -1    0    0  503  502 -0.00000000000E+00 -0.00000000000E+00 -0.64973881192E+03  0.64973881192E+03  0.00000000000E+00 0.  1.
         21    1    1    2  503  504  0.37507922319E+02  0.24049017586E+02 -0.45541880722E+03  0.45759314839E+03  0.00000000000E+00 0.  1.
         21    1    1    2  504  501 -0.13541985943E+02  0.97333197103E+02 -0.12397930501E+03  0.15820241689E+03  0.00000000000E+00 0.  1.
         21    1    1    2  505  506 -0.33739644037E+02 -0.60308785197E+02  0.37827571145E+03  0.38453611927E+03  0.00000000000E+00 0.  1.
         21    1    1    2  506  502  0.97737076612E+01 -0.61073429492E+02 -0.29498654300E+02  0.68524884216E+02  0.00000000000E+00 0. -1.
<scales pt_clust_3="44.55558" pt_clust_4="69.31732" pt_clust_5="14000.00000" pt_clust_6="58.25887"></scales>
<clustering>
<clus scale="   44.556">  2  3  1 -1</clus>
<clus scale="   58.259">  2  6  1 -1</clus>
<clus scale="   69.317">  2  4  1 -1</clus>
<clus scale="   69.317">  1  3  2 -1</clus>
</clustering>
</event>
<event>
 6    0  0.8777103E+002  0.2363901E+03  0.7546771E-02  0.1122221E+00
         21   -1    0    0  503  501  0.00000000000E+00  0.00000000000E+00  0.75562040145E+03  0.75562040145E+03  0.00000000000E+00 0. -1.
         21   -1    0    0  504  502 -0.00000000000E+00 -0.00000000000E+00 -0.30548847611E+03  0.30548847611E+03  0.00000000000E+00 0. -1.
         21    1    1    2  503  505 -0.79141646784E+02  0.23338809896E+02  0.41560737437E+03  0.42371876278E+03  0.00000000000E+00 0. -1.
         21    1    1    2  504  506 -0.56855910101E+02 -0.39805823146E+02 -0.82804299081E+02  0.10804466676E+03  0.00000000000E+00 0. -1.
         21    1    1    2  505  502 -0.42133745624E+02 -0.19536836042E+03 -0.49869149235E+02  0.20598781716E+03  0.00000000000E+00 0. -1.
         21    1    1    2  506  501  0.17813130251E+03  0.21183537367E+03  0.16719799928E+03  0.32335763086E+03  0.00000000000E+00 0. -1.
<scales pt_clust_3="83.35330" pt_clust_4="69.40532" pt_clust_5="236.39005" pt_clust_6="14000.00000"></scales>
<clustering>
<clus scale="   69.405">  2  4  1 -1</clus>
<clus scale="   83.353">  1  3  2 -1</clus>
<clus scale="  236.390">  2  5  1 -1</clus>
<clus scale="   83.353">  1  3  2 -1</clus>
</clustering>
</event>
<event>
 6    0  0.8777103E+002  0.2222243E+03  0.7546771E-02  0.1132236E+00
         21   -1    0    0  503  501  0.00000000000E+00  0.00000000000E+00  0.16584187781E+03  0.16584187781E+03  0.00000000000E+00 0. -1.
         21   -1    0    0  504  502 -0.00000000000E+00 -0.00000000000E+00 -0.41630034971E+04  0.41630034971E+04  0.00000000000E+00 0.  1.
         21    1    1    2  503  506  0.71397538558E+02  0.12701250616E+03  0.70721887104E+02  0.16196101552E+03  0.00000000000E+00 0. -1.
         21    1    1    2  504  505 -0.10367732754E+03  0.13325105156E+01 -0.36945892338E+04  0.36960438810E+04  0.00000000000E+00 0.  1.
         21    1    1    2  505  501 -0.18865246073E+02 -0.17951686779E+03 -0.35173501801E+03  0.39534760177E+03  0.00000000000E+00 0. -1.
         21    1    1    2  506  502  0.51145035049E+02  0.51171851114E+02 -0.21559254561E+02  0.75492876577E+02  0.00000000000E+00 0. -1.
<scales pt_clust_3="59.79672" pt_clust_4="103.68589" pt_clust_5="205.38398" pt_clust_6="59.79672"></scales>
<clustering>
<clus scale="   59.797">  3  6 -1 -1</clus>
<clus scale="  103.686">  2  4  1 -1</clus>
<clus scale="  205.384">  2  5  1 -1</clus>
<clus scale="  222.224">  1  3  2 -1</clus>
</clustering>
</event>
<event>
 6    0  0.8777103E+002  0.8501744E+02  0.7546771E-02  0.1315387E+00
         21   -1    0    0  504  501  0.00000000000E+00  0.00000000000E+00  0.29182424356E+03  0.29182424356E+03  0.00000000000E+00 0.  1.
         21   -1    0    0  505  502 -0.00000000000E+00 -0.00000000000E+00 -0.82758847722E+02  0.82758847722E+02  0.00000000000E+00 0.  1.
         21    1    1    2  503  506 -0.39640368369E+02 -0.42840673933E+02  0.34659783758E+02  0.67882123992E+02  0.00000000000E+00 0.  1.
         21    1    1    2  504  503  0.18925059444E+02 -0.76830801675E+02  0.23411689965E+02  0.82518102184E+02  0.00000000000E+00 0.  1.
         21    1    1    2  505  501  0.51515619884E+02  0.81829035136E+02  0.14602564428E+03  0.17513805660E+03  0.00000000000E+00 0.  1.
         21    1    1    2  506  502 -0.30800310959E+02  0.37842440472E+02  0.49682778310E+01  0.49044808499E+02  0.00000000000E+00 0.  1.
<scales pt_clust_3="58.01600" pt_clust_4="14000.00000" pt_clust_5="85.01744" pt_clust_6="48.79251"></scales>
<clustering>
<clus scale="   48.793">  2  6  1 -1</clus>
<clus scale="   58.016">  2  3  1 -1</clus>
<clus scale="   85.017">  1  5  2 -1</clus>
<clus scale="   85.017">  1  3  2 -1</clus>
</clustering>
</event>
<event>
 6    0  0.8777103E+002  0.1108670E+03  0.7546771E-02  0.1258973E+00
         21   -1    0    0  504  501  0.00000000000E+00  0.00000000000E+00  0.10802606498E+03  0.10802606498E+03  0.00000000000E+00 0. -1.
         21   -1    0    0  506  502 -0.00000000000E+00 -0.00000000000E+00 -0.40699234597E+03  0.40699234597E+03  0.00000000000E+00 0.  1.
         21    1    1    2  503  502 -0.44970333956E+02  0.16653830542E+02 -0.29102852208E+03  0.29495301605E+03  0.00000000000E+00 0.  1.
         21    1    1    2  504  503  0.12639081891E+03 -0.89620591962E+01  0.22911510797E+01  0.12672887193E+03  0.00000000000E+00 0. -1.
         21    1    1    2  505  501 -0.46646864045E+02 -0.23013679894E+02 -0.17032575412E+02  0.54732696011E+02  0.00000000000E+00 0. -1.
         21    1    1    2  506  505 -0.34773620905E+02  0.15321908547E+02  0.68036654297E+01  0.38603826956E+02  0.00000000000E+00 0. -1.
<scales pt_clust_3="47.95499" pt_clust_4="101.84735" pt_clust_5="37.43856" pt_clust_6="37.43856"></scales>
<clustering>
<clus scale="   37.439">  5  6 -1 -1</clus>
<clus scale="   47.955">  2  3  1 -1</clus>
<clus scale="  101.847">  2  4  1 -1</clus>
<clus scale="  110.867">  1  3  2 -1</clus>
</clustering>
</event>
<event>
 6    0  0.8777103E+002  0.7980855E+02  0.7546771E-02  0.1329596E+00
         21   -1    0    0  506  501  0.00000000000E+00  0.00000000000E+00  0.14999924487E+04  0.14999924487E+04  0.00000000000E+00 0. -1.
         21   -1    0    0  504  502 -0.00000000000E+00 -0.00000000000E+00 -0.31140895461E+02  0.31140895461E+02  0.00000000000E+00 0.  1.
         21    1    1    2  503  502  0.10592320331E+03  0.20406936236E+02  0.35202442810E+03  0.36818115925E+03  0.00000000000E+00 0.  1.
         21    1    1    2  504  505  0.10012678631E+02  0.31133108394E+02  0.30796678751E+02  0.44921705152E+02  0.00000000000E+00 0.  1.
         21    1    1    2  505  501 -0.75259906744E+02 -0.33769178063E+02  0.94219371167E+02  0.12522659803E+03  0.00000000000E+00 0.  1.
         21    1    1    2  506  503 -0.40675975199E+02 -0.17770866567E+02  0.99181107526E+03  0.99280388178E+03  0.00000000000E+00 0. -1.
<scales pt_clust_3="79.80855" pt_clust_4="32.70358" pt_clust_5="14000.00000" pt_clust_6="43.94528"></scales>
<clustering>
<clus scale="   32.704">  2  4  1 -1</clus>
<clus scale="   43.945">  1  6  2 -1</clus>
<clus scale="   79.809">  1  3  2 -1</clus>
<clus scale="   43.945">  1  3  2 -1</clus>
</clustering>
</event>
<event>
 6    0  0.1425337E+003  0.1322691E+03  0.7546771E-02  0.1224127E+00
         21   -1    0    0  505  501  0.00000000000E+00  0.00000000000E+00  0.21294317903E+03  0.21294317903E+03  0.00000000000E+00 0.  1.
         21   -1    0    0  501  502 -0.00000000000E+00 -0.00000000000E+00 -0.11958613019E+04  0.11958613019E+04  0.00000000000E+00 0.  1.
         21    1    1    2  503  502 -0.74795358584E+02 -0.19227746179E+01 -0.75947505816E+03  0.76315162759E+03  0.00000000000E+00 0.  1.
         21    1    1    2  504  506  0.95778727981E+02  0.26217266878E+01 -0.27175507321E+01  0.95853133838E+02  0.00000000000E+00 0.  1.
         21    1    1    2  505  504  0.29185971497E+02  0.26720532455E+02  0.15999222400E+03  0.16481298349E+03  0.00000000000E+00 0.  1.
         21    1    1    2  506  503 -0.50169340895E+02 -0.27419484525E+02 -0.38071773796E+03  0.38498673600E+03  0.00000000000E+00 0.  1.
<scales pt_clust_3="36.09466" pt_clust_4="125.65896" pt_clust_5="39.57029" pt_clust_6="36.09466"></scales>
<clustering>
<clus scale="   36.095">  3  6 -1 -1</clus>
<clus scale="   39.570">  1  5  2 -1</clus>
<clus scale="  125.659">  1  4  2 -1</clus>
<clus scale="   39.570">  1  3  2 -1</clus>
</clustering>
</event>
<event>
 6    0  0.8777103E+002  0.1030085E+03  0.7546771E-02  0.1274094E+00
         21   -1    0    0  504  501  0.00000000000E+00  0.00000000000E+00  0.76113610395E+03  0.76113610395E+03  0.00000000000E+00 0.  1.
         21   -1    0    0  506  502 -0.00000000000E+00 -0.00000000000E+00 -0.26318636974E+03  0.26318636974E+03  0.00000000000E+00 0. -1.
         21    1    1    2  503  501 -0.21077698507E+02 -0.24647877497E+02  0.15047759576E+03  0.15393275826E+03  0.00000000000E+00 0.  1.
         21    1    1    2  504  502 -0.89129579377E+01  0.12361325926E+03  0.58469868091E+03  0.59768907146E+03  0.00000000000E+00 0.  1.
         21    1    1    2  505  503  0.39228607342E+02 -0.63148322831E+02 -0.21937505862E+03  0.23162903673E+03  0.00000000000E+00 0. -1.
         21    1    1    2  506  505 -0.92379508968E+01 -0.35817058927E+02 -0.17851483826E+02  0.41071607246E+02  0.00000000000E+00 0. -1.
<scales pt_clust_3="32.43127" pt_clust_4="14000.00000" pt_clust_5="103.00852" pt_clust_6="37.54561"></scales>
<clustering>
<clus scale="   32.431">  1  3  2 -1</clus>
<clus scale="   37.546">  2  6  1 -1</clus>
<clus scale="  103.009">  2  5  1 -1</clus>
<clus scale="   32.431">  1  3  2 -1</clus>
</clustering>
</event>
<event>
 6    0  0.8777103E+002  0.9978228E+02  0.7546771E-02  0.1280754E+00
         21   -1    0    0  506  501  0.00000000000E+00  0.00000000000E+00  0.51269429524E+03  0.51269429524E+03  0.00000000000E+00 0. -1.
         21   -1    0    0  504  502 -0.00000000000E+00 -0.00000000000E+00 -0.50895245307E+03  0.50895245307E+03  0.00000000000E+00 0. -1.
         21    1    1    2  503  501  0.83528146373E+02  0.55564866014E+02  0.46437253467E+03  0.47508552549E+03  0.00000000000E+00 0. -1.
         21    1    1    2  504  505 -0.92056798574E+01 -0.54836256429E+02 -0.28936773213E+03  0.29466157530E+03  0.00000000000E+00 0. -1.
         21    1    1    2  505  503  0.47875431672E+02 -0.33189540449E+02 -0.56210289647E+02  0.80951832686E+02  0.00000000000E+00 0. -1.
         21    1    1    2  506  502 -0.12219789819E+03  0.32460930863E+02 -0.11505267073E+03  0.17094781483E+03  0.00000000000E+00 0. -1.
<scales pt_clust_3="99.78228" pt_clust_4="55.60359" pt_clust_5="67.63617" pt_clust_6="14000.00000"></scales>
<clustering>
<clus scale="   55.604">  2  4  1 -1</clus>
<clus scale="   67.636">  2  5  1 -1</clus>
<clus scale="   99.782">  1  3  2 -1</clus>
<clus scale="   99.782">  1  3  2 -1</clus>
</clustering>
</event>
<event>
 6    0  0.8777103E+002  0.1286060E+03  0.7546771E-02  0.1229539E+00
         21   -1    0    0  504  501  0.00000000000E+00  0.00000000000E+00  0.23626748232E+04  0.23626748232E+04  0.00000000000E+00 0.  1.
         21   -1    0    0  505  502 -0.00000000000E+00 -0.00000000000E+00 -0.14559139765E+03  0.14559139765E+03  0.00000000000E+00 0.  1.
         21    1    1    2  503  506 -0.45928708965E+02  0.16156461998E+03  0.11465127795E+04  0.11587511062E+04  0.00000000000E+00 0.  1.
         21    1    1    2  504  502  0.61970972153E+01 -0.60382669500E+02  0.23368112184E+02  0.65042597249E+02  0.00000000000E+00 0.  1.
         21    1    1    2  505  503  0.34906469695E+02 -0.61852603355E+02 -0.10763499093E+03  0.12895540873E+03  0.00000000000E+00 0.  1.
         21    1    1    2  506  501  0.48251420543E+01 -0.39329347125E+02  0.11548375249E+04  0.11555171087E+04  0.00000000000E+00 0.  1.
<scales pt_clust_3="14000.00000" pt_clust_4="62.15017" pt_clust_5="128.60597" pt_clust_6="39.62423"></scales>
<clustering>
<clus scale="   39.624">  1  6  2 -1</clus>
<clus scale="   62.150">  2  4  1 -1</clus>
<clus scale="  128.606">  2  5  1 -1</clus>
<clus scale="   39.624">  1  3  2 -1</clus>
</clustering>
</event>
<event>
 6    0  0.8777103E+002  0.1159999E+03  0.7546771E-02  0.1249846E+00
         21   -1    0    0  502  501  0.00000000000E+00  0.00000000000E+00  0.11037306183E+04  0.11037306183E+04  0.00000000000E+00 0.  1.
         21   -1    0    0  504  502 -0.00000000000E+00 -0.00000000000E+00 -0.61949874258E+02  0.61949874258E+02  0.00000000000E+00 0. -1.
         21    1    1    2  503  505 -0.13872223915E+03 -0.39248100241E+02  0.55272546898E+03  0.57121774925E+03  0.00000000000E+00 0.  1.
         21    1    1    2  504  506  0.44852732209E+02 -0.28089398325E+02 -0.16201916116E+02  0.55346941836E+02  0.00000000000E+00 0. -1.
         21    1    1    2  505  501  0.13372094546E+02  0.32417690801E+02  0.40236386083E+03  0.40388908885E+03  0.00000000000E+00 0.  1.
         21    1    1    2  506  503  0.80497412394E+02  0.34919807765E+02  0.10289333037E+03  0.13522671264E+03  0.00000000000E+00 0.  1.
<scales pt_clust_3="14000.00000" pt_clust_4="52.76718" pt_clust_5="35.06736" pt_clust_6="115.99991"></scales>
<clustering>
<clus scale="   35.067">  1  5  2 -1</clus>
<clus scale="   52.767">  2  4  1 -1</clus>
<clus scale="  116.000">  2  6  1 -1</clus>
<clus scale="   35.067">  1  3  2 -1</clus>
</clustering>
</event>
<event>
 6    0  0.8777104E+002  0.1069497E+03  0.7546771E-02  0.1266325E+00
         21   -1    0    0  505  501  0.00000000000E+00  0.00000000000E+00  0.84949835005E+03  0.84949835005E+03  0.00000000000E+00 0.  1.
         21   -1    0    0  503  502 -0.00000000000E+00 -0.00000000000E+00 -0.50850610108E+03  0.50850610108E+03  0.00000000000E+00 0. -1.
         21    1    1    2  503  501  0.11719196714E+02 -0.36548028805E+02 -0.44163238148E+03  0.44329703174E+03  0.00000000000E+00 0. -1.
         21    1    1    2  504  502  0.22330024934E+02  0.24707761670E+02 -0.22790170528E+02  0.40354620218E+02  0.00000000000E+00 0. -1.
         21    1    1    2  505  506 -0.81445175694E+02  0.74916573877E+02  0.78512734261E+03  0.79288760477E+03  0.00000000000E+00 0.  1.
         21    1    1    2  506  504  0.47395954046E+02 -0.63076306741E+02  0.20287458357E+02  0.81465194400E+02  0.00000000000E+00 0. -1.
<scales pt_clust_3="35.18125" pt_clust_4="33.30321" pt_clust_5="14000.00000" pt_clust_6="106.94968"></scales>
<clustering>
<clus scale="   33.303">  2  4  1 -1</clus>
<clus scale="   35.181">  2  3  1 -1</clus>
<clus scale="  106.950">  2  6  1 -1</clus>
<clus scale="  106.950">  1  3  2 -1</clus>
</clustering>
</event>
<event>
 6    0  0.8777103E+002  0.1245737E+03  0.7546771E-02  0.1235737E+00
         21   -1    0    0  505  501  0.00000000000E+00  0.00000000000E+00  0.69827215670E+03  0.69827215670E+03  0.00000000000E+00 0.  1.
         21   -1    0    0  503  502 -0.00000000000E+00 -0.00000000000E+00 -0.18705091086E+04  0.18705091086E+04  0.00000000000E+00 0. -1.
         21    1    1    2  503  501  0.13105626710E+03  0.77440916296E+02  0.62677771870E+03  0.64499856536E+03  0.00000000000E+00 0.  1.
         21    1    1    2  504  506 -0.64742689326E+02 -0.75090958236E+02 -0.37829548466E+03  0.39107255279E+03  0.00000000000E+00 0. -1.
         21    1    1    2  505  504 -0.34594113812E+02  0.22726525941E+01  0.50437975037E+02  0.61203815127E+02  0.00000000000E+00 0. -1.
         21    1    1    2  506  502 -0.31719463960E+02 -0.46226106545E+01 -0.14711571609E+04  0.14715063320E+04  0.00000000000E+00 0. -1.
<scales pt_clust_3="124.57366" pt_clust_4="14000.00000" pt_clust_5="35.09153" pt_clust_6="32.05453"></scales>
<clustering>
<clus scale="   32.055">  2  6  1 -1</clus>
<clus scale="   35.092">  1  5  2 -1</clus>
<clus scale="  124.574">  1  3  2 -1</clus>
<clus scale="   35.092">  1  3  2 -1</clus>
</clustering>
</event>
<event>
 6    0  0.8777103E+002  0.8572401E+02  0.7546771E-02  0.1313550E+00
         21   -1    0    0  503  501  0.00000000000E+00  0.00000000000E+00  0.75191378126E+02  0.75191378126E+02  0.00000000000E+00 0.  1.
         21   -1    0    0  504  502 -0.00000000000E+00 -0.00000000000E+00 -0.48404516026E+03  0.48404516026E+03  0.00000000000E+00 0.  1.
         21    1    1    2  503  505 -0.32987760537E+02  0.92185467062E+01  0.10293974702E+02  0.35765064851E+02  0.00000000000E+00 0.  1.
         21    1    1    2  504  506 -0.56042082710E+01  0.87422147757E+02 -0.24754902776E+03  0.26259200333E+03  0.00000000000E+00 0.  1.
         21    1    1    2  505  502  0.10370399840E+03 -0.59982092410E+02 -0.87326836918E+02  0.14825096000E+03  0.00000000000E+00 0.  1.
         21    1    1    2  506  501 -0.65112029596E+02 -0.36658602053E+02 -0.84271892156E+02  0.11262851020E+03  0.00000000000E+00 0.  1.
<scales pt_clust_3="34.25163" pt_clust_4="14000.00000" pt_clust_5="85.72401" pt_clust_6="81.57237"></scales>
<clustering>
<clus scale="   34.252">  1  3  2 -1</clus>
<clus scale="   81.572">  1  6  2 -1</clus>
<clus scale="   85.724">  1  5  2 -1</clus>
<clus scale="   34.252">  1  3  2 -1</clus>
</clustering>
</event>
<event>
 6    0  0.8777103E+002  0.7722757E+02  0.7546771E-02  0.1337109E+00
         21   -1    0    0  506  501  0.00000000000E+00  0.00000000000E+00  0.88407357572E+03  0.88407357572E+03  0.00000000000E+00 0.  1.
         21   -1    0    0  504  502 -0.00000000000E+00 -0.00000000000E+00 -0.31975094951E+02  0.31975094951E+02  0.00000000000E+00 0.  1.
         21    1    1    2  503  505 -0.38123680119E+02  0.65427198494E+02  0.11441186877E+03  0.13720134476E+03  0.00000000000E+00 0.  1.
         21    1    1    2  504  501 -0.52185622200E+02 -0.85442529054E+02  0.29325546620E+03  0.30987502867E+03  0.00000000000E+00 0.  1.
         21    1    1    2  505  502  0.36806412713E+02  0.22251664491E+02  0.33368261743E+02  0.54436104574E+02  0.00000000000E+00 0.  1.
         21    1    1    2  506  503  0.53502889606E+02 -0.22363339301E+01  0.41106288405E+03  0.41453619267E+03  0.00000000000E+00 0.  1.
<scales pt_clust_3="14000.00000" pt_clust_4="77.22757" pt_clust_5="43.00987" pt_clust_6="56.48574"></scales>
<clustering>
<clus scale="   43.010">  2  5  1 -1</clus>
<clus scale="   56.486">  1  6  2 -1</clus>
<clus scale="   77.228">  1  4  2 -1</clus>
<clus scale="   56.486">  1  3  2 -1</clus>
</clustering>
</event>
<event>
 6    0  0.8777103E+002  0.8902863E+02  0.7546771E-02  0.1305221E+00
         21   -1    0    0  503  501  0.00000000000E+00  0.00000000000E+00  0.91684323047E+02  0.91684323047E+02  0.00000000000E+00 0.  1.
         21   -1    0    0  505  502 -0.00000000000E+00 -0.00000000000E+00 -0.15608728457E+04  0.15608728457E+04  0.00000000000E+00 0.  1.
         21    1    1    2  503  506 -0.40960866502E+01  0.77318635662E+02  0.56300983932E+02  0.95732701509E+02  0.00000000000E+00 0.  1.
         21    1    1    2  504  502  0.55518542426E+02 -0.21238799365E+02 -0.11263807150E+04  0.11279480974E+04  0.00000000000E+00 0.  1.
         21    1    1    2  505  501  0.35645169808E+02  0.78925567890E+01 -0.41357239401E+02  0.55166038776E+02  0.00000000000E+00 0.  1.
         21    1    1    2  506  504 -0.87067625584E+02 -0.63972393086E+02 -0.35775155217E+03  0.37371033111E+03  0.00000000000E+00 0. -1.
<scales pt_clust_3="89.02863" pt_clust_4="59.72434" pt_clust_5="36.50850" pt_clust_6="14000.00000"></scales>
<clustering>
<clus scale="   36.509">  1  5  2 -1</clus>
<clus scale="   59.724">  2  4  1 -1</clus>
<clus scale="   89.029">  1  3  2 -1</clus>
<clus scale="   36.509">  1  3  2 -1</clus>
</clustering>
</event>
<event>
 6    0  0.8777103E+002  0.5885893E+02  0.7546771E-02  0.1402684E+00
         21   -1    0    0  503  501  0.00000000000E+00  0.00000000000E+00  0.54894858272E+02  0.54894858272E+02  0.00000000000E+00 0.  1.
         21   -1    0    0  505  502 -0.00000000000E+00 -0.00000000000E+00 -0.62529736269E+03  0.62529736269E+03  0.00000000000E+00 0.  1.
         21    1    1    2  503  504 -0.41823156170E+02  0.17622581722E+02  0.35934761170E+00  0.45385690578E+02  0.00000000000E+00 0.  1.
         21    1    1    2  504  506  0.63393822769E+01 -0.86766333706E+02 -0.10834924814E+03  0.13895374772E+03  0.00000000000E+00 0.  1.
         21    1    1    2  505  501  0.60629729673E+02  0.19061336059E+02 -0.53378051634E+02  0.82997078556E+02  0.00000000000E+00 0.  1.
         21    1    1    2  506  502 -0.25145955781E+02  0.50082415925E+02 -0.40903455226E+03  0.41285570411E+03  0.00000000000E+00 0.  1.
<scales pt_clust_3="45.38427" pt_clust_4="14000.00000" pt_clust_5="49.44817" pt_clust_6="58.85893"></scales>
<clustering>
<clus scale="   45.384">  1  3  2 -1</clus>
<clus scale="   49.448">  1  5  2 -1</clus>
<clus scale="   58.859">  2  6  1 -1</clus>
<clus scale="   45.384">  1  3  2 -1</clus>
</clustering>
</event>
<event>
 6    0  0.8777103E+002  0.1503062E+03  0.7546771E-02  0.1200097E+00
         21   -1    0    0  506  501  0.00000000000E+00  0.00000000000E+00  0.12894958730E+03  0.12894958730E+03  0.00000000000E+00 0.  1.
         21   -1    0    0  503  502 -0.00000000000E+00 -0.00000000000E+00 -0.16732124392E+04  0.16732124392E+04  0.00000000000E+00 0. -1.
         21    1    1    2  503  501  0.49400699438E+02 -0.28603541415E+02 -0.10130392737E+03  0.11628016765E+03  0.00000000000E+00 0.  1.
         21    1    1    2  504  502 -0.46262068008E+02  0.36980594016E+02 -0.77706978020E+03  0.77932354422E+03  0.00000000000E+00 0. -1.
         21    1    1    2  505  504  0.14277324270E+03  0.29036052030E+02 -0.72887048161E+03  0.74328962734E+03  0.00000000000E+00 0. -1.
         21    1    1    2  506  505 -0.14591187413E+03 -0.37413104631E+02  0.62981337271E+02  0.16326868731E+03  0.00000000000E+00 0.  1.
<scales pt_clust_3="57.08408" pt_clust_4="31.43329" pt_clust_5="150.30618" pt_clust_6="14000.00000"></scales>
<clustering>
<clus scale="   57.084">  2  3  1 -1</clus>
<clus scale="   31.433">  2  4  1 -1</clus>
<clus scale="  150.306">  2  5  1 -1</clus>
<clus scale="  150.306">  1  3  2 -1</clus>
</clustering>
</event>
<event>
 6    0  0.8777103E+002  0.1209088E+03  0.7546771E-02  0.1241605E+00
         21   -1    0    0  502  501  0.00000000000E+00  0.00000000000E+00  0.66110905435E+02  0.66110905435E+02  0.00000000000E+00 0. -1.
         21   -1    0    0  506  502 -0.00000000000E+00 -0.00000000000E+00 -0.22947765664E+04  0.22947765664E+04  0.00000000000E+00 0.  1.
         21    1    1    2  503  505  0.67421609145E+02  0.53961925752E+02 -0.20179747195E+03  0.21949893507E+03  0.00000000000E+00 0.  1.
         21    1    1    2  504  503 -0.10945518926E+03 -0.97059932401E+02 -0.89635375080E+03  0.90821314432E+03  0.00000000000E+00 0.  1.
         21    1    1    2  505  501  0.82104072949E+01  0.72368346920E+02  0.24842564313E+02  0.76952851965E+02  0.00000000000E+00 0. -1.
         21    1    1    2  506  504  0.33823172821E+02 -0.29270340272E+02 -0.11553570026E+04  0.11562225405E+04  0.00000000000E+00 0.  1.
<scales pt_clust_3="14000.00000" pt_clust_4="120.90882" pt_clust_5="72.25945" pt_clust_6="44.72985"></scales>
<clustering>
<clus scale="   44.730">  2  6  1 -1</clus>
<clus scale="   72.259">  1  5  2 -1</clus>
<clus scale="  120.909">  2  4  1 -1</clus>
<clus scale="   72.259">  1  3  2 -1</clus>
</clustering>
</event>
<event>
 6    0  0.8777103E+002  0.6757468E+02  0.7546771E-02  0.1368540E+00
         21   -1    0    0  503  501  0.00000000000E+00  0.00000000000E+00  0.12170735058E+04  0.12170735058E+04  0.00000000000E+00 0. -1.
         21   -1    0    0  505  502 -0.00000000000E+00 -0.00000000000E+00 -0.66979460897E+02  0.66979460897E+02  0.00000000000E+00 0.  1.
         21    1    1    2  503  506 -0.72271963570E+02  0.82979527691E+02  0.27952378425E+03  0.30040370287E+03  0.00000000000E+00 0.  1.
         21    1    1    2  504  501  0.32952079472E+02 -0.41909779190E+02  0.86828679773E+03  0.86992196906E+03  0.00000000000E+00 0. -1.
         21    1    1    2  505  504  0.31610829513E+02 -0.73520362066E+02 -0.22939911725E+01  0.80060917908E+02  0.00000000000E+00 0.  1.
         21    1    1    2  506  502  0.77090545852E+01  0.32450613565E+02  0.45774540600E+01  0.33666376833E+02  0.00000000000E+00 0.  1.
<scales pt_clust_3="14000.00000" pt_clust_4="52.99104" pt_clust_5="67.57468" pt_clust_6="33.35374"></scales>
<clustering>
<clus scale="   33.354">  2  6  1 -1</clus>
<clus scale="   52.991">  1  4  2 -1</clus>
<clus scale="   67.575">  2  5  1 -1</clus>
<clus scale="   52.991">  1  3  2 -1</clus>
</clustering>
</event>
<event>
 6    0  0.8777103E+002  0.1260650E+03  0.7546771E-02  0.1233414E+00
         21   -1    0    0  506  501  0.00000000000E+00  0.00000000000E+00  0.29579289623E+02  0.29579289623E+02  0.00000000000E+00 0. -1.
         21   -1    0    0  504  502 -0.00000000000E+00 -0.00000000000E+00 -0.22362285982E+04  0.22362285982E+04  0.00000000000E+00 0.  1.
         21    1    1    2  503  501 -0.14691308588E+03 -0.19649968930E+02 -0.22896943726E+03  0.27275736339E+03  0.00000000000E+00 0. -1.
         21    1    1    2  504  503  0.30320780636E+02 -0.23668645567E+02 -0.20568812064E+03  0.20925381118E+03  0.00000000000E+00 0.  1.
         21    1    1    2  505  502  0.38004788046E+02 -0.14095599612E+02 -0.13546658287E+04  0.13552721340E+04  0.00000000000E+00 0.  1.
         21    1    1    2  506  505  0.78587517201E+02  0.57414214109E+02 -0.41732592193E+03  0.42852457917E+03  0.00000000000E+00 0. -1.
<scales pt_clust_3="14000.00000" pt_clust_4="38.46498" pt_clust_5="65.48217" pt_clust_6="126.06499"></scales>
<clustering>
<clus scale="   38.465">  2  4  1 -1</clus>
<clus scale="   65.482">  2  5  1 -1</clus>
<clus scale="  126.065">  2  6  1 -1</clus>
<clus scale="  126.065">  1  3  2 -1</clus>
</clustering>
</event>
<event>
 6    0  0.8777103E+002  0.1052092E+03  0.7546771E-02  0.1269708E+00
         21   -1    0    0  504  501  0.00000000000E+00  0.00000000000E+00  0.80873376175E+03  0.80873376175E+03  0.00000000000E+00 0. -1.
         21   -1    0    0  505  502 -0.00000000000E+00 -0.00000000000E+00 -0.17151836273E+04  0.17151836273E+04  0.00000000000E+00 0. -1.
         21    1    1    2  503  502  0.17630356260E+01 -0.34047262793E+02 -0.11230324460E+03  0.11736414761E+03  0.00000000000E+00 0. -1.
         21    1    1    2  504  503 -0.89024503227E+02  0.28522275159E+02 -0.36292439437E+02  0.10027972634E+03  0.00000000000E+00 0.  1.
         21    1    1    2  505  506  0.10222982829E+03  0.65418369342E+02 -0.15284236750E+04  0.15332349563E+04  0.00000000000E+00 0. -1.
         21    1    1    2  506  501 -0.14968360692E+02 -0.59893381709E+02  0.77056949353E+03  0.77303855877E+03  0.00000000000E+00 0. -1.
<scales pt_clust_3="34.09288" pt_clust_4="105.20917" pt_clust_5="14000.00000" pt_clust_6="61.76063"></scales>
<clustering>
<clus scale="   34.093">  2  3  1 -1</clus>
<clus scale="   61.761">  1  6  2 -1</clus>
<clus scale="  105.209">  1  4  2 -1</clus>
<clus scale="   61.761">  1  3  2 -1</clus>
</clustering>
</event>
<event>
 6    0  0.8777103E+002  0.1288466E+03  0.7546771E-02  0.1229177E+00
         21   -1    0    0  504  501  0.00000000000E+00  0.00000000000E+00  0.10760709966E+04  0.10760709966E+04  0.00000000000E+00 0.  1.
         21   -1    0    0  506  502 -0.00000000000E+00 -0.00000000000E+00 -0.12567306596E+04  0.12567306596E+04  0.00000000000E+00 0.  1.
         21    1    1    2  503  505 -0.93606886974E+02 -0.35428509136E+02  0.13210288716E+03  0.16573654197E+03  0.00000000000E+00 0.  1.
         21    1    1    2  504  502 -0.67619126047E+02  0.54361225298E+02 -0.14806375880E+03  0.17161108849E+03  0.00000000000E+00 0.  1.
         21    1    1    2  505  501  0.22798823516E+02  0.34847904727E+02  0.90979425465E+03  0.91074680818E+03  0.00000000000E+00 0.  1.
         21    1    1    2  506  503  0.13842718950E+03 -0.53780620889E+02 -0.10744930460E+04  0.10847072176E+04  0.00000000000E+00 0.  1.
<scales pt_clust_3="73.24574" pt_clust_4="14000.00000" pt_clust_5="41.64328" pt_clust_6="128.84660"></scales>
<clustering>
<clus scale="   41.643">  1  5  2 -1</clus>
<clus scale="   73.246">  1  3  2 -1</clus>
<clus scale="  128.847">  2  6  1 -1</clus>
<clus scale="   41.643">  1  3  2 -1</clus>
</clustering>
</event>
<event>
 6    0  0.8777103E+002  0.1036242E+03  0.7546771E-02  0.1272854E+00
         21   -1    0    0  505  501  0.00000000000E+00  0.00000000000E+00  0.16331909137E+03  0.16331909137E+03  0.00000000000E+00 0. -1.
         21   -1    0    0  506  502 -0.00000000000E+00 -0.00000000000E+00 -0.27890804089E+03  0.27890804089E+03  0.00000000000E+00 0. -1.
         21    1    1    2  503  504 -0.13731782734E+02  0.15046153009E+03 -0.12097531926E+03  0.19355170308E+03  0.00000000000E+00 0. -1.
         21    1    1    2  504  501 -0.13541815480E+01 -0.69533774849E+02 -0.29893870276E+02  0.75699558338E+02  0.00000000000E+00 0. -1.
         21    1    1    2  505  502 -0.11838472713E+02 -0.59116398900E+02  0.89928370021E+02  0.10826823075E+03  0.00000000000E+00 0. -1.
         21    1    1    2  506  503  0.26924436995E+02 -0.21811356339E+02 -0.54648130007E+02  0.64707640090E+02  0.00000000000E+00 0. -1.
<scales pt_clust_3="103.62420" pt_clust_4="14000.00000" pt_clust_5="60.97705" pt_clust_6="34.65055"></scales>
<clustering>
<clus scale="   34.651">  2  6  1 -1</clus>
<clus scale="   60.977">  1  5  2 -1</clus>
<clus scale="  103.624">  2  3  1 -1</clus>
<clus scale="   60.977">  1  3  2 -1</clus>
</clustering>
</event>
<event>
 6    0  0.8777103E+002  0.7898729E+02  0.7546771E-02  0.1331950E+00
         21   -1    0    0  504  501  0.00000000000E+00  0.00000000000E+00  0.26652854074E+03  0.26652854074E+03  0.00000000000E+00 0. -1.
         21   -1    0    0  505  502 -0.00000000000E+00 -0.00000000000E+00 -0.14997707240E+03  0.14997707240E+03  0.00000000000E+00 0.  1.
         21    1    1    2  503  501 -0.10093846002E+03 -0.11625467613E+02 -0.30737619078E+02  0.10615331100E+03  0.00000000000E+00 0.  1.
         21    1    1    2  504  506  0.73697255145E+02  0.20585114137E+02  0.17856934132E+03  0.19427311188E+03  0.00000000000E+00 0. -1.
         21    1    1    2  505  503  0.48381205039E+02 -0.39926685530E+02  0.62366865663E+01  0.63037905087E+02  0.00000000000E+00 0.  1.
         21    1    1    2  506  502 -0.21140000163E+02  0.30967039006E+02 -0.37516940467E+02  0.53041285181E+02  0.00000000000E+00 0.  1.
<scales pt_clust_3="14000.00000" pt_clust_4="78.98729" pt_clust_5="53.03454" pt_clust_6="37.49476"></scales>
<clustering>
<clus scale="   37.495">  2  6  1 -1</clus>
<clus scale="   53.035">  2  5  1 -1</clus>
<clus scale="   78.987">  1  4  2 -1</clus>
<clus scale="   78.987">  1  3  2 -1</clus>
</clustering>
</event>
<event>
 6    0  0.1368678E+003  0.8032854E+02  0.7546771E-02  0.1328122E+00
         21   -1    0    0  505  501  0.00000000000E+00  0.00000000000E+00  0.28332392027E+03  0.28332392027E+03  0.00000000000E+00 0. -1.
         21   -1    0    0  504  502 -0.00000000000E+00 -0.00000000000E+00 -0.13107798527E+04  0.13107798527E+04  0.00000000000E+00 0. -1.
         21    1    1    2  503  502  0.49008601896E+02 -0.10388996060E+02 -0.11955162592E+04  0.11965654601E+04  0.00000000000E+00 0. -1.
         21    1    1    2  504  506  0.24276065758E+02 -0.22861794212E+02 -0.63491762909E+02  0.71716057899E+02  0.00000000000E+00 0.  1.
         21    1    1    2  505  503 -0.11820246861E+03  0.53439334960E+02  0.24282466473E+03  0.27530238631E+03  0.00000000000E+00 0. -1.
         21    1    1    2  506  501  0.44917800955E+02 -0.20188544688E+02 -0.11272575018E+02  0.50519868634E+02  0.00000000000E+00 0.  1.
<scales pt_clust_3="14000.00000" pt_clust_4="33.34650" pt_clust_5="80.32854" pt_clust_6="50.03013"></scales>
<clustering>
<clus scale="   33.346">  2  4  1 -1</clus>
<clus scale="   50.030">  1  6  2 -1</clus>
<clus scale="   80.329">  1  5  2 -1</clus>
<clus scale="   50.030">  1  3  2 -1</clus>
</clustering>
</event>
<event>
 6    0  0.8777103E+002  0.9053831E+02  0.7546771E-02  0.1301553E+00
         21   -1    0    0  506  501  0.00000000000E+00  0.00000000000E+00  0.89736995163E+03  0.89736995163E+03  0.00000000000E+00 0.  1.
         21   -1    0    0  504  502 -0.00000000000E+00 -0.00000000000E+00 -0.12487708783E+04  0.12487708783E+04  0.00000000000E+00 0. -1.
         21    1    1    2  503  502 -0.47772249213E+02  0.43304972042E+02 -0.12043032237E+04  0.12060280938E+04  0.00000000000E+00 0. -1.
         21    1    1    2  504  501 -0.89939662174E+01  0.71943776493E+02  0.49706942120E+02  0.87906646503E+02  0.00000000000E+00 0.  1.
         21    1    1    2  505  503  0.81852442077E+02 -0.24521735263E+02  0.63280479130E+02  0.10632759197E+03  0.00000000000E+00 0.  1.
         21    1    1    2  506  505 -0.25086226646E+02 -0.90727013272E+02  0.73991487584E+03  0.74587849761E+03  0.00000000000E+00 0.  1.
<scales pt_clust_3="64.47874" pt_clust_4="14000.00000" pt_clust_5="58.35692" pt_clust_6="90.53831"></scales>
<clustering>
<clus scale="   64.479">  2  3  1 -1</clus>
<clus scale="   58.357">  2  5  1 -1</clus>
<clus scale="   90.538">  1  6  2 -1</clus>
<clus scale="   90.538">  1  3  2 -1</clus>
</clustering>
</event>
<event>
 6    0  0.8777103E+002  0.2425437E+03  0.7546771E-02  0.1118110E+00
         21   -1    0    0  505  501  0.00000000000E+00  0.00000000000E+00  0.13788925691E+04  0.13788925691E+04  0.00000000000E+00 0.  1.
         21   -1    0    0  504  502 -0.00000000000E+00 -0.00000000000E+00 -0.93282978088E+03  0.93282978088E+03  0.00000000000E+00 0. -1.
         21    1    1    2  503  506 -0.15860167051E+03  0.90474747886E+02  0.88031076607E+03  0.89904794909E+03  0.00000000000E+00 0.  1.
         21    1    1    2  504  503  0.13730933262E+03 -0.86756505138E+02 -0.18816172312E+03  0.24856664711E+03  0.00000000000E+00 0. -1.
         21    1    1    2  505  502  0.76692633810E+02  0.12906727219E+02 -0.70111616850E+03  0.70541634899E+03  0.00000000000E+00 0. -1.
         21    1    1    2  506  501 -0.55400295919E+02 -0.16624969967E+02  0.45502991375E+03  0.45869140479E+03  0.00000000000E+00 0.  1.
<scales pt_clust_3="53.60417" pt_clust_4="223.06201" pt_clust_5="77.77110" pt_clust_6="53.60417"></scales>
<clustering>
<clus scale="   53.604">  3  6 -1 -1</clus>
<clus scale="   77.771">  2  5  1 -1</clus>
<clus scale="  223.062">  2  4  1 -1</clus>
<clus scale="  242.544">  1  3  2 -1</clus>
</clustering>
</event>
<event>
 6    0  0.8777103E+002  0.9509939E+02  0.7546771E-02  0.1290952E+00
         21   -1    0    0  506  501  0.00000000000E+00  0.00000000000E+00  0.94478813377E+03  0.94478813377E+03  0.00000000000E+00 0.  1.
         21   -1    0    0  505  502 -0.00000000000E+00 -0.00000000000E+00 -0.34632280557E+03  0.34632280557E+03  0.00000000000E+00 0.  1.
         21    1    1    2  503  501  0.19856862294E+02  0.38784913461E+02  0.48981254377E+03  0.49174677683E+03  0.00000000000E+00 0.  1.
         21    1    1    2  504  502  0.10612879924E+03 -0.63428325376E+02 -0.21172790162E+03  0.24518396932E+03  0.00000000000E+00 0.  1.
         21    1    1    2  505  503 -0.31213493728E+02  0.57332801074E+01 -0.10927505971E+03  0.11379011981E+03  0.00000000000E+00 0.  1.
         21    1    1    2  506  504 -0.94772167807E+02  0.18910131807E+02  0.42965574575E+03  0.44039007338E+03  0.00000000000E+00 0.  1.
<scales pt_clust_3="43.53513" pt_clust_4="95.09939" pt_clust_5="31.73567" pt_clust_6="14000.00000"></scales>
<clustering>
<clus scale="   31.736">  2  5  1 -1</clus>
<clus scale="   43.535">  1  3  2 -1</clus>
<clus scale="   95.099">  2  4  1 -1</clus>
<clus scale="   43.535">  1  3  2 -1</clus>
</clustering>
</event>
<event>
 6    0  0.8777103E+002  0.9262065E+02  0.7546771E-02  0.1296627E+00
         21   -1    0    0  503  501  0.00000000000E+00  0.00000000000E+00  0.45007264299E+02  0.45007264299E+02  0.00000000000E+00 0.  1.
         21   -1    0    0  505  502 -0.00000000000E+00 -0.00000000000E+00 -0.13029416128E+04  0.13029416128E+04  0.00000000000E+00 0.  1.
         21    1    1    2  503  506  0.70086364640E+02  0.12358010188E+02 -0.95059913606E+02  0.11874849935E+03  0.00000000000E+00 0. -1.
         21    1    1    2  504  502 -0.28664686399E+02  0.29409093349E+02 -0.13217864873E+03  0.13841153926E+03  0.00000000000E+00 0.  1.
         21    1    1    2  505  501  0.71124668471E+02 -0.11280512971E+02 -0.94081129572E+03  0.94356338557E+03  0.00000000000E+00 0.  1.
         21    1    1    2  506  504 -0.11254634671E+03 -0.30486590567E+02 -0.89884490427E+02  0.14722545290E+03  0.00000000000E+00 0.  1.
<scales pt_clust_3="14000.00000" pt_clust_4="41.06774" pt_clust_5="49.58331" pt_clust_6="92.62065"></scales>
<clustering>
<clus scale="   41.068">  2  4  1 -1</clus>
<clus scale="   49.583">  2  5  1 -1</clus>
<clus scale="   92.621">  2  6  1 -1</clus>
<clus scale="   92.621">  1  3  2 -1</clus>
</clustering>
</event>
<event>
 6    0  0.8777103E+002  0.1409452E+03  0.7546771E-02  0.1212063E+00
         21   -1    0    0  503  501  0.00000000000E+00  0.00000000000E+00  0.14465916248E+03  0.14465916248E+03  0.00000000000E+00 0.  1.
         21   -1    0    0  505  502 -0.00000000000E+00 -0.00000000000E+00 -0.68978099033E+03  0.68978099033E+03  0.00000000000E+00 0.  1.
         21    1    1    2  503  504 -0.21567001939E+02  0.11879583979E+03 -0.72685360753E+02  0.14092816891E+03  0.00000000000E+00 0.  1.
         21    1    1    2  504  502 -0.85779527153E+02  0.35050553822E+02 -0.46847500648E+03  0.47755156821E+03  0.00000000000E+00 0.  1.
         21    1    1    2  505  506  0.19913866022E+02 -0.24107827666E+02 -0.44459093678E+02  0.54354028603E+02  0.00000000000E+00 0. -1.
         21    1    1    2  506  501  0.87432663069E+02 -0.12973856595E+03  0.40497633062E+02  0.16160638709E+03  0.00000000000E+00 0.  1.
<scales pt_clust_3="140.94519" pt_clust_4="73.13203" pt_clust_5="31.26898" pt_clust_6="14000.00000"></scales>
<clustering>
<clus scale="   31.269">  2  5  1 -1</clus>
<clus scale="   73.132">  2  4  1 -1</clus>
<clus scale="  140.945">  2  3  1 -1</clus>
<clus scale="  140.945">  1  3  2 -1</clus>
</clustering>
</event>
<event>
 6    0  0.8777103E+002  0.7655857E+02  0.7546771E-02  0.1339111E+00
         21   -1    0    0  506  501  0.00000000000E+00  0.00000000000E+00  0.18773843140E+03  0.18773843140E+03  0.00000000000E+00 0.  1.
         21   -1    0    0  504  502 -0.00000000000E+00 -0.00000000000E+00 -0.80303838222E+03  0.80303838222E+03  0.00000000000E+00 0.  1.
         21    1    1    2  503  502 -0.54580783891E+02  0.14293117955E+02 -0.17899418575E+03  0.18767598068E+03  0.00000000000E+00 0.  1.
         21    1    1    2  504  505 -0.24267297555E+02 -0.22140184501E+02 -0.57246565605E+03  0.57340737426E+03  0.00000000000E+00 0.  1.
         21    1    1    2  505  501  0.12224390450E+03  0.23403329169E+02  0.13494231344E+03  0.18357754754E+03  0.00000000000E+00 0.  1.
         21    1    1    2  506  503 -0.43395823050E+02 -0.15556262623E+02  0.12175775443E+01  0.46115911138E+02  0.00000000000E+00 0.  1.
<scales pt_clust_3="76.55857" pt_clust_4="32.84950" pt_clust_5="14000.00000" pt_clust_6="49.07295"></scales>
<clustering>
<clus scale="   32.849">  2  4  1 -1</clus>
<clus scale="   49.073">  1  6  2 -1</clus>
<clus scale="   76.559">  2  3  1 -1</clus>
<clus scale="   49.073">  1  3  2 -1</clus>
</clustering>
</event>
<event>
 6    0  0.8777103E+002  0.1052647E+03  0.7546771E-02  0.1269599E+00
         21   -1    0    0  504  501  0.00000000000E+00  0.00000000000E+00  0.24226825618E+04  0.24226825618E+04  0.00000000000E+00 0.  1.
         21   -1    0    0  505  502 -0.00000000000E+00 -0.00000000000E+00 -0.33077252467E+02  0.33077252467E+02  0.00000000000E+00 0.  1.
         21    1    1    2  503  506  0.30954729760E+02  0.11346811219E+03  0.18643980489E+04  0.18681041974E+04  0.00000000000E+00 0.  1.
         21    1    1    2  504  503  0.43733566298E+02 -0.32670398482E+02  0.31771729758E+03  0.32237286011E+03  0.00000000000E+00 0.  1.
         21    1    1    2  505  501 -0.10186368405E+02 -0.97669048710E+02  0.11414391541E+03  0.15057170585E+03  0.00000000000E+00 0.  1.
         21    1    1    2  506  502 -0.64501927653E+02  0.16871335002E+02  0.93346047456E+02  0.11471105087E+03  0.00000000000E+00 0.  1.
<scales pt_clust_3="105.26469" pt_clust_4="54.58919" pt_clust_5="14000.00000" pt_clust_6="64.17760"></scales>
<clustering>
<clus scale="   54.589">  1  4  2 -1</clus>
<clus scale="   64.178">  2  6  1 -1</clus>
<clus scale="  105.265">  1  3  2 -1</clus>
<clus scale="   54.589">  1  3  2 -1</clus>
</clustering>
</event>
<event>
 6    0  0.8777103E+002  0.1805425E+03  0.7546771E-02  0.1167279E+00
         21   -1    0    0  506  501  0.00000000000E+00  0.00000000000E+00  0.71871230337E+03  0.71871230337E+03  0.00000000000E+00 0. -1.
         21   -1    0    0  505  502 -0.00000000000E+00 -0.00000000000E+00 -0.15631324078E+03  0.15631324078E+03  0.00000000000E+00 0. -1.
         21    1    1    2  503  502 -0.17042618303E+03  0.53491929730E+01 -0.81459546281E+02  0.18896919169E+03  0.00000000000E+00 0. -1.
         21    1    1    2  504  503  0.12361994241E+03 -0.40537380180E+02  0.37779169423E+03  0.39956442983E+03  0.00000000000E+00 0. -1.
         21    1    1    2  505  501  0.18425846350E+02  0.52409022364E+02  0.23339127768E+03  0.23991187119E+03  0.00000000000E+00 0. -1.
         21    1    1    2  506  504  0.28380394266E+02 -0.17220835158E+02  0.32675636953E+02  0.46580051444E+02  0.00000000000E+00 0.  1.
<scales pt_clust_3="168.74317" pt_clust_4="32.42892" pt_clust_5="55.55373" pt_clust_6="32.42892"></scales>
<clustering>
<clus scale="   32.429">  4  6 -1 -1</clus>
<clus scale="   55.554">  1  5  2 -1</clus>
<clus scale="  168.743">  2  3  1 -1</clus>
<clus scale="   55.554">  1  3  2 -1</clus>
</clustering>
</event>
<event>
 6    0  0.8777103E+002  0.8402122E+02  0.7546771E-02  0.1318012E+00
         21   -1    0    0  505  501  0.00000000000E+00  0.00000000000E+00  0.11044172958E+03  0.11044172958E+03  0.00000000000E+00 0.  1.
         21   -1    0    0  504  502 -0.00000000000E+00 -0.00000000000E+00 -0.13610621235E+04  0.13610621235E+04  0.00000000000E+00 0. -1.
         21    1    1    2  503  506 -0.77556770514E+00  0.98254724623E+02 -0.57508902174E+02  0.11385019212E+03  0.00000000000E+00 0.  1.
         21    1    1    2  504  503  0.36662831525E+02  0.24243367408E+02 -0.25731016532E+03  0.26103721048E+03  0.00000000000E+00 0.  1.
         21    1    1    2  505  502  0.24210514501E+02 -0.84764288341E+02 -0.99822240394E+03  0.10021073302E+04  0.00000000000E+00 0. -1.
         21    1    1    2  506  501 -0.60097778321E+02 -0.37733803690E+02  0.62421077485E+02  0.94509120271E+02  0.00000000000E+00 0.  1.
<scales pt_clust_3="84.02122" pt_clust_4="43.95343" pt_clust_5="14000.00000" pt_clust_6="70.32204"></scales>
<clustering>
<clus scale="   43.953">  2  4  1 -1</clus>
<clus scale="   70.322">  1  6  2 -1</clus>
<clus scale="   84.021">  1  3  2 -1</clus>
<clus scale="   70.322">  1  3  2 -1</clus>
</clustering>
</event>
<event>
 6    0  0.8777103E+002  0.1184919E+03  0.7546771E-02  0.1245606E+00
         21   -1    0    0  505  501  0.00000000000E+00  0.00000000000E+00  0.37082708800E+02  0.37082708800E+02  0.00000000000E+00 0. -1.
         21   -1    0    0  506  502 -0.00000000000E+00 -0.00000000000E+00 -0.10614518488E+04  0.10614518488E+04  0.00000000000E+00 0. -1.
         21    1    1    2  503  501  0.11676264644E+02  0.34109068063E+02 -0.19874534725E+02  0.41167472727E+02  0.00000000000E+00 0. -1.
         21    1    1    2  504  503 -0.32570720568E+02 -0.27447682907E+02 -0.32595359220E+02  0.53634732944E+02  0.00000000000E+00 0. -1.
         21    1    1    2  505  502  0.10825577131E+03 -0.75865563753E+02 -0.40653131855E+03  0.42748404502E+03  0.00000000000E+00 0. -1.
         21    1    1    2  506  504 -0.87361315387E+02  0.69204178597E+02 -0.56536792745E+03  0.57624830686E+03  0.00000000000E+00 0. -1.
<scales pt_clust_3="36.05224" pt_clust_4="31.18145" pt_clust_5="14000.00000" pt_clust_6="118.49193"></scales>
<clustering>
<clus scale="   36.052">  1  3  2 -1</clus>
<clus scale="   31.181">  1  4  2 -1</clus>
<clus scale="  118.492">  2  6  1 -1</clus>
<clus scale="   36.052">  1  3  2 -1</clus>
</clustering>
</event>
<event>
 6    0  0.8777103E+002  0.1280467E+03  0.7546771E-02  0.1230383E+00
         21   -1    0    0  504  501  0.00000000000E+00  0.00000000000E+00  0.97219464793E+03  0.97219464793E+03  0.00000000000E+00 0.  1.
         21   -1    0    0  503  502 -0.00000000000E+00 -0.00000000000E+00 -0.33925275386E+03  0.33925275386E+03  0.00000000000E+00 0.  1.
         21    1    1    2  503  505 -0.82830205207E+02 -0.56009216778E+02 -0.40458600149E+02  0.10786460766E+03  0.00000000000E+00 0.  1.
         21    1    1    2  504  502  0.15953799917E+03 -0.77590490632E+02  0.16251707775E+03  0.24059189092E+03  0.00000000000E+00 0.  1.
         21    1    1    2  505  506  0.45275770751E+02  0.12096862867E+03 -0.20192937987E+03  0.23970560901E+03  0.00000000000E+00 0.  1.
         21    1    1    2  506  501 -0.12198356471E+03  0.12631078741E+02  0.71281279633E+03  0.72328529421E+03  0.00000000000E+00 0.  1.
<scales pt_clust_3="99.98938" pt_clust_4="14000.00000" pt_clust_5="78.00766" pt_clust_6="128.04673"></scales>
<clustering>
<clus scale="   99.989">  2  3  1 -1</clus>
<clus scale="   78.008">  2  5  1 -1</clus>
<clus scale="  128.047">  1  6  2 -1</clus>
<clus scale="  128.047">  1  3  2 -1</clus>
</clustering>
</event>
<event>
 6    0  0.8777103E+002  0.1162733E+03  0.7546771E-02  0.1249375E+00
         21   -1    0    0  506  501  0.00000000000E+00  0.00000000000E+00  0.99125563859E+02  0.99125563859E+02  0.00000000000E+00 0.  1.
         21   -1    0    0  504  502 -0.00000000000E+00 -0.00000000000E+00 -0.55508218651E+03  0.55508218651E+03  0.00000000000E+00 0.  1.
         21    1    1    2  503  505 -0.30671557898E+02  0.10103284344E+03 -0.22053288424E+03  0.24450589553E+03  0.00000000000E+00 0.  1.
         21    1    1    2  504  501  0.63303845173E+02  0.87236345532E+02 -0.47648014083E+02  0.11784689237E+03  0.00000000000E+00 0. -1.
         21    1    1    2  505  502 -0.36294445090E+02 -0.18702978390E+02 -0.82991136274E+02  0.92491171714E+02  0.00000000000E+00 0. -1.
         21    1    1    2  506  503  0.36621578147E+01 -0.16956621058E+03 -0.10478458806E+03  0.19936379076E+03  0.00000000000E+00 0.  1.
<scales pt_clust_3="116.27327" pt_clust_4="101.38257" pt_clust_5="40.82999" pt_clust_6="14000.00000"></scales>
<clustering>
<clus scale="   40.830">  2  5  1 -1</clus>
<clus scale="  101.383">  1  4  2 -1</clus>
<clus scale="  116.273">  2  3  1 -1</clus>
<clus scale="  101.383">  1  3  2 -1</clus>
</clustering>
</event>
<event>
 6    0  0.8777103E+002  0.6775955E+02  0.7546771E-02  0.1367882E+00
         21   -1    0    0  503  501  0.00000000000E+00  0.00000000000E+00  0.33504529673E+03  0.33504529673E+03  0.00000000000E+00 0. -1.
         21   -1    0    0  505  502 -0.00000000000E+00 -0.00000000000E+00 -0.63110019017E+03  0.63110019017E+03  0.00000000000E+00 0. -1.
         21    1    1    2  503  506  0.79727590990E+02 -0.62341337986E+02 -0.15840812531E+03  0.18797889602E+03  0.00000000000E+00 0. -1.
         21    1    1    2  504  501 -0.51316326393E+01  0.61810268504E+02  0.30905248430E+03  0.31521465860E+03  0.00000000000E+00 0. -1.
         21    1    1    2  505  504 -0.56136037171E+02 -0.32920665130E+02 -0.14615021238E+03  0.15998409121E+03  0.00000000000E+00 0. -1.
         21    1    1    2  506  502 -0.18459921180E+02  0.33451734613E+02 -0.30054904005E+03  0.30296784106E+03  0.00000000000E+00 0. -1.
<scales pt_clust_3="14000.00000" pt_clust_4="62.34926" pt_clust_5="67.75955" pt_clust_6="38.20716"></scales>
<clustering>
<clus scale="   38.207">  2  6  1 -1</clus>
<clus scale="   62.349">  1  4  2 -1</clus>
<clus scale="   67.760">  2  5  1 -1</clus>
<clus scale="   62.349">  1  3  2 -1</clus>
</clustering>
</event>
<event>
 6    0  0.8777103E+002  0.1055547E+03  0.7546771E-02  0.1269031E+00
         21   -1    0    0  506  501  0.00000000000E+00  0.00000000000E+00  0.64128279887E+03  0.64128279887E+03  0.00000000000E+00 0.  1.
         21   -1    0    0  504  502 -0.00000000000E+00 -0.00000000000E+00 -0.12607985964E+03  0.12607985964E+03  0.00000000000E+00 0.  1.
         21    1    1    2  503  501  0.10771990212E+03  0.60882506436E+02  0.39245649283E+03  0.41150012840E+03  0.00000000000E+00 0.  1.
         21    1    1    2  504  503  0.39462994419E+02 -0.38411061351E+02 -0.64962251223E+02  0.85163558207E+02  0.00000000000E+00 0.  1.
         21    1    1    2  505  502 -0.12860791279E+03  0.34124145542E+01  0.65424974505E+02  0.14433318085E+03  0.00000000000E+00 0.  1.
         21    1    1    2  506  505 -0.18574983751E+02 -0.25883859639E+02  0.12228372311E+03  0.12636579105E+03  0.00000000000E+00 0.  1.
<scales pt_clust_3="105.55471" pt_clust_4="55.16640" pt_clust_5="14000.00000" pt_clust_6="31.85913"></scales>
<clustering>
<clus scale="   31.859">  1  6  2 -1</clus>
<clus scale="   55.166">  2  4  1 -1</clus>
<clus scale="  105.555">  1  3  2 -1</clus>
<clus scale="   31.859">  1  3  2 -1</clus>
</clustering>
</event>
<event>
 6    0  0.8777103E+002  0.7787680E+02  0.7546771E-02  0.1335187E+00
         21   -1    0    0  505  501  0.00000000000E+00  0.00000000000E+00  0.57411017363E+03  0.57411017363E+03  0.00000000000E+00 0.  1.
         21   -1    0    0  503  502 -0.00000000000E+00 -0.00000000000E+00 -0.51164210184E+02  0.51164210184E+02  0.00000000000E+00 0. -1.
         21    1    1    2  503  506 -0.95524928760E+01 -0.44510930119E+02  0.65952294492E+02  0.80138493677E+02  0.00000000000E+00 0.  1.
         21    1    1    2  504  501  0.51736580340E+02  0.10806920079E+02  0.26256101801E+03  0.26782783919E+03  0.00000000000E+00 0.  1.
         21    1    1    2  505  502 -0.81778027415E+02  0.68516000222E+02  0.39689668229E+02  0.11383039057E+03  0.00000000000E+00 0. -1.
         21    1    1    2  506  504  0.39593939951E+02 -0.34811990182E+02  0.15474298272E+03  0.16347766038E+03  0.00000000000E+00 0.  1.
<scales pt_clust_3="45.52442" pt_clust_4="51.81037" pt_clust_5="14000.00000" pt_clust_6="77.87680"></scales>
<clustering>
<clus scale="   45.524">  2  3  1 -1</clus>
<clus scale="   51.810">  1  4  2 -1</clus>
<clus scale="   77.877">  1  6  2 -1</clus>
<clus scale="   51.810">  1  3  2 -1</clus>
</clustering>
</event>
<event>
 6    0  0.8777103E+002  0.6416997E+02  0.7546771E-02  0.1381121E+00
         21   -1    0    0  504  501  0.00000000000E+00  0.00000000000E+00  0.12426807374E+04  0.12426807374E+04  0.00000000000E+00 0.  1.
         21   -1    0    0  506  502 -0.00000000000E+00 -0.00000000000E+00 -0.36042140013E+03  0.36042140013E+03  0.00000000000E+00 0.  1.
         21    1    1    2  503  501  0.62014622669E+02  0.82873482486E+01  0.10924787210E+04  0.10942688195E+04  0.00000000000E+00 0.  1.
         21    1    1    2  504  505 -0.10121600108E+03 -0.60630600961E+02  0.11432046301E+03  0.16428608252E+03  0.00000000000E+00 0.  1.
         21    1    1    2  505  502 -0.11542440013E+01  0.46738608205E+02 -0.56075470027E+02  0.73008822172E+02  0.00000000000E+00 0.  1.
         21    1    1    2  506  503  0.40355622412E+02  0.56046445069E+01 -0.26846437674E+03  0.27153841327E+03  0.00000000000E+00 0.  1.
<scales pt_clust_3="64.16997" pt_clust_4="14000.00000" pt_clust_5="57.78485" pt_clust_6="40.74295"></scales>
<clustering>
<clus scale="   40.743">  2  6  1 -1</clus>
<clus scale="   57.785">  2  5  1 -1</clus>
<clus scale="   64.170">  1  3  2 -1</clus>
<clus scale="   64.170">  1  3  2 -1</clus>
</clustering>
</event>
<event>
 6    0  0.8777103E+002  0.3351051E+03  0.7546771E-02  0.1068900E+00
         21   -1    0    0  503  501  0.00000000000E+00  0.00000000000E+00  0.26933808649E+04  0.26933808649E+04  0.00000000000E+00 0.  1.
         21   -1    0    0  504  502 -0.00000000000E+00 -0.00000000000E+00 -0.55025000857E+03  0.55025000857E+03  0.00000000000E+00 0. -1.
         21    1    1    2  503  506  0.23942182845E+02  0.91268455858E+02  0.21659609004E+04  0.21680151709E+04  0.00000000000E+00 0.  1.
         21    1    1    2  504  501 -0.28934880970E+03 -0.22688215538E+03 -0.31369896961E+03  0.48332731108E+03  0.00000000000E+00 0. -1.
         21    1    1    2  505  502 -0.32333129933E+01  0.47350702691E+02 -0.99515300949E+02  0.11025351913E+03  0.00000000000E+00 0. -1.
         21    1    1    2  506  505  0.26863993985E+03  0.88262996827E+02  0.39038422651E+03  0.48203487239E+03  0.00000000000E+00 0. -1.
<scales pt_clust_3="94.46030" pt_clust_4="335.10514" pt_clust_5="47.46097" pt_clust_6="14000.00000"></scales>
<clustering>
<clus scale="   47.461">  2  5  1 -1</clus>
<clus scale="   94.460">  1  3  2 -1</clus>
<clus scale="  335.105">  2  4  1 -1</clus>
<clus scale="   94.460">  1  3  2 -1</clus>
</clustering>
</event>
<event>
 6    0  0.8777103E+002  0.8727638E+02  0.7546771E-02  0.1309585E+00
         21   -1    0    0  503  501  0.00000000000E+00  0.00000000000E+00  0.53857794998E+03  0.53857794998E+03  0.00000000000E+00 0. -1.
         21   -1    0    0  505  502 -0.00000000000E+00 -0.00000000000E+00 -0.22582719473E+03  0.22582719473E+03  0.00000000000E+00 0. -1.
         21    1    1    2  503  504 -0.24092000616E+02 -0.19857718489E+02  0.13192254396E+03  0.13556662968E+03  0.00000000000E+00 0. -1.
         21    1    1    2  504  502 -0.40250255321E+02 -0.17898014118E+02 -0.19689394710E+03  0.20176136491E+03  0.00000000000E+00 0. -1.
         21    1    1    2  505  506 -0.56420898715E+02  0.30234743296E+02  0.62640789198E+02  0.89561855638E+02  0.00000000000E+00 0.  1.
         21    1    1    2  506  501  0.12076315465E+03  0.75209893112E+01  0.31508136920E+03  0.33751529449E+03  0.00000000000E+00 0. -1.
<scales pt_clust_3="31.22104" pt_clust_4="44.23109" pt_clust_5="87.27638" pt_clust_6="14000.00000"></scales>
<clustering>
<clus scale="   31.221">  1  3  2 -1</clus>
<clus scale="   44.231">  2  4  1 -1</clus>
<clus scale="   87.276">  2  5  1 -1</clus>
<clus scale="   31.221">  1  3  2 -1</clus>
</clustering>
</event>
<event>
 6    0  0.8777103E+002  0.1008715E+03  0.7546771E-02  0.1278474E+00
         21   -1    0    0  503  501  0.00000000000E+00  0.00000000000E+00  0.47994361841E+02  0.47994361841E+02  0.00000000000E+00 0. -1.
         21   -1    0    0  506  502 -0.00000000000E+00 -0.00000000000E+00 -0.13371949616E+04  0.13371949616E+04  0.00000000000E+00 0.  1.
         21    1    1    2  503  502  0.14426924011E+02 -0.95191265281E+02 -0.99398835704E+02  0.13838223030E+03  0.00000000000E+00 0. -1.
         21    1    1    2  504  501  0.45971361328E+02  0.11049927592E+03 -0.19934489020E+03  0.23251202396E+03  0.00000000000E+00 0. -1.
         21    1    1    2  505  504 -0.51742480922E+02  0.45288247569E+02 -0.97866843834E+02  0.11960864861E+03  0.00000000000E+00 0.  1.
         21    1    1    2  506  505 -0.86558044173E+01 -0.60596258205E+02 -0.89259003006E+03  0.89468642061E+03  0.00000000000E+00 0.  1.
<scales pt_clust_3="14000.00000" pt_clust_4="100.87153" pt_clust_5="61.86722" pt_clust_6="61.21135"></scales>
<clustering>
<clus scale="   61.211">  2  6  1 -1</clus>
<clus scale="   61.867">  2  5  1 -1</clus>
<clus scale="  100.872">  2  4  1 -1</clus>
<clus scale="  100.872">  1  3  2 -1</clus>
</clustering>
</event>
<event>
 6    0  0.8777103E+002  0.6942194E+02  0.7546771E-02  0.1362070E+00
         21   -1    0    0  506  501  0.00000000000E+00  0.00000000000E+00  0.35097843432E+03  0.35097843432E+03  0.00000000000E+00 0.  1.
         21   -1    0    0  503  502 -0.00000000000E+00 -0.00000000000E+00 -0.36911844822E+03  0.36911844822E+03  0.00000000000E+00 0.  1.
         21    1    1    2  503  505  0.42461001912E+02 -0.87365533840E+02 -0.24168492988E+03  0.26047510154E+03  0.00000000000E+00 0.  1.
         21    1    1    2  504  502  0.24983305714E+01  0.37349073050E+02 -0.10174833547E+03  0.10841549097E+03  0.00000000000E+00 0.  1.
         21    1    1    2  505  501  0.32221582502E+02  0.38687190155E+01  0.15777136074E+03  0.16107451579E+03  0.00000000000E+00 0.  1.
         21    1    1    2  506  504 -0.77180914986E+02  0.46147741775E+02  0.16752189071E+03  0.19013177424E+03  0.00000000000E+00 0.  1.
<scales pt_clust_3="14000.00000" pt_clust_4="37.54124" pt_clust_5="32.45300" pt_clust_6="69.42194"></scales>
<clustering>
<clus scale="   32.453">  1  5  2 -1</clus>
<clus scale="   37.541">  2  4  1 -1</clus>
<clus scale="   69.422">  1  6  2 -1</clus>
<clus scale="   32.453">  1  3  2 -1</clus>
</clustering>
</event>
<event>
 6    0  0.8777103E+002  0.9107132E+02  0.7546771E-02  0.1300278E+00
         21   -1    0    0  503  501  0.00000000000E+00  0.00000000000E+00  0.98792600402E+02  0.98792600402E+02  0.00000000000E+00 0. -1.
         21   -1    0    0  504  502 -0.00000000000E+00 -0.00000000000E+00 -0.95160419252E+03  0.95160419252E+03  0.00000000000E+00 0.  1.
         21    1    1    2  503  502 -0.67846136663E+02 -0.64714106617E+02 -0.25307260388E+01  0.93794554371E+02  0.00000000000E+00 0. -1.
         21    1    1    2  504  505 -0.37980864008E+02 -0.92800729426E+01 -0.67649692511E+03  0.67762582261E+03  0.00000000000E+00 0.  1.
         21    1    1    2  505  506  0.10508544872E+03 -0.33462486673E+02 -0.97377164422E+02  0.14712240379E+03  0.00000000000E+00 0.  1.
         21    1    1    2  506  501  0.74155194911E+00  0.10745666623E+03 -0.76406776553E+02  0.13185401215E+03  0.00000000000E+00 0.  1.
<scales pt_clust_3="14000.00000" pt_clust_4="39.09816" pt_clust_5="95.85337" pt_clust_6="91.07132"></scales>
<clustering>
<clus scale="   39.098">  2  4  1 -1</clus>
<clus scale="   95.853">  2  5  1 -1</clus>
<clus scale="   91.071">  2  6  1 -1</clus>
<clus scale="   91.071">  1  3  2 -1</clus>
</clustering>
</event>
<event>
 6    0  0.8777103E+002  0.1111142E+03  0.7546771E-02  0.1258520E+00
         21   -1    0    0  505  501  0.00000000000E+00  0.00000000000E+00  0.86418248368E+03  0.86418248368E+03  0.00000000000E+00 0. -1.
         21   -1    0    0  503  502 -0.00000000000E+00 -0.00000000000E+00 -0.19855853544E+03  0.19855853544E+03  0.00000000000E+00 0. -1.
         21    1    1    2  503  504 -0.10029131632E+03  0.44549308511E+02 -0.14645733402E+03  0.18301021749E+03  0.00000000000E+00 0. -1.
         21    1    1    2  504  501  0.45160291873E+02  0.39974227830E+02  0.49315367399E+02  0.77906330387E+02  0.00000000000E+00 0. -1.
         21    1    1    2  505  506 -0.54073268195E+02 -0.13690052607E+02  0.54699963854E+03  0.54983628512E+03  0.00000000000E+00 0. -1.
         21    1    1    2  506  502  0.10920429265E+03 -0.70833483734E+02  0.21576627632E+03  0.25198818613E+03  0.00000000000E+00 0. -1.
<scales pt_clust_3="14000.00000" pt_clust_4="50.58952" pt_clust_5="55.77935" pt_clust_6="111.11418"></scales>
<clustering>
<clus scale="   55.779">  1  5  2 -1</clus>
<clus scale="   50.590">  1  4  2 -1</clus>
<clus scale="  111.114">  1  6  2 -1</clus>
<clus scale="   55.779">  1  3  2 -1</clus>
</clustering>
</event>
<event>
 6    0  0.8777103E+002  0.6489229E+02  0.7546771E-02  0.1378377E+00
         21   -1    0    0  503  501  0.00000000000E+00  0.00000000000E+00  0.21311338004E+04  0.21311338004E+04  0.00000000000E+00 0.  1.
         21   -1    0    0  506  502 -0.00000000000E+00 -0.00000000000E+00 -0.20433452851E+02  0.20433452851E+02  0.00000000000E+00 0. -1.
         21    1    1    2  503  504  0.54539719386E+02 -0.26172573659E+02  0.23926642903E+03  0.24679547942E+03  0.00000000000E+00 0.  1.
         21    1    1    2  504  502 -0.68584041522E+02 -0.15263289940E+02  0.77040762387E+02  0.10426896873E+03  0.00000000000E+00 0. -1.
         21    1    1    2  505  501 -0.35419192882E+02 -0.39481965288E+02  0.58783655400E+03  0.59022466826E+03  0.00000000000E+00 0.  1.
         21    1    1    2  506  505  0.49463515018E+02  0.80917828886E+02  0.12065566022E+04  0.12102781369E+04  0.00000000000E+00 0. -1.
<scales pt_clust_3="64.89229" pt_clust_4="14000.00000" pt_clust_5="53.04097" pt_clust_6="54.49008"></scales>
<clustering>
<clus scale="   53.041">  1  5  2 -1</clus>
<clus scale="   54.490">  1  6  2 -1</clus>
<clus scale="   64.892">  1  3  2 -1</clus>
<clus scale="   53.041">  1  3  2 -1</clus>
</clustering>
</event>
<event>
 6    0  0.8777103E+002  0.1244133E+03  0.7546771E-02  0.1235989E+00
         21   -1    0    0  506  501  0.00000000000E+00  0.00000000000E+00  0.72344345551E+02  0.72344345551E+02  0.00000000000E+00 0. -1.
         21   -1    0    0  505  502 -0.00000000000E+00 -0.00000000000E+00 -0.52226861783E+03  0.52226861783E+03  0.00000000000E+00 0. -1.
         21    1    1    2  503  504  0.26449089694E+02  0.37834546632E+02 -0.80896665974E+02  0.93141171510E+02  0.00000000000E+00 0.  1.
         21    1    1    2  504  501  0.12802754194E+02  0.28438296711E+02  0.36815036391E+02  0.48249291593E+02  0.00000000000E+00 0. -1.
         21    1    1    2  505  503  0.57574760222E+02  0.21752923413E+02 -0.72422061968E+02  0.95042084107E+02  0.00000000000E+00 0.  1.
         21    1    1    2  506  502 -0.96826604110E+02 -0.88025766756E+02 -0.33342058073E+03  0.35818041617E+03  0.00000000000E+00 0. -1.
<scales pt_clust_3="31.17333" pt_clust_4="31.18729" pt_clust_5="31.17333" pt_clust_6="119.09253"></scales>
<clustering>
<clus scale="   31.173">  3  5 -1 -1</clus>
<clus scale="   31.187">  1  4  2 -1</clus>
<clus scale="  119.093">  2  6  1 -1</clus>
<clus scale="   31.187">  1  3  2 -1</clus>
</clustering>
</event>
<event>
 6    0  0.8777103E+002  0.6960645E+02  0.7546771E-02  0.1361436E+00
         21   -1    0    0  503  501  0.00000000000E+00  0.00000000000E+00  0.52879395867E+03  0.52879395867E+03  0.00000000000E+00 0.  1.
         21   -1    0    0  506  502 -0.00000000000E+00 -0.00000000000E+00 -0.21905566468E+03  0.21905566468E+03  0.00000000000E+00 0.  1.
         21    1    1    2  503  504  0.39596574818E+02  0.64943083942E+02  0.34471146253E+03  0.35300352022E+03  0.00000000000E+00 0.  1.
         21    1    1    2  504  502  0.10758809350E+02 -0.43457169281E+02  0.16926396197E+02  0.47862098040E+02  0.00000000000E+00 0.  1.
         21    1    1    2  505  501  0.52048565972E+01 -0.66047676103E+02  0.13313853946E+03  0.14871199259E+03  0.00000000000E+00 0.  1.
         21    1    1    2  506  505 -0.55560240765E+02  0.44561761442E+02 -0.18503810420E+03  0.19827201250E+03  0.00000000000E+00 0.  1.
<scales pt_clust_3="69.60645" pt_clust_4="44.76916" pt_clust_5="14000.00000" pt_clust_6="45.57855"></scales>
<clustering>
<clus scale="   44.769">  2  4  1 -1</clus>
<clus scale="   45.579">  2  6  1 -1</clus>
<clus scale="   69.606">  1  3  2 -1</clus>
<clus scale="   69.606">  1  3  2 -1</clus>
</clustering>
</event>
<event>
 6    0  0.8777103E+002  0.1146836E+03  0.7546771E-02  0.1252134E+00
         21   -1    0    0  503  501  0.00000000000E+00  0.00000000000E+00  0.54886919306E+03  0.54886919306E+03  0.00000000000E+00 0. -1.
         21   -1    0    0  506  502 -0.00000000000E+00 -0.00000000000E+00 -0.26950244050E+03  0.26950244050E+03  0.00000000000E+00 0. -1.
         21    1    1    2  503  504  0.54755726699E+02  0.65472243052E+02  0.11412369573E+03  0.14250972649E+03  0.00000000000E+00 0. -1.
         21    1    1    2  504  502  0.41865317318E+02 -0.10384819174E+03  0.50014183306E+02  0.12263184845E+03  0.00000000000E+00 0. -1.
         21    1    1    2  505  501 -0.19298349700E+03 -0.17643061494E+02  0.28829709906E+03  0.34737461775E+03  0.00000000000E+00 0. -1.
         21    1    1    2  506  505  0.96362452979E+02  0.56019010186E+02 -0.17306822553E+03  0.20585544087E+03  0.00000000000E+00 0. -1.
<scales pt_clust_3="85.35106" pt_clust_4="104.85195" pt_clust_5="14000.00000" pt_clust_6="114.68356"></scales>
<clustering>
<clus scale="   85.351">  1  3  2 -1</clus>
<clus scale="  104.852">  1  4  2 -1</clus>
<clus scale="  114.684">  2  6  1 -1</clus>
<clus scale="   85.351">  1  3  2 -1</clus>
</clustering>
</event>
<event>
 6    0  0.8777103E+002  0.6143427E+02  0.7546771E-02  0.1391909E+00
         21   -1    0    0  504  501  0.00000000000E+00  0.00000000000E+00  0.79844973933E+03  0.79844973933E+03  0.00000000000E+00 0.  1.
         21   -1    0    0  505  502 -0.00000000000E+00 -0.00000000000E+00 -0.87308994302E+03  0.87308994302E+03  0.00000000000E+00 0.  1.
         21    1    1    2  503  502 -0.16722408406E+02  0.41178996104E+02 -0.50703135361E+02  0.67425192610E+02  0.00000000000E+00 0.  1.
         21    1    1    2  504  503  0.19358909639E+02  0.10021032034E+03  0.25615587386E+03  0.27574028976E+03  0.00000000000E+00 0.  1.
         21    1    1    2  505  506  0.35327709733E+02 -0.97939913395E+02 -0.79925891278E+03  0.80601183824E+03  0.00000000000E+00 0.  1.
         21    1    1    2  506  501 -0.37964210967E+02 -0.43449403048E+02  0.51916597060E+03  0.52236236174E+03  0.00000000000E+00 0.  1.
<scales pt_clust_3="44.44489" pt_clust_4="61.43427" pt_clust_5="14000.00000" pt_clust_6="57.65940"></scales>
<clustering>
<clus scale="   44.445">  2  3  1 -1</clus>
<clus scale="   57.659">  1  6  2 -1</clus>
<clus scale="   61.434">  1  4  2 -1</clus>
<clus scale="   57.659">  1  3  2 -1</clus>
</clustering>
</event>
<event>
 6    0  0.8777103E+002  0.9761300E+02  0.7546771E-02  0.1285397E+00
         21   -1    0    0  506  501  0.00000000000E+00  0.00000000000E+00  0.10789379716E+03  0.10789379716E+03  0.00000000000E+00 0. -1.
         21   -1    0    0  504  502 -0.00000000000E+00 -0.00000000000E+00 -0.40760698297E+03  0.40760698297E+03  0.00000000000E+00 0. -1.
         21    1    1    2  503  501  0.67292693762E+02 -0.89997879495E+02 -0.18060113757E+02  0.11381604745E+03  0.00000000000E+00 0. -1.
         21    1    1    2  504  503  0.79488333735E+01  0.69085473701E+02 -0.23109044741E+03  0.24132712553E+03  0.00000000000E+00 0. -1.
         21    1    1    2  505  502 -0.58314183285E+02  0.46270036348E+02 -0.85912064105E+02  0.11367648391E+03  0.00000000000E+00 0. -1.
         21    1    1    2  506  505 -0.16927343850E+02 -0.25357630554E+02  0.35349439459E+02  0.46681123243E+02  0.00000000000E+00 0. -1.
<scales pt_clust_3="14000.00000" pt_clust_4="67.47364" pt_clust_5="97.61300" pt_clust_6="30.48843"></scales>
<clustering>
<clus scale="   30.488">  1  6  2 -1</clus>
<clus scale="   67.474">  2  4  1 -1</clus>
<clus scale="   97.613">  2  5  1 -1</clus>
<clus scale="   30.488">  1  3  2 -1</clus>
</clustering>
</event>
<event>
 6    0  0.8777103E+002  0.1336129E+03  0.7546771E-02  0.1222191E+00
         21   -1    0    0  506  501  0.00000000000E+00  0.00000000000E+00  0.12093909814E+03  0.12093909814E+03  0.00000000000E+00 0.  1.
         21   -1    0    0  503  502 -0.00000000000E+00 -0.00000000000E+00 -0.97416771562E+03  0.97416771562E+03  0.00000000000E+00 0. -1.
         21    1    1    2  503  505 -0.40112579462E+02 -0.21038183688E+02 -0.25116923579E+03  0.25522070686E+03  0.00000000000E+00 0. -1.
         21    1    1    2  504  502  0.52306691918E+02  0.15816805561E+03 -0.63437710465E+03  0.65588675451E+03  0.00000000000E+00 0. -1.
         21    1    1    2  505  501  0.48446765280E+02 -0.95570278711E+02  0.12607371576E+02  0.10788750186E+03  0.00000000000E+00 0.  1.
         21    1    1    2  506  504 -0.60640877735E+02 -0.41559593213E+02  0.19710351382E+02  0.76111850537E+02  0.00000000000E+00 0.  1.
<scales pt_clust_3="45.29486" pt_clust_4="133.61291" pt_clust_5="14000.00000" pt_clust_6="75.27513"></scales>
<clustering>
<clus scale="   45.295">  2  3  1 -1</clus>
<clus scale="   75.275">  1  6  2 -1</clus>
<clus scale="  133.613">  2  4  1 -1</clus>
<clus scale="   75.275">  1  3  2 -1</clus>
</clustering>
</event>
<event>
 6    0  0.8777103E+002  0.2214439E+03  0.7546771E-02  0.1132811E+00
         21   -1    0    0  505  501  0.00000000000E+00  0.00000000000E+00  0.97832631402E+03  0.97832631402E+03  0.00000000000E+00 0. -1.
         21   -1    0    0  504  502 -0.00000000000E+00 -0.00000000000E+00 -0.20851962186E+03  0.20851962186E+03  0.00000000000E+00 0. -1.
         21    1    1    2  503  501 -0.68229286368E+02 -0.54445382019E+02  0.45765304246E+03  0.46590325435E+03  0.00000000000E+00 0. -1.
         21    1    1    2  504  503  0.26557663787E+03  0.19379498976E+03  0.11213539663E+03  0.34736406811E+03  0.00000000000E+00 0. -1.
         21    1    1    2  505  506 -0.11770940978E+03  0.17603063447E+02  0.14826572076E+03  0.19012652878E+03  0.00000000000E+00 0. -1.
         21    1    1    2  506  502 -0.79637941719E+02 -0.15695267119E+03  0.51752532296E+02  0.18345208463E+03  0.00000000000E+00 0. -1.
<scales pt_clust_3="87.28995" pt_clust_4="14000.00000" pt_clust_5="140.05820" pt_clust_6="221.44395"></scales>
<clustering>
<clus scale="   87.290">  1  3  2 -1</clus>
<clus scale="  140.058">  1  5  2 -1</clus>
<clus scale="  221.444">  2  6  1 -1</clus>
<clus scale="   87.290">  1  3  2 -1</clus>
</clustering>
</event>
<event>
 6    0  0.8777103E+002  0.1182093E+03  0.7546771E-02  0.1246081E+00
         21   -1    0    0  505  501  0.00000000000E+00  0.00000000000E+00  0.30206933841E+03  0.30206933841E+03  0.00000000000E+00 0.  1.
         21   -1    0    0  504  502 -0.00000000000E+00 -0.00000000000E+00 -0.21789527455E+03  0.21789527455E+03  0.00000000000E+00 0. -1.
         21    1    1    2  503  506 -0.94572927373E+02  0.16738068047E+02  0.14230573472E+02  0.97091249530E+02  0.00000000000E+00 0.  1.
         21    1    1    2  504  503  0.11625600793E+03 -0.59041013676E+02 -0.13134360579E+03  0.18507415664E+03  0.00000000000E+00 0. -1.
         21    1    1    2  505  502 -0.42173574905E+02  0.75934896427E+02  0.12979651804E+03  0.15617891987E+03  0.00000000000E+00 0.  1.
         21    1    1    2  506  501  0.20490494351E+02 -0.33631950798E+02  0.71490578139E+02  0.81620286914E+02  0.00000000000E+00 0.  1.
<scales pt_clust_3="14000.00000" pt_clust_4="118.20925" pt_clust_5="61.91820" pt_clust_6="39.38234"></scales>
<clustering>
<clus scale="   39.382">  1  6  2 -1</clus>
<clus scale="   61.918">  1  5  2 -1</clus>
<clus scale="  118.209">  2  4  1 -1</clus>
<clus scale="   39.382">  1  3  2 -1</clus>
</clustering>
</event>
<event>
 6    0  0.8777103E+002  0.1187952E+03  0.7546771E-02  0.1245098E+00
         21   -1    0    0  506  501  0.00000000000E+00  0.00000000000E+00  0.94826619789E+02  0.94826619789E+02  0.00000000000E+00 0. -1.
         21   -1    0    0  501  502 -0.00000000000E+00 -0.00000000000E+00 -0.13740761006E+04  0.13740761006E+04  0.00000000000E+00 0. -1.
         21    1    1    2  503  505 -0.11103021659E+03  0.10721703223E+03  0.13497583515E+02  0.15493671533E+03  0.00000000000E+00 0. -1.
         21    1    1    2  504  502 -0.12640190675E+02 -0.29504219272E+02 -0.50468726599E+03  0.50570694065E+03  0.00000000000E+00 0. -1.
         21    1    1    2  505  504  0.97511291789E+02 -0.52724907081E+02 -0.73919359032E+03  0.74745938473E+03  0.00000000000E+00 0. -1.
         21    1    1    2  506  503  0.26159115478E+02 -0.24987905875E+02 -0.48866208028E+02  0.60799679683E+02  0.00000000000E+00 0. -1.
<scales pt_clust_3="14000.00000" pt_clust_4="32.09787" pt_clust_5="118.79525" pt_clust_6="36.93394"></scales>
<clustering>
<clus scale="   32.098">  2  4  1 -1</clus>
<clus scale="   36.934">  1  6  2 -1</clus>
<clus scale="  118.795">  2  5  1 -1</clus>
<clus scale="   36.934">  1  3  2 -1</clus>
</clustering>
</event>
<event>
 6    0  0.8777103E+002  0.8697650E+02  0.7546771E-02  0.1310343E+00
         21   -1    0    0  503  501  0.00000000000E+00  0.00000000000E+00  0.21162408647E+04  0.21162408647E+04  0.00000000000E+00 0.  1.
         21   -1    0    0  504  502 -0.00000000000E+00 -0.00000000000E+00 -0.66298926569E+03  0.66298926569E+03  0.00000000000E+00 0.  1.
         21    1    1    2  503  505  0.60627712831E+02  0.75506731128E+01  0.81277746454E+03  0.81507051173E+03  0.00000000000E+00 0.  1.
         21    1    1    2  504  506  0.77566667744E+02 -0.39284042602E+02 -0.64739358783E+03  0.65320615545E+03  0.00000000000E+00 0.  1.
         21    1    1    2  505  502 -0.98310633358E+02  0.26372575799E+02  0.12546507893E+04  0.12587728534E+04  0.00000000000E+00 0.  1.
         21    1    1    2  506  501 -0.39883747217E+02  0.53607936901E+01  0.33216932962E+02  0.52180609774E+02  0.00000000000E+00 0.  1.
<scales pt_clust_3="45.99693" pt_clust_4="86.97650" pt_clust_5="14000.00000" pt_clust_6="40.24241"></scales>
<clustering>
<clus scale="   40.242">  1  6  2 -1</clus>
<clus scale="   45.997">  1  3  2 -1</clus>
<clus scale="   86.977">  2  4  1 -1</clus>
<clus scale="   40.242">  1  3  2 -1</clus>
</clustering>
</event>
<event>
 6    0  0.8777103E+002  0.9082808E+02  0.7546771E-02  0.1300859E+00
         21   -1    0    0  506  501  0.00000000000E+00  0.00000000000E+00  0.92301355898E+02  0.92301355898E+02  0.00000000000E+00 0. -1.
         21   -1    0    0  505  502 -0.00000000000E+00 -0.00000000000E+00 -0.11729574118E+04  0.11729574118E+04  0.00000000000E+00 0. -1.
         21    1    1    2  503  504  0.40112827706E+02 -0.94612511741E+02 -0.44037458370E+02  0.11180279095E+03  0.00000000000E+00 0. -1.
         21    1    1    2  504  501  0.19804499792E+02  0.24136060475E+02  0.47318717273E+02  0.56690639719E+02  0.00000000000E+00 0. -1.
         21    1    1    2  505  503 -0.86093075542E+02  0.87763090502E+01 -0.81585429992E+03  0.82043115491E+03  0.00000000000E+00 0. -1.
         21    1    1    2  506  502  0.26175748043E+02  0.61700142216E+02 -0.26808301489E+03  0.27633418212E+03  0.00000000000E+00 0. -1.
<scales pt_clust_3="14000.00000" pt_clust_4="31.22127" pt_clust_5="90.82808" pt_clust_6="70.09544"></scales>
<clustering>
<clus scale="   31.221">  1  4  2 -1</clus>
<clus scale="   70.095">  2  6  1 -1</clus>
<clus scale="   90.828">  2  5  1 -1</clus>
<clus scale="   31.221">  1  3  2 -1</clus>
</clustering>
</event>
<event>
 6    0  0.8777103E+002  0.8561745E+02  0.7546771E-02  0.1313826E+00
         21   -1    0    0  505  501  0.00000000000E+00  0.00000000000E+00  0.40805245820E+03  0.40805245820E+03  0.00000000000E+00 0.  1.
         21   -1    0    0  506  502 -0.00000000000E+00 -0.00000000000E+00 -0.48405916336E+02  0.48405916336E+02  0.00000000000E+00 0.  1.
         21    1    1    2  503  501  0.20010941648E+02  0.30620223161E+02  0.95769340676E+02  0.10251732764E+03  0.00000000000E+00 0.  1.
         21    1    1    2  504  503  0.28135391618E+02  0.67336367900E+02  0.34431821613E+02  0.80692856208E+02  0.00000000000E+00 0.  1.
         21    1    1    2  505  502 -0.18650061376E+02 -0.11096242471E+03  0.20054413368E+03  0.22995311270E+03  0.00000000000E+00 0.  1.
         21    1    1    2  506  504 -0.29496271890E+02  0.13005833647E+02  0.28901245900E+02  0.43295077998E+02  0.00000000000E+00 0.  1.
<scales pt_clust_3="36.24308" pt_clust_4="14000.00000" pt_clust_5="85.61745" pt_clust_6="32.23634"></scales>
<clustering>
<clus scale="   32.236">  2  6  1 -1</clus>
<clus scale="   36.243">  1  3  2 -1</clus>
<clus scale="   85.617">  1  5  2 -1</clus>
<clus scale="   36.243">  1  3  2 -1</clus>
</clustering>
</event>
<event>
 6    0  0.8777103E+002  0.7613005E+02  0.7546771E-02  0.1340407E+00
         21   -1    0    0  504  501  0.00000000000E+00  0.00000000000E+00  0.11433835999E+03  0.11433835999E+03  0.00000000000E+00 0. -1.
         21   -1    0    0  506  502 -0.00000000000E+00 -0.00000000000E+00 -0.15544896221E+04  0.15544896221E+04  0.00000000000E+00 0.  1.
         21    1    1    2  503  501  0.77411243743E+02 -0.38970366293E+02  0.43451836215E+02  0.96949740470E+02  0.00000000000E+00 0. -1.
         21    1    1    2  504  505 -0.35378989201E+02 -0.64572003524E+01 -0.39591428172E+01  0.36180701003E+02  0.00000000000E+00 0. -1.
         21    1    1    2  505  502 -0.15175942029E+01 -0.48413230876E+02 -0.14126623726E+04  0.14134925267E+04  0.00000000000E+00 0.  1.
         21    1    1    2  506  503 -0.40514660340E+02  0.93840797521E+02 -0.66981582914E+02  0.12220501394E+03  0.00000000000E+00 0. -1.
<scales pt_clust_3="76.13005" pt_clust_4="35.96343" pt_clust_5="48.46920" pt_clust_6="14000.00000"></scales>
<clustering>
<clus scale="   35.963">  1  4  2 -1</clus>
<clus scale="   48.469">  2  5  1 -1</clus>
<clus scale="   76.130">  1  3  2 -1</clus>
<clus scale="   35.963">  1  3  2 -1</clus>
</clustering>
</event>
<event>
 6    0  0.8777103E+002  0.8946941E+02  0.7546771E-02  0.1304142E+00
         21   -1    0    0  506  501  0.00000000000E+00  0.00000000000E+00  0.25978464358E+03  0.25978464358E+03  0.00000000000E+00 0. -1.
         21   -1    0    0  503  502 -0.00000000000E+00 -0.00000000000E+00 -0.15030786331E+03  0.15030786331E+03  0.00000000000E+00 0. -1.
         21    1    1    2  503  504 -0.33671036924E+02  0.74684691819E+02 -0.36318568088E+02  0.89613505163E+02  0.00000000000E+00 0. -1.
         21    1    1    2  504  501 -0.57116773246E+02  0.31395172319E+02  0.78549289833E+02  0.10206847488E+03  0.00000000000E+00 0. -1.
         21    1    1    2  505  502  0.12399946810E+03 -0.51359774123E+02  0.13617615865E+02  0.13490416579E+03  0.00000000000E+00 0. -1.
         21    1    1    2  506  505 -0.33211657925E+02 -0.54720090016E+02  0.53628442661E+02  0.83506361049E+02  0.00000000000E+00 0. -1.
<scales pt_clust_3="89.46941" pt_clust_4="73.01349" pt_clust_5="14000.00000" pt_clust_6="64.01017"></scales>
<clustering>
<clus scale="   64.010">  1  6  2 -1</clus>
<clus scale="   73.013">  1  4  2 -1</clus>
<clus scale="   89.469">  2  3  1 -1</clus>
<clus scale="   64.010">  1  3  2 -1</clus>
</clustering>
</event>
<event>
 6    0  0.8777103E+002  0.1325343E+03  0.7546771E-02  0.1223743E+00
         21   -1    0    0  502  501  0.00000000000E+00  0.00000000000E+00  0.90886457481E+03  0.90886457481E+03  0.00000000000E+00 0. -1.
         21   -1    0    0  504  502 -0.00000000000E+00 -0.00000000000E+00 -0.44564862634E+02  0.44564862634E+02  0.00000000000E+00 0.  1.
         21    1    1    2  503  506  0.33149762688E+02 -0.23868887040E+02  0.12033139678E+03  0.12707586547E+03  0.00000000000E+00 0. -1.
         21    1    1    2  504  503 -0.37833059448E+02  0.12173191737E+03  0.77186998885E+02  0.14902292740E+03  0.00000000000E+00 0.  1.
         21    1    1    2  505  501  0.21163650052E+02 -0.34494769826E+02  0.42225344691E+03  0.42418835752E+03  0.00000000000E+00 0. -1.
         21    1    1    2  506  505 -0.16480353293E+02 -0.63368260500E+02  0.24452786960E+03  0.25314228706E+03  0.00000000000E+00 0. -1.
<scales pt_clust_3="47.01875" pt_clust_4="118.36367" pt_clust_5="40.46961" pt_clust_6="47.01875"></scales>
<clustering>
<clus scale="   40.470">  1  5  2 -1</clus>
<clus scale="   47.019">  3  6 -1 -1</clus>
<clus scale="  118.364">  2  4  1 -1</clus>
<clus scale="   40.470">  1  3  2 -1</clus>
</clustering>
</event>
<event>
 6    0  0.8777103E+002  0.7600231E+02  0.7546771E-02  0.1340795E+00
         21   -1    0    0  505  501  0.00000000000E+00  0.00000000000E+00  0.31150149605E+03  0.31150149605E+03  0.00000000000E+00 0. -1.
         21   -1    0    0  504  502 -0.00000000000E+00 -0.00000000000E+00 -0.13317951434E+03  0.13317951434E+03  0.00000000000E+00 0. -1.
         21    1    1    2  503  506  0.91879135197E+02  0.28333559334E+02  0.21347218117E+03  0.23412590246E+03  0.00000000000E+00 0. -1.
         21    1    1    2  504  501  0.18049588272E+02 -0.34875442978E+02  0.23938247824E+01  0.39342274423E+02  0.00000000000E+00 0. -1.
         21    1    1    2  505  503 -0.22297039610E+02 -0.35153034509E+02  0.31423660649E+02  0.52156881225E+02  0.00000000000E+00 0.  1.
         21    1    1    2  506  502 -0.87631683859E+02  0.41694918153E+02 -0.68967684894E+02  0.11905595229E+03  0.00000000000E+00 0. -1.
<scales pt_clust_3="14000.00000" pt_clust_4="39.26938" pt_clust_5="43.52405" pt_clust_6="76.00231"></scales>
<clustering>
<clus scale="   39.269">  2  4  1 -1</clus>
<clus scale="   43.524">  1  5  2 -1</clus>
<clus scale="   76.002">  2  6  1 -1</clus>
<clus scale="   43.524">  1  3  2 -1</clus>
</clustering>
</event>
<event>
 6    0  0.8777103E+002  0.9642224E+02  0.7546771E-02  0.1288005E+00
         21   -1    0    0  503  501  0.00000000000E+00  0.00000000000E+00  0.80723019984E+03  0.80723019984E+03  0.00000000000E+00 0.  1.
         21   -1    0    0  504  502 -0.00000000000E+00 -0.00000000000E+00 -0.71685540823E+03  0.71685540823E+03  0.00000000000E+00 0.  1.
         21    1    1    2  503  506  0.13529407744E+02 -0.43716782599E+02  0.60701847404E+03  0.60874102028E+03  0.00000000000E+00 0.  1.
         21    1    1    2  504  501 -0.69067266805E+02  0.40124821177E+02 -0.32492201139E+03  0.33459617766E+03  0.00000000000E+00 0.  1.
         21    1    1    2  505  502  0.49146218808E+02  0.58441346226E+02 -0.37842395752E+03  0.38605107615E+03  0.00000000000E+00 0.  1.
         21    1    1    2  506  505  0.63916402523E+01 -0.54849384805E+02  0.18670228649E+03  0.19469733398E+03  0.00000000000E+00 0.  1.
<scales pt_clust_3="45.76245" pt_clust_4="14000.00000" pt_clust_5="75.88939" pt_clust_6="96.42224"></scales>
<clustering>
<clus scale="   45.762">  1  3  2 -1</clus>
<clus scale="   75.889">  2  5  1 -1</clus>
<clus scale="   96.422">  1  6  2 -1</clus>
<clus scale="   45.762">  1  3  2 -1</clus>
</clustering>
</event>
<event>
 6    0  0.8777103E+002  0.9520474E+02  0.7546771E-02  0.1290716E+00
         21   -1    0    0  504  501  0.00000000000E+00  0.00000000000E+00  0.11323003835E+04  0.11323003835E+04  0.00000000000E+00 0. -1.
         21   -1    0    0  505  502 -0.00000000000E+00 -0.00000000000E+00 -0.30844684680E+03  0.30844684680E+03  0.00000000000E+00 0.  1.
         21    1    1    2  503  506 -0.15867615227E+02 -0.35798634115E+02  0.14261781510E+03  0.14789578967E+03  0.00000000000E+00 0. -1.
         21    1    1    2  504  503 -0.15526277720E+02  0.30801998314E+02  0.87683191825E+03  0.87751013741E+03  0.00000000000E+00 0. -1.
         21    1    1    2  505  501 -0.26661779180E+02  0.81803552919E+02  0.83627631273E+02  0.11998438420E+03  0.00000000000E+00 0. -1.
         21    1    1    2  506  502  0.58055672127E+02 -0.76806917118E+02 -0.27922382788E+03  0.29535691907E+03  0.00000000000E+00 0.  1.
<scales pt_clust_3="30.72369" pt_clust_4="34.49389" pt_clust_5="14000.00000" pt_clust_6="95.20474"></scales>
<clustering>
<clus scale="   34.494">  1  4  2 -1</clus>
<clus scale="   30.724">  1  3  2 -1</clus>
<clus scale="   95.205">  2  6  1 -1</clus>
<clus scale="   34.494">  1  3  2 -1</clus>
</clustering>
</event>
<event>
 6    0  0.8777103E+002  0.9224272E+02  0.7546771E-02  0.1297510E+00
         21   -1    0    0  504  501  0.00000000000E+00  0.00000000000E+00  0.83689697995E+02  0.83689697995E+02  0.00000000000E+00 0. -1.
         21   -1    0    0  505  502 -0.00000000000E+00 -0.00000000000E+00 -0.20334994002E+04  0.20334994002E+04  0.00000000000E+00 0.  1.
         21    1    1    2  503  501 -0.40956879673E+02  0.43990998067E+02 -0.38560190104E+03  0.39025824782E+03  0.00000000000E+00 0.  1.
         21    1    1    2  504  506 -0.23711487562E+02 -0.92334931039E+02  0.42997455661E+02  0.10457894303E+03  0.00000000000E+00 0. -1.
         21    1    1    2  505  503 -0.48439777513E+02  0.35466003909E+02 -0.11361941569E+04  0.11377791577E+04  0.00000000000E+00 0.  1.
         21    1    1    2  506  502  0.11310814475E+03  0.12877929062E+02 -0.47101109994E+03  0.48457274968E+03  0.00000000000E+00 0.  1.
<scales pt_clust_3="85.75946" pt_clust_4="14000.00000" pt_clust_5="60.03540" pt_clust_6="92.24272"></scales>
<clustering>
<clus scale="   60.035">  2  5  1 -1</clus>
<clus scale="   85.759">  2  3  1 -1</clus>
<clus scale="   92.243">  2  6  1 -1</clus>
<clus scale="   92.243">  1  3  2 -1</clus>
</clustering>
</event>
<event>
 6    0  0.8777103E+002  0.1528682E+03  0.7546771E-02  0.1196992E+00
         21   -1    0    0  504  501  0.00000000000E+00  0.00000000000E+00  0.56342135056E+02  0.56342135056E+02  0.00000000000E+00 0. -1.
         21   -1    0    0  506  502 -0.00000000000E+00 -0.00000000000E+00 -0.36360010846E+04  0.36360010846E+04  0.00000000000E+00 0. -1.
         21    1    1    2  503  502  0.13135498342E+03  0.65485026705E+02 -0.24602906248E+04  0.24646647599E+04  0.00000000000E+00 0. -1.
         21    1    1    2  504  503 -0.23311399538E+03  0.32837500531E+02 -0.79207245214E+03  0.82631664979E+03  0.00000000000E+00 0. -1.
         21    1    1    2  505  501  0.67596371711E+01 -0.33006266185E+02  0.17384538119E+02  0.37912115053E+02  0.00000000000E+00 0.  1.
         21    1    1    2  506  505  0.94999374793E+02 -0.65316261051E+02 -0.34468041073E+03  0.36344969488E+03  0.00000000000E+00 0. -1.
<scales pt_clust_3="152.86817" pt_clust_4="14000.00000" pt_clust_5="33.69134" pt_clust_6="123.46156"></scales>
<clustering>
<clus scale="   33.691">  1  5  2 -1</clus>
<clus scale="  123.462">  1  6  2 -1</clus>
<clus scale="  152.868">  2  3  1 -1</clus>
<clus scale="   33.691">  1  3  2 -1</clus>
</clustering>
</event>
<event>
 6    0  0.8777103E+002  0.1177482E+03  0.7546771E-02  0.1246859E+00
         21   -1    0    0  505  501  0.00000000000E+00  0.00000000000E+00  0.73873703351E+03  0.73873703351E+03  0.00000000000E+00 0. -1.
         21   -1    0    0  503  502 -0.00000000000E+00 -0.00000000000E+00 -0.82441612899E+02  0.82441612899E+02  0.00000000000E+00 0. -1.
         21    1    1    2  503  504 -0.72890560350E+02 -0.25093016423E+02  0.39714566384E+02  0.86717587861E+02  0.00000000000E+00 0. -1.
         21    1    1    2  504  501 -0.51591969307E+02  0.31722259158E+02  0.57847494978E+02  0.83751810120E+02  0.00000000000E+00 0. -1.
         21    1    1    2  505  506  0.64716337364E+02  0.75860907445E+02  0.53747810573E+03  0.54664960966E+03  0.00000000000E+00 0. -1.
         21    1    1    2  506  502  0.59766192293E+02 -0.82490150180E+02  0.21255253514E+02  0.10405963876E+03  0.00000000000E+00 0. -1.
<scales pt_clust_3="56.06993" pt_clust_4="56.06993" pt_clust_5="99.71500" pt_clust_6="99.31275"></scales>
<clustering>
<clus scale="   56.070">  3  4 -1 -1</clus>
<clus scale="   99.715">  1  5  2 -1</clus>
<clus scale="   99.313">  2  6  1 -1</clus>
<clus scale="   99.715">  1  3  2 -1</clus>
</clustering>
</event>
<event>
 6    0  0.8777103E+002  0.7799355E+02  0.7546771E-02  0.1334844E+00
         21   -1    0    0  505  501  0.00000000000E+00  0.00000000000E+00  0.92539273927E+02  0.92539273927E+02  0.00000000000E+00 0.  1.
         21   -1    0    0  506  502 -0.00000000000E+00 -0.00000000000E+00 -0.12218205839E+04  0.12218205839E+04  0.00000000000E+00 0. -1.
         21    1    1    2  503  502  0.28236776043E+02 -0.34502195476E+02 -0.11738703491E+03  0.12556843942E+03  0.00000000000E+00 0.  1.
         21    1    1    2  504  501 -0.88732445480E+02  0.45884631519E+02  0.19307459392E+02  0.10174293233E+03  0.00000000000E+00 0.  1.
         21    1    1    2  505  503  0.34912044166E+02 -0.52796358557E+02 -0.92847491657E+01  0.63972751010E+02  0.00000000000E+00 0.  1.
         21    1    1    2  506  504  0.25583625271E+02  0.41413922514E+02 -0.10219169853E+04  0.10230757350E+04  0.00000000000E+00 0. -1.
<scales pt_clust_3="44.58382" pt_clust_4="14000.00000" pt_clust_5="77.99355" pt_clust_6="52.65992"></scales>
<clustering>
<clus scale="   44.584">  2  3  1 -1</clus>
<clus scale="   52.660">  2  6  1 -1</clus>
<clus scale="   77.994">  1  5  2 -1</clus>
<clus scale="   77.994">  1  3  2 -1</clus>
</clustering>
</event>
<event>
 6    0  0.8777103E+002  0.1273427E+03  0.7546771E-02  0.1231453E+00
         21   -1    0    0  503  501  0.00000000000E+00  0.00000000000E+00  0.26519396051E+04  0.26519396051E+04  0.00000000000E+00 0. -1.
         21   -1    0    0  506  502 -0.00000000000E+00 -0.00000000000E+00 -0.45605589696E+02  0.45605589696E+02  0.00000000000E+00 0. -1.
         21    1    1    2  503  505 -0.79657724402E+02  0.60685018408E+02  0.19904511738E+04  0.19929686148E+04  0.00000000000E+00 0. -1.
         21    1    1    2  504  501  0.36225491853E+02 -0.24506592922E+02  0.72598295147E+02  0.84754774584E+02  0.00000000000E+00 0. -1.
         21    1    1    2  505  502 -0.55896272127E+02  0.28767441692E+02 -0.87573144870E+00  0.62870707366E+02  0.00000000000E+00 0. -1.
         21    1    1    2  506  504  0.99328504676E+02 -0.64945867178E+02  0.54416027799E+03  0.55695109807E+03  0.00000000000E+00 0. -1.
<scales pt_clust_3="105.81831" pt_clust_4="43.00632" pt_clust_5="62.86461" pt_clust_6="43.00632"></scales>
<clustering>
<clus scale="   43.006">  4  6 -1 -1</clus>
<clus scale="   62.865">  2  5  1 -1</clus>
<clus scale="  105.818">  1  3  2 -1</clus>
<clus scale="  105.818">  1  3  2 -1</clus>
</clustering>
</event>
<event>
 6    0  0.8777103E+002  0.9786216E+02  0.7546771E-02  0.1284857E+00
         21   -1    0    0  504  501  0.00000000000E+00  0.00000000000E+00  0.25093819930E+03  0.25093819930E+03  0.00000000000E+00 0. -1.
         21   -1    0    0  503  502 -0.00000000000E+00 -0.00000000000E+00 -0.18544277491E+03  0.18544277491E+03  0.00000000000E+00 0.  1.
         21    1    1    2  503  501  0.13124263609E+02 -0.28019721469E+02  0.21520392977E+02  0.37689234542E+02  0.00000000000E+00 0.  1.
         21    1    1    2  504  505 -0.31421726069E+02  0.45759961811E+02  0.84950351990E+02  0.10147837837E+03  0.00000000000E+00 0. -1.
         21    1    1    2  505  506 -0.81337864471E+02 -0.49992342707E+01  0.96910967243E+02  0.12661980932E+03  0.00000000000E+00 0. -1.
         21    1    1    2  506  502  0.99635326931E+02 -0.12741006072E+02 -0.13788628782E+03  0.17059355198E+03  0.00000000000E+00 0.  1.
<scales pt_clust_3="30.94109" pt_clust_4="42.70561" pt_clust_5="97.86216" pt_clust_6="14000.00000"></scales>
<clustering>
<clus scale="   30.941">  1  3  2 -1</clus>
<clus scale="   42.706">  1  4  2 -1</clus>
<clus scale="   97.862">  1  5  2 -1</clus>
<clus scale="   30.941">  1  3  2 -1</clus>
</clustering>
</event>
<event>
 6    0  0.1117066E+003  0.7523832E+02  0.7546771E-02  0.1343135E+00
         21   -1    0    0  506  501  0.00000000000E+00  0.00000000000E+00  0.72055650903E+03  0.72055650903E+03  0.00000000000E+00 0.  1.
         21   -1    0    0  504  502 -0.00000000000E+00 -0.00000000000E+00 -0.44564143327E+03  0.44564143327E+03  0.00000000000E+00 0.  1.
         21    1    1    2  503  502 -0.27438558633E+02 -0.69908693017E+02 -0.41175646400E+03  0.41854926294E+03  0.00000000000E+00 0.  1.
         21    1    1    2  504  501  0.51242062293E+02  0.83592144452E+02  0.52095502261E+03  0.53010143477E+03  0.00000000000E+00 0.  1.
         21    1    1    2  505  503 -0.14859546437E+02 -0.73767959454E+02  0.11949761950E+03  0.14121685108E+03  0.00000000000E+00 0.  1.
         21    1    1    2  506  505 -0.89439572236E+01  0.60084508019E+02  0.46218897639E+02  0.76330393511E+02  0.00000000000E+00 0.  1.
<scales pt_clust_3="75.23832" pt_clust_4="14000.00000" pt_clust_5="64.08257" pt_clust_6="60.74654"></scales>
<clustering>
<clus scale="   60.747">  1  6  2 -1</clus>
<clus scale="   64.083">  1  5  2 -1</clus>
<clus scale="   75.238">  2  3  1 -1</clus>
<clus scale="   60.747">  1  3  2 -1</clus>
</clustering>
</event>
<event>
 6    0  0.8777103E+002  0.1267897E+03  0.7546771E-02  0.1232299E+00
         21   -1    0    0  506  501  0.00000000000E+00  0.00000000000E+00  0.10452577425E+04  0.10452577425E+04  0.00000000000E+00 0. -1.
         21   -1    0    0  505  502 -0.00000000000E+00 -0.00000000000E+00 -0.14293326311E+03  0.14293326311E+03  0.00000000000E+00 0. -1.
         21    1    1    2  503  501  0.27971502607E+02  0.21667609199E+02  0.10415594488E+03  0.11000159590E+03  0.00000000000E+00 0. -1.
         21    1    1    2  504  503 -0.12956305326E+03  0.60284174756E+02  0.86868031680E+03  0.88035575723E+03  0.00000000000E+00 0. -1.
         21    1    1    2  505  504  0.90067257939E+01 -0.36849143415E+02 -0.85712396756E+02  0.93731507177E+02  0.00000000000E+00 0. -1.
         21    1    1    2  506  502  0.92584824856E+02 -0.45102640540E+02  0.15200614475E+02  0.10410214531E+03  0.00000000000E+00 0. -1.
<scales pt_clust_3="35.38206" pt_clust_4="126.78965" pt_clust_5="37.87258" pt_clust_6="14000.00000"></scales>
<clustering>
<clus scale="   35.382">  1  3  2 -1</clus>
<clus scale="   37.873">  2  5  1 -1</clus>
<clus scale="  126.790">  1  4  2 -1</clus>
<clus scale="   35.382">  1  3  2 -1</clus>
</clustering>
</event>
<event>
 6    0  0.8777103E+002  0.7486306E+02  0.7546771E-02  0.1344296E+00
         21   -1    0    0  506  501  0.00000000000E+00  0.00000000000E+00  0.11489543234E+04  0.11489543234E+04  0.00000000000E+00 0. -1.
         21   -1    0    0  504  502 -0.00000000000E+00 -0.00000000000E+00 -0.12037453032E+03  0.12037453032E+03  0.00000000000E+00 0. -1.
         21    1    1    2  503  502  0.32106366561E+02  0.28188384651E+02 -0.82409223303E+02  0.92826094867E+02  0.00000000000E+00 0. -1.
         21    1    1    2  504  501 -0.58904905929E+02  0.35892957465E+02  0.54425097226E+02  0.87864575035E+02  0.00000000000E+00 0. -1.
         21    1    1    2  505  503  0.21270794098E+02 -0.10108695454E+03  0.15482344718E+03  0.18612178501E+03  0.00000000000E+00 0. -1.
         21    1    1    2  506  505  0.55277452702E+01  0.37005612428E+02  0.90174047195E+03  0.90251639878E+03  0.00000000000E+00 0. -1.
<scales pt_clust_3="43.33060" pt_clust_4="14000.00000" pt_clust_5="74.86306" pt_clust_6="37.41619"></scales>
<clustering>
<clus scale="   37.416">  1  6  2 -1</clus>
<clus scale="   43.331">  2  3  1 -1</clus>
<clus scale="   74.863">  1  5  2 -1</clus>
<clus scale="   37.416">  1  3  2 -1</clus>
</clustering>
</event>
<event>
 6    0  0.8777103E+002  0.9533959E+02  0.7546771E-02  0.1290413E+00
         21   -1    0    0  504  501  0.00000000000E+00  0.00000000000E+00  0.78453517548E+03  0.78453517548E+03  0.00000000000E+00 0.  1.
         21   -1    0    0  503  502 -0.00000000000E+00 -0.00000000000E+00 -0.65864564666E+03  0.65864564666E+03  0.00000000000E+00 0. -1.
         21    1    1    2  503  506 -0.63102107077E+02  0.13621801949E+03 -0.22695093930E+03  0.27211018651E+03  0.00000000000E+00 0. -1.
         21    1    1    2  504  505  0.42387109446E+02 -0.23168266749E+02  0.48644509537E+03  0.48883766881E+03  0.00000000000E+00 0.  1.
         21    1    1    2  505  502  0.26137889996E+02 -0.47566933984E+02 -0.40213465499E+03  0.40578083154E+03  0.00000000000E+00 0. -1.
         21    1    1    2  506  501 -0.54228923643E+01 -0.65482818761E+02  0.26853002773E+03  0.27645213529E+03  0.00000000000E+00 0.  1.
<scales pt_clust_3="14000.00000" pt_clust_4="48.30565" pt_clust_5="54.52551" pt_clust_6="95.33959"></scales>
<clustering>
<clus scale="   48.306">  1  4  2 -1</clus>
<clus scale="   54.526">  2  5  1 -1</clus>
<clus scale="   95.340">  1  6  2 -1</clus>
<clus scale="   48.306">  1  3  2 -1</clus>
</clustering>
</event>
<event>
 6    0  0.8777103E+002  0.9387971E+02  0.7546771E-02  0.1293719E+00
         21   -1    0    0  505  501  0.00000000000E+00  0.00000000000E+00  0.19364778701E+04  0.19364778701E+04  0.00000000000E+00 0. -1.
         21   -1    0    0  504  502 -0.00000000000E+00 -0.00000000000E+00 -0.11082127924E+03  0.11082127924E+03  0.00000000000E+00 0. -1.
         21    1    1    2  503  502  0.60312783066E+02  0.63245989676E+02  0.27145312141E+03  0.28517448016E+03  0.00000000000E+00 0. -1.
         21    1    1    2  504  506 -0.31792655225E+02 -0.86095416813E+01 -0.54286922124E+02  0.63497771992E+02  0.00000000000E+00 0. -1.
         21    1    1    2  505  503 -0.30725433339E+02 -0.91657612713E+02  0.16442611349E+04  0.16471004371E+04  0.00000000000E+00 0. -1.
         21    1    1    2  506  501  0.22053054988E+01  0.37021164718E+02 -0.35770743320E+02  0.51526460068E+02  0.00000000000E+00 0. -1.
<scales pt_clust_3="14000.00000" pt_clust_4="32.93778" pt_clust_5="93.87971" pt_clust_6="38.57770"></scales>
<clustering>
<clus scale="   32.938">  2  4  1 -1</clus>
<clus scale="   38.578">  2  6  1 -1</clus>
<clus scale="   93.880">  1  5  2 -1</clus>
<clus scale="   93.880">  1  3  2 -1</clus>
</clustering>
</event>
<event>
 6    0  0.8777103E+002  0.1359592E+03  0.7546771E-02  0.1218872E+00
         21   -1    0    0  505  501  0.00000000000E+00  0.00000000000E+00  0.14940343038E+03  0.14940343038E+03  0.00000000000E+00 0. -1.
         21   -1    0    0  504  502 -0.00000000000E+00 -0.00000000000E+00 -0.46270455807E+03  0.46270455807E+03  0.00000000000E+00 0. -1.
         21    1    1    2  503  502 -0.14397938895E+02 -0.70458963300E+02 -0.18215152071E+03  0.19583396705E+03  0.00000000000E+00 0. -1.
         21    1    1    2  504  506  0.12797510657E+03 -0.31538371493E+02 -0.16458958568E+03  0.21086021078E+03  0.00000000000E+00 0. -1.
         21    1    1    2  505  503 -0.77015764230E+02  0.12006596606E+03 -0.13442021202E+02  0.14327579027E+03  0.00000000000E+00 0. -1.
         21    1    1    2  506  501 -0.36561403442E+02 -0.18068631263E+02  0.46881999907E+02  0.62138020347E+02  0.00000000000E+00 0. -1.
<scales pt_clust_3="73.75552" pt_clust_4="14000.00000" pt_clust_5="135.95919" pt_clust_6="40.78249"></scales>
<clustering>
<clus scale="   40.782">  1  6  2 -1</clus>
<clus scale="   73.756">  2  3  1 -1</clus>
<clus scale="  135.959">  1  5  2 -1</clus>
<clus scale="   40.782">  1  3  2 -1</clus>
</clustering>
</event>
<event>
 6    0  0.8777103E+002  0.8641643E+02  0.7546771E-02  0.1311769E+00
         21   -1    0    0  506  501  0.00000000000E+00  0.00000000000E+00  0.81811411866E+03  0.81811411866E+03  0.00000000000E+00 0.  1.
         21   -1    0    0  503  502 -0.00000000000E+00 -0.00000000000E+00 -0.48379674897E+03  0.48379674897E+03  0.00000000000E+00 0.  1.
         21    1    1    2  503  505 -0.32428359167E+02  0.45020860786E+02 -0.26872317737E+03  0.27439136729E+03  0.00000000000E+00 0.  1.
         21    1    1    2  504  501 -0.73602463583E+02 -0.44734929657E+02  0.78051780619E+03  0.78525574328E+03  0.00000000000E+00 0.  1.
         21    1    1    2  505  504  0.10652404075E+03  0.35134485881E+02 -0.17352214811E+03  0.20661979393E+03  0.00000000000E+00 0.  1.
         21    1    1    2  506  502 -0.49321800157E+00 -0.35420417010E+02 -0.39551110097E+01  0.35643963139E+02  0.00000000000E+00 0.  1.
<scales pt_clust_3="40.74860" pt_clust_4="14000.00000" pt_clust_5="86.41643" pt_clust_6="35.42385"></scales>
<clustering>
<clus scale="   35.424">  2  6  1 -1</clus>
<clus scale="   40.749">  2  3  1 -1</clus>
<clus scale="   86.416">  2  5  1 -1</clus>
<clus scale="   86.416">  1  3  2 -1</clus>
</clustering>
</event>
<event>
 6    0  0.8777103E+002  0.1670327E+03  0.7546771E-02  0.1180978E+00
         21   -1    0    0  506  501  0.00000000000E+00  0.00000000000E+00  0.41654121888E+03  0.41654121888E+03  0.00000000000E+00 0.  1.
         21   -1    0    0  505  502 -0.00000000000E+00 -0.00000000000E+00 -0.32099379729E+03  0.32099379729E+03  0.00000000000E+00 0.  1.
         21    1    1    2  503  501  0.10745628372E+03  0.12970246274E+03  0.11466628448E+03  0.20375951155E+03  0.00000000000E+00 0.  1.
         21    1    1    2  504  502 -0.10428871778E+03 -0.80350381174E+02 -0.14495927775E+03  0.19582010269E+03  0.00000000000E+00 0.  1.
         21    1    1    2  505  503  0.14019306821E+02 -0.81309369426E+02 -0.88249188819E+02  0.12081255666E+03  0.00000000000E+00 0.  1.
         21    1    1    2  506  504 -0.17186872761E+02  0.31957287862E+02  0.21408960368E+03  0.21714284525E+03  0.00000000000E+00 0. -1.
<scales pt_clust_3="14000.00000" pt_clust_4="167.03268" pt_clust_5="79.72597" pt_clust_6="36.28577"></scales>
<clustering>
<clus scale="   36.286">  1  6  2 -1</clus>
<clus scale="   79.726">  2  5  1 -1</clus>
<clus scale="  167.033">  2  4  1 -1</clus>
<clus scale="   36.286">  1  3  2 -1</clus>
</clustering>
</event>
<event>
 6    0  0.8777103E+002  0.7909680E+02  0.7546771E-02  0.1331634E+00
         21   -1    0    0  504  501  0.00000000000E+00  0.00000000000E+00  0.63596703180E+03  0.63596703180E+03  0.00000000000E+00 0. -1.
         21   -1    0    0  505  502 -0.00000000000E+00 -0.00000000000E+00 -0.23427164853E+03  0.23427164853E+03  0.00000000000E+00 0.  1.
         21    1    1    2  503  501  0.74784623985E+02 -0.89096565522E+01  0.40169344330E+02  0.85356301399E+02  0.00000000000E+00 0. -1.
         21    1    1    2  504  506 -0.26618139646E+00 -0.47443603756E+02  0.47485873281E+03  0.47722299035E+03  0.00000000000E+00 0. -1.
         21    1    1    2  505  503 -0.35011541159E+02 -0.51668904915E+02 -0.16879592287E+03  0.17996540591E+03  0.00000000000E+00 0.  1.
         21    1    1    2  506  502 -0.39506901430E+02  0.10802216522E+03  0.55463228996E+02  0.12769398267E+03  0.00000000000E+00 0. -1.
<scales pt_clust_3="14000.00000" pt_clust_4="47.44435" pt_clust_5="63.79723" pt_clust_6="79.09680"></scales>
<clustering>
<clus scale="   47.444">  1  4  2 -1</clus>
<clus scale="   63.797">  2  5  1 -1</clus>
<clus scale="   79.097">  1  6  2 -1</clus>
<clus scale="   47.444">  1  3  2 -1</clus>
</clustering>
</event>
<event>
 6    0  0.8777103E+002  0.8567363E+02  0.7546771E-02  0.1313680E+00
         21   -1    0    0  504  501  0.00000000000E+00  0.00000000000E+00  0.12450950889E+04  0.12450950889E+04  0.00000000000E+00 0. -1.
         21   -1    0    0  505  502 -0.00000000000E+00 -0.00000000000E+00 -0.17640687632E+03  0.17640687632E+03  0.00000000000E+00 0. -1.
         21    1    1    2  503  502  0.46643602276E+02  0.36691722144E+02 -0.13141860001E+03  0.14419693664E+03  0.00000000000E+00 0. -1.
         21    1    1    2  504  503  0.17266812936E+01  0.54361138529E+02  0.71411964056E+03  0.71618780766E+03  0.00000000000E+00 0. -1.
         21    1    1    2  505  506 -0.13130344983E+02  0.41308624406E+02 -0.11723613841E+02  0.44902689576E+02  0.00000000000E+00 0.  1.
         21    1    1    2  506  501 -0.35239938587E+02 -0.13236148508E+03  0.49771078591E+03  0.51621453139E+03  0.00000000000E+00 0.  1.
<scales pt_clust_3="85.67363" pt_clust_4="54.67403" pt_clust_5="43.34522" pt_clust_6="14000.00000"></scales>
<clustering>
<clus scale="   43.345">  2  5  1 -1</clus>
<clus scale="   54.674">  1  4  2 -1</clus>
<clus scale="   85.674">  2  3  1 -1</clus>
<clus scale="   54.674">  1  3  2 -1</clus>
</clustering>
</event>
<event>
 6    0  0.8777103E+002  0.9189199E+02  0.7546771E-02  0.1298334E+00
         21   -1    0    0  504  501  0.00000000000E+00  0.00000000000E+00  0.73916308491E+03  0.73916308491E+03  0.00000000000E+00 0. -1.
         21   -1    0    0  506  502 -0.00000000000E+00 -0.00000000000E+00 -0.34644843532E+03  0.34644843532E+03  0.00000000000E+00 0.  1.
         21    1    1    2  503  505 -0.11167731174E+03 -0.29324354916E+00 -0.51664216137E+02  0.12304917383E+03  0.00000000000E+00 0.  1.
         21    1    1    2  504  503  0.25282225465E+02 -0.59457530982E+02  0.65986723722E+03  0.66302274446E+03  0.00000000000E+00 0. -1.
         21    1    1    2  505  502  0.35897631691E+02  0.74181265219E+02 -0.23060534296E+03  0.24488839146E+03  0.00000000000E+00 0.  1.
         21    1    1    2  506  501  0.50497454587E+02 -0.14430490688E+02  0.15116971463E+02  0.54651210485E+02  0.00000000000E+00 0. -1.
<scales pt_clust_3="91.89199" pt_clust_4="64.76938" pt_clust_5="14000.00000" pt_clust_6="52.51887"></scales>
<clustering>
<clus scale="   52.519">  2  6  1 -1</clus>
<clus scale="   64.769">  1  4  2 -1</clus>
<clus scale="   91.892">  1  3  2 -1</clus>
<clus scale="   64.769">  1  3  2 -1</clus>
</clustering>
</event>
<event>
 6    0  0.8777103E+002  0.1121380E+03  0.7546771E-02  0.1256661E+00
         21   -1    0    0  505  501  0.00000000000E+00  0.00000000000E+00  0.15364001937E+03  0.15364001937E+03  0.00000000000E+00 0.  1.
         21   -1    0    0  503  502 -0.00000000000E+00 -0.00000000000E+00 -0.56448281745E+03  0.56448281745E+03  0.00000000000E+00 0.  1.
         21    1    1    2  503  506 -0.68686515886E+02 -0.55590217060E+02  0.37715879403E+02  0.96075997296E+02  0.00000000000E+00 0.  1.
         21    1    1    2  504  502  0.74213257732E+02  0.62055657034E+02 -0.50675902175E+03  0.51591008744E+03  0.00000000000E+00 0.  1.
         21    1    1    2  505  504  0.39208091123E+02 -0.97247644772E+01  0.12944868369E+02  0.42419512853E+02  0.00000000000E+00 0.  1.
         21    1    1    2  506  501 -0.44734832969E+02  0.32593245025E+01  0.45255475898E+02  0.63717239234E+02  0.00000000000E+00 0.  1.
<scales pt_clust_3="39.32572" pt_clust_4="97.61261" pt_clust_5="40.39611" pt_clust_6="39.32572"></scales>
<clustering>
<clus scale="   39.326">  3  6 -1 -1</clus>
<clus scale="   40.396">  1  5  2 -1</clus>
<clus scale="   97.613">  2  4  1 -1</clus>
<clus scale="   40.396">  1  3  2 -1</clus>
</clustering>
</event>
<event>
 6    0  0.8777103E+002  0.1090143E+03  0.7546771E-02  0.1262406E+00
         21   -1    0    0  503  501  0.00000000000E+00  0.00000000000E+00  0.98471065520E+03  0.98471065520E+03  0.00000000000E+00 0. -1.
         21   -1    0    0  506  502 -0.00000000000E+00 -0.00000000000E+00 -0.62805783200E+02  0.62805783200E+02  0.00000000000E+00 0. -1.
         21    1    1    2  503  504  0.27925134457E+02 -0.91292701333E+02  0.29665782782E+03  0.31164087867E+03  0.00000000000E+00 0. -1.
         21    1    1    2  504  502 -0.13323074906E+03  0.79598704214E+02  0.46808359602E+03  0.49314160144E+03  0.00000000000E+00 0. -1.
         21    1    1    2  505  501  0.41766435810E+01  0.34054891650E+02  0.13167574074E+03  0.13607233626E+03  0.00000000000E+00 0. -1.
         21    1    1    2  506  505  0.10112897103E+03 -0.22360894531E+02  0.25487707427E+02  0.10666162203E+03  0.00000000000E+00 0. -1.
<scales pt_clust_3="84.41123" pt_clust_4="109.01433" pt_clust_5="34.31006" pt_clust_6="14000.00000"></scales>
<clustering>
<clus scale="   34.310">  1  5  2 -1</clus>
<clus scale="   84.411">  1  3  2 -1</clus>
<clus scale="  109.014">  1  4  2 -1</clus>
<clus scale="   34.310">  1  3  2 -1</clus>
</clustering>
</event>
<event>
 6    0  0.8777103E+002  0.1050383E+03  0.7546771E-02  0.1270044E+00
         21   -1    0    0  506  501  0.00000000000E+00  0.00000000000E+00  0.42411783671E+03  0.42411783671E+03  0.00000000000E+00 0.  1.
         21   -1    0    0  504  502 -0.00000000000E+00 -0.00000000000E+00 -0.12758052251E+03  0.12758052251E+03  0.00000000000E+00 0. -1.
         21    1    1    2  503  501 -0.83672263901E+02 -0.14088043064E+02  0.31402294888E+03  0.32528438807E+03  0.00000000000E+00 0.  1.
         21    1    1    2  504  505  0.90772985926E+02  0.81129589954E+00  0.19941089487E+02  0.92941057800E+02  0.00000000000E+00 0. -1.
         21    1    1    2  505  503  0.57795810058E+02 -0.26419231311E+01 -0.32765966905E+02  0.66490179765E+02  0.00000000000E+00 0. -1.
         21    1    1    2  506  502 -0.64896532083E+02  0.15918670296E+02 -0.46607572554E+01  0.66982733585E+02  0.00000000000E+00 0. -1.
<scales pt_clust_3="88.62975" pt_clust_4="45.00403" pt_clust_5="45.00403" pt_clust_6="66.82039"></scales>
<clustering>
<clus scale="   45.004">  4  5 -1 -1</clus>
<clus scale="   66.820">  2  6  1 -1</clus>
<clus scale="   88.630">  1  3  2 -1</clus>
<clus scale="   88.630">  1  3  2 -1</clus>
</clustering>
</event>
<event>
 6    0  0.8777103E+002  0.7669220E+02  0.7546771E-02  0.1338709E+00
         21   -1    0    0  503  501  0.00000000000E+00  0.00000000000E+00  0.57106543386E+03  0.57106543386E+03  0.00000000000E+00 0.  1.
         21   -1    0    0  505  502 -0.00000000000E+00 -0.00000000000E+00 -0.51737859336E+02  0.51737859336E+02  0.00000000000E+00 0.  1.
         21    1    1    2  503  502 -0.19911779720E+02 -0.75076842453E+02  0.11718000123E+02  0.78551402095E+02  0.00000000000E+00 0.  1.
         21    1    1    2  504  506  0.48864121650E+02  0.22147629104E+02  0.79045075572E+02  0.95531899551E+02  0.00000000000E+00 0.  1.
         21    1    1    2  505  504 -0.43400047972E+02  0.81229482431E+02  0.23212909557E+03  0.24973127555E+03  0.00000000000E+00 0.  1.
         21    1    1    2  506  501  0.14447706041E+02 -0.28300269082E+02  0.19643540326E+03  0.19898871599E+03  0.00000000000E+00 0.  1.
<scales pt_clust_3="76.69220" pt_clust_4="54.50171" pt_clust_5="14000.00000" pt_clust_6="31.77486"></scales>
<clustering>
<clus scale="   31.775">  1  6  2 -1</clus>
<clus scale="   54.502">  1  4  2 -1</clus>
<clus scale="   76.692">  2  3  1 -1</clus>
<clus scale="   31.775">  1  3  2 -1</clus>
</clustering>
</event>
<event>
 6    0  0.8777103E+002  0.1109344E+03  0.7546771E-02  0.1258849E+00
         21   -1    0    0  506  501  0.00000000000E+00  0.00000000000E+00  0.97684291705E+03  0.97684291705E+03  0.00000000000E+00 0. -1.
         21   -1    0    0  503  502 -0.00000000000E+00 -0.00000000000E+00 -0.20226700086E+03  0.20226700086E+03  0.00000000000E+00 0. -1.
         21    1    1    2  503  504 -0.32674245911E+02 -0.16848346129E+02 -0.72120245916E+02  0.80949385322E+02  0.00000000000E+00 0. -1.
         21    1    1    2  504  501 -0.25990137680E+02  0.13100498696E+03  0.76625588349E+03  0.77780837797E+03  0.00000000000E+00 0. -1.
         21    1    1    2  505  502  0.47272389254E+01 -0.50465521736E+02 -0.10522167429E+03  0.11679347761E+03  0.00000000000E+00 0. -1.
         21    1    1    2  506  505  0.53937144666E+02 -0.63691119093E+02  0.18566195291E+03  0.20355867701E+03  0.00000000000E+00 0. -1.
<scales pt_clust_3="36.76239" pt_clust_4="14000.00000" pt_clust_5="69.65064" pt_clust_6="110.93443"></scales>
<clustering>
<clus scale="   36.762">  2  3  1 -1</clus>
<clus scale="   69.651">  2  5  1 -1</clus>
<clus scale="  110.934">  2  6  1 -1</clus>
<clus scale="  110.934">  1  3  2 -1</clus>
</clustering>
</event>
<event>
 6    0  0.8777103E+002  0.1023526E+03  0.7546771E-02  0.1275425E+00
         21   -1    0    0  506  501  0.00000000000E+00  0.00000000000E+00  0.11451670030E+03  0.11451670030E+03  0.00000000000E+00 0. -1.
         21   -1    0    0  505  502 -0.00000000000E+00 -0.00000000000E+00 -0.11730960266E+04  0.11730960266E+04  0.00000000000E+00 0. -1.
         21    1    1    2  503  501 -0.28924816336E+02 -0.85320302178E+01  0.84100963710E+02  0.89344348656E+02  0.00000000000E+00 0. -1.
         21    1    1    2  504  503 -0.79635686278E+02  0.31587820338E+01 -0.46425925923E+02  0.92234413484E+02  0.00000000000E+00 0. -1.
         21    1    1    2  505  504  0.10515405927E+02  0.38970847812E+02 -0.22007490774E+03  0.22374598490E+03  0.00000000000E+00 0. -1.
         21    1    1    2  506  502  0.98045096687E+02 -0.33597599628E+02 -0.87617945636E+03  0.88228797987E+03  0.00000000000E+00 0. -1.
<scales pt_clust_3="30.15693" pt_clust_4="102.35262" pt_clust_5="39.35958" pt_clust_6="14000.00000"></scales>
<clustering>
<clus scale="   30.157">  1  3  2 -1</clus>
<clus scale="   39.360">  2  5  1 -1</clus>
<clus scale="  102.353">  1  4  2 -1</clus>
<clus scale="   30.157">  1  3  2 -1</clus>
</clustering>
</event>
<event>
 6    0  0.8777103E+002  0.7788209E+02  0.7546771E-02  0.1335172E+00
         21   -1    0    0  503  501  0.00000000000E+00  0.00000000000E+00  0.21301930787E+03  0.21301930787E+03  0.00000000000E+00 0. -1.
         21   -1    0    0  506  502 -0.00000000000E+00 -0.00000000000E+00 -0.25186738797E+03  0.25186738797E+03  0.00000000000E+00 0. -1.
         21    1    1    2  503  504 -0.10275235918E+03 -0.48943524632E+02  0.79918203565E+02  0.13906989315E+03  0.00000000000E+00 0. -1.
         21    1    1    2  504  502  0.59632425016E+02  0.46601397366E+02 -0.19165862037E+03  0.20606004735E+03  0.00000000000E+00 0. -1.
         21    1    1    2  505  501 -0.15075795414E+02  0.27621991133E+02  0.21603055351E+02  0.38169962038E+02  0.00000000000E+00 0. -1.
         21    1    1    2  506  505  0.58195729575E+02 -0.25279863868E+02  0.51289281357E+02  0.81586793294E+02  0.00000000000E+00 0. -1.
<scales pt_clust_3="14000.00000" pt_clust_4="77.88209" pt_clust_5="31.46830" pt_clust_6="54.89002"></scales>
<clustering>
<clus scale="   31.468">  1  5  2 -1</clus>
<clus scale="   54.890">  1  6  2 -1</clus>
<clus scale="   77.882">  2  4  1 -1</clus>
<clus scale="   31.468">  1  3  2 -1</clus>
</clustering>
</event>
<event>
 6    0  0.8777103E+002  0.7563982E+02  0.7546771E-02  0.1341901E+00
         21   -1    0    0  503  501  0.00000000000E+00  0.00000000000E+00  0.13432354104E+03  0.13432354104E+03  0.00000000000E+00 0.  1.
         21   -1    0    0  506  502 -0.00000000000E+00 -0.00000000000E+00 -0.92251606490E+03  0.92251606490E+03  0.00000000000E+00 0.  1.
         21    1    1    2  503  505 -0.30313930891E+02  0.72305314180E+02 -0.23586960132E+01  0.78438232461E+02  0.00000000000E+00 0.  1.
         21    1    1    2  504  501 -0.38876457214E+02 -0.41682171679E+02  0.56712974598E+02  0.80406118232E+02  0.00000000000E+00 0.  1.
         21    1    1    2  505  502  0.10779205461E+03  0.44698893946E+01 -0.81616797721E+02  0.13527900287E+03  0.00000000000E+00 0.  1.
         21    1    1    2  506  504 -0.38601666507E+02 -0.35093031896E+02 -0.76093000472E+03  0.76271625237E+03  0.00000000000E+00 0.  1.
<scales pt_clust_3="14000.00000" pt_clust_4="60.83186" pt_clust_5="75.63982" pt_clust_6="52.16905"></scales>
<clustering>
<clus scale="   52.169">  2  6  1 -1</clus>
<clus scale="   60.832">  1  4  2 -1</clus>
<clus scale="   75.640">  2  5  1 -1</clus>
<clus scale="   60.832">  1  3  2 -1</clus>
</clustering>
</event>
<event>
 6    0  0.8777103E+002  0.1052691E+03  0.7546771E-02  0.1269590E+00
         21   -1    0    0  506  501  0.00000000000E+00  0.00000000000E+00  0.81754125266E+03  0.81754125266E+03  0.00000000000E+00 0.  1.
         21   -1    0    0  504  502 -0.00000000000E+00 -0.00000000000E+00 -0.46729158611E+03  0.46729158611E+03  0.00000000000E+00 0. -1.
         21    1    1    2  503  502  0.30410830322E+02  0.17277202666E+02 -0.41208312881E+03  0.41356477773E+03  0.00000000000E+00 0. -1.
         21    1    1    2  504  501 -0.86862798853E+02  0.45915849616E+02  0.25622058337E+03  0.27441282479E+03  0.00000000000E+00 0.  1.
         21    1    1    2  505  503 -0.92802325594E+02 -0.77521813125E+02  0.79636144238E+02  0.14478887601E+03  0.00000000000E+00 0.  1.
         21    1    1    2  506  505  0.14925429412E+03  0.14328760844E+02  0.42647606774E+03  0.45206636024E+03  0.00000000000E+00 0.  1.
<scales pt_clust_3="34.97600" pt_clust_4="95.23762" pt_clust_5="105.26911" pt_clust_6="14000.00000"></scales>
<clustering>
<clus scale="   34.976">  2  3  1 -1</clus>
<clus scale="   95.238">  1  4  2 -1</clus>
<clus scale="  105.269">  2  5  1 -1</clus>
<clus scale="   95.238">  1  3  2 -1</clus>
</clustering>
</event>
<event>
 6    0  0.8777103E+002  0.6877483E+02  0.7546771E-02  0.1364310E+00
         21   -1    0    0  505  501  0.00000000000E+00  0.00000000000E+00  0.25857085004E+04  0.25857085004E+04  0.00000000000E+00 0.  1.
         21   -1    0    0  506  502 -0.00000000000E+00 -0.00000000000E+00 -0.27926985085E+02  0.27926985085E+02  0.00000000000E+00 0. -1.
         21    1    1    2  503  502  0.54226740236E+02  0.42851926442E+01  0.21347785518E+03  0.22029910777E+03  0.00000000000E+00 0.  1.
         21    1    1    2  504  501 -0.33601117477E+02 -0.41793812757E+02  0.13796492118E+04  0.13806910246E+04  0.00000000000E+00 0.  1.
         21    1    1    2  505  503  0.40213493962E+02 -0.32923314968E+02  0.89472081923E+03  0.89622899648E+03  0.00000000000E+00 0.  1.
         21    1    1    2  506  504 -0.60839116721E+02  0.70431935081E+02  0.69933629082E+02  0.11641635658E+03  0.00000000000E+00 0. -1.
<scales pt_clust_3="59.38691" pt_clust_4="68.77483" pt_clust_5="51.97182" pt_clust_6="14000.00000"></scales>
<clustering>
<clus scale="   51.972">  1  5  2 -1</clus>
<clus scale="   59.387">  2  3  1 -1</clus>
<clus scale="   68.775">  1  4  2 -1</clus>
<clus scale="   51.972">  1  3  2 -1</clus>
</clustering>
</event>
<event>
 6    0  0.8777103E+002  0.8452765E+02  0.7546771E-02  0.1316672E+00
         21   -1    0    0  504  501  0.00000000000E+00  0.00000000000E+00  0.27277260112E+03  0.27277260112E+03  0.00000000000E+00 0.  1.
         21   -1    0    0  505  502 -0.00000000000E+00 -0.00000000000E+00 -0.26291959219E+03  0.26291959219E+03  0.00000000000E+00 0.  1.
         21    1    1    2  503  506  0.10798643116E+02 -0.81050678034E+02  0.24422117378E+01  0.81803346515E+02  0.00000000000E+00 0.  1.
         21    1    1    2  504  503  0.45667070821E+02  0.34720248982E+02  0.18704354018E+03  0.19564320323E+03  0.00000000000E+00 0.  1.
         21    1    1    2  505  501 -0.95714449837E+02 -0.29278692774E+02 -0.90309934901E+02  0.13481239594E+03  0.00000000000E+00 0.  1.
         21    1    1    2  506  502  0.39248735900E+02  0.75609121826E+02 -0.89322808084E+02  0.12343324762E+03  0.00000000000E+00 0.  1.
<scales pt_clust_3="71.86955" pt_clust_4="57.36704" pt_clust_5="14000.00000" pt_clust_6="84.52765"></scales>
<clustering>
<clus scale="   57.367">  1  4  2 -1</clus>
<clus scale="   71.870">  1  3  2 -1</clus>
<clus scale="   84.528">  2  6  1 -1</clus>
<clus scale="   57.367">  1  3  2 -1</clus>
</clustering>
</event>
<event>
 6    0  0.8777103E+002  0.1132948E+03  0.7546771E-02  0.1254587E+00
         21   -1    0    0  503  501  0.00000000000E+00  0.00000000000E+00  0.12479092979E+04  0.12479092979E+04  0.00000000000E+00 0.  1.
         21   -1    0    0  504  502 -0.00000000000E+00 -0.00000000000E+00 -0.53006939971E+03  0.53006939971E+03  0.00000000000E+00 0.  1.
         21    1    1    2  503  506 -0.57580582744E+02  0.32480834208E+02  0.70031820385E+03  0.70343167027E+03  0.00000000000E+00 0.  1.
         21    1    1    2  504  505  0.26873432022E+02  0.86147655174E+02 -0.40841476789E+03  0.41826573189E+03  0.00000000000E+00 0.  1.
         21    1    1    2  505  501  0.10412321450E+03  0.62984946286E+02  0.44322642018E+03  0.45962855307E+03  0.00000000000E+00 0.  1.
         21    1    1    2  506  502 -0.73416063779E+02 -0.18161343567E+03 -0.17289957950E+02  0.19665274237E+03  0.00000000000E+00 0.  1.
<scales pt_clust_3="66.10997" pt_clust_4="90.36880" pt_clust_5="14000.00000" pt_clust_6="113.29483"></scales>
<clustering>
<clus scale="   66.110">  1  3  2 -1</clus>
<clus scale="   90.369">  2  4  1 -1</clus>
<clus scale="  113.295">  2  6  1 -1</clus>
<clus scale="   66.110">  1  3  2 -1</clus>
</clustering>
</event>
<event>
 6    0  0.8777103E+002  0.1000191E+03  0.7546771E-02  0.1280256E+00
         21   -1    0    0  502  501  0.00000000000E+00  0.00000000000E+00  0.14763151766E+04  0.14763151766E+04  0.00000000000E+00 0. -1.
         21   -1    0    0  506  502 -0.00000000000E+00 -0.00000000000E+00 -0.22219701997E+03  0.22219701997E+03  0.00000000000E+00 0. -1.
         21    1    1    2  503  505  0.10622272234E+03 -0.48825925140E+02  0.32237359126E+03  0.34291685589E+03  0.00000000000E+00 0. -1.
         21    1    1    2  504  503 -0.37352341597E+02  0.10263069363E+02 -0.50078927378E+02  0.63312139301E+02  0.00000000000E+00 0. -1.
         21    1    1    2  505  501 -0.40855093981E+02 -0.97505829709E+01  0.11316278223E+04  0.11324070561E+04  0.00000000000E+00 0. -1.
         21    1    1    2  506  504 -0.28015286758E+02  0.48313438748E+02 -0.14980432957E+03  0.15987614523E+03  0.00000000000E+00 0. -1.
<scales pt_clust_3="88.59043" pt_clust_4="38.66657" pt_clust_5="42.00253" pt_clust_6="38.66657"></scales>
<clustering>
<clus scale="   38.667">  4  6 -1 -1</clus>
<clus scale="   42.003">  1  5  2 -1</clus>
<clus scale="   88.590">  1  3  2 -1</clus>
<clus scale="   42.003">  1  3  2 -1</clus>
</clustering>
</event>
<event>
 6    0  0.8777103E+002  0.1371350E+03  0.7546771E-02  0.1217237E+00
         21   -1    0    0  505  501  0.00000000000E+00  0.00000000000E+00  0.61889687170E+03  0.61889687170E+03  0.00000000000E+00 0.  1.
         21   -1    0    0  504  502 -0.00000000000E+00 -0.00000000000E+00 -0.80956622887E+03  0.80956622887E+03  0.00000000000E+00 0. -1.
         21    1    1    2  503  506  0.99054696099E+01 -0.14135929561E+03  0.77704777236E+02  0.16161250319E+03  0.00000000000E+00 0.  1.
         21    1    1    2  504  503 -0.57562463172E+02  0.12470776389E+03 -0.75516713067E+03  0.76755642059E+03  0.00000000000E+00 0. -1.
         21    1    1    2  505  502  0.25581100108E+02  0.56437521177E+02  0.34037852679E+03  0.34597272722E+03  0.00000000000E+00 0.  1.
         21    1    1    2  506  501  0.22075893454E+02 -0.39785989458E+02  0.14641446947E+03  0.15332144957E+03  0.00000000000E+00 0.  1.
<scales pt_clust_3="137.13500" pt_clust_4="14000.00000" pt_clust_5="49.88442" pt_clust_6="45.50022"></scales>
<clustering>
<clus scale="   45.500">  1  6  2 -1</clus>
<clus scale="   49.884">  1  5  2 -1</clus>
<clus scale="  137.135">  1  3  2 -1</clus>
<clus scale="   45.500">  1  3  2 -1</clus>
</clustering>
</event>
<event>
 6    0  0.8777103E+002  0.6275250E+02  0.7546771E-02  0.1386631E+00
         21   -1    0    0  505  501  0.00000000000E+00  0.00000000000E+00  0.88221862018E+03  0.88221862018E+03  0.00000000000E+00 0.  1.
         21   -1    0    0  504  502 -0.00000000000E+00 -0.00000000000E+00 -0.13362613661E+03  0.13362613661E+03  0.00000000000E+00 0. -1.
         21    1    1    2  503  506 -0.25351349611E+02  0.61967034366E+02  0.34641964632E+03  0.35283023628E+03  0.00000000000E+00 0.  1.
         21    1    1    2  504  503 -0.53470699450E+02  0.31591083768E+02 -0.88117077650E+02  0.10780413557E+03  0.00000000000E+00 0. -1.
         21    1    1    2  505  502  0.14264523071E+02 -0.68669101883E+02  0.11048148866E+02  0.70999885670E+02  0.00000000000E+00 0.  1.
         21    1    1    2  506  501  0.64557525990E+02 -0.24889016251E+02  0.47924176604E+03  0.48421049927E+03  0.00000000000E+00 0.  1.
<scales pt_clust_3="62.75250" pt_clust_4="62.10565" pt_clust_5="52.10491" pt_clust_6="14000.00000"></scales>
<clustering>
<clus scale="   62.106">  2  4  1 -1</clus>
<clus scale="   52.105">  2  5  1 -1</clus>
<clus scale="   62.752">  2  3  1 -1</clus>
<clus scale="   62.752">  1  3  2 -1</clus>
</clustering>
</event>
<event>
 6    0  0.8777103E+002  0.1266177E+03  0.7546771E-02  0.1232563E+00
         21   -1    0    0  505  501  0.00000000000E+00  0.00000000000E+00  0.72113233630E+02  0.72113233630E+02  0.00000000000E+00 0.  1.
         21   -1    0    0  504  502 -0.00000000000E+00 -0.00000000000E+00 -0.64210814050E+03  0.64210814050E+03  0.00000000000E+00 0.  1.
         21    1    1    2  503  506 -0.82416201080E+02  0.79469747007E+02 -0.12067089616E+03  0.16634102341E+03  0.00000000000E+00 0.  1.
         21    1    1    2  504  501  0.97012622571E+02 -0.10185113152E+03 -0.23687525637E+03  0.27549045176E+03  0.00000000000E+00 0.  1.
         21    1    1    2  505  503  0.25644256717E+02  0.39729059232E+02  0.77112013531E+01  0.47911258346E+02  0.00000000000E+00 0.  1.
         21    1    1    2  506  502 -0.40240678208E+02 -0.17347674724E+02 -0.22015995570E+03  0.22447864062E+03  0.00000000000E+00 0.  1.
<scales pt_clust_3="126.61769" pt_clust_4="14000.00000" pt_clust_5="45.55883" pt_clust_6="43.82070"></scales>
<clustering>
<clus scale="   43.821">  2  6  1 -1</clus>
<clus scale="   45.559">  1  5  2 -1</clus>
<clus scale="  126.618">  1  3  2 -1</clus>
<clus scale="   45.559">  1  3  2 -1</clus>
</clustering>
</event>
<event>
 6    0  0.8777103E+002  0.1194982E+03  0.7546771E-02  0.1243927E+00
         21   -1    0    0  506  501  0.00000000000E+00  0.00000000000E+00  0.12204085866E+03  0.12204085866E+03  0.00000000000E+00 0.  1.
         21   -1    0    0  505  502 -0.00000000000E+00 -0.00000000000E+00 -0.16469306478E+03  0.16469306478E+03  0.00000000000E+00 0.  1.
         21    1    1    2  503  502 -0.12355179247E+02 -0.50126994505E+02 -0.51765516047E+02  0.73109744111E+02  0.00000000000E+00 0.  1.
         21    1    1    2  504  503 -0.91165084350E+01 -0.70860580740E+02 -0.86843877575E+01  0.71970488532E+02  0.00000000000E+00 0.  1.
         21    1    1    2  505  501  0.36327851615E+02  0.26823414307E+02  0.40543277239E+01  0.45339231702E+02  0.00000000000E+00 0.  1.
         21    1    1    2  506  504 -0.14856163933E+02  0.94164160938E+02  0.13743369966E+02  0.96314459092E+02  0.00000000000E+00 0.  1.
<scales pt_clust_3="40.72407" pt_clust_4="40.72407" pt_clust_5="45.15759" pt_clust_6="109.47498"></scales>
<clustering>
<clus scale="   40.724">  3  4 -1 -1</clus>
<clus scale="   45.158">  1  5  2 -1</clus>
<clus scale="  109.475">  1  6  2 -1</clus>
<clus scale="   45.158">  1  3  2 -1</clus>
</clustering>
</event>
<event>
 6    0  0.8777103E+002  0.1516093E+03  0.7546771E-02  0.1198509E+00
         21   -1    0    0  502  501  0.00000000000E+00  0.00000000000E+00  0.11575854901E+04  0.11575854901E+04  0.00000000000E+00 0.  1.
         21   -1    0    0  505  502 -0.00000000000E+00 -0.00000000000E+00 -0.10488830729E+03  0.10488830729E+03  0.00000000000E+00 0.  1.
         21    1    1    2  503  506 -0.10599374761E+03  0.58947593755E+02  0.86838046877E+03  0.87680906238E+03  0.00000000000E+00 0.  1.
         21    1    1    2  504  503  0.52863874879E+02 -0.40277246834E+02  0.32480154182E+01  0.66538676602E+02  0.00000000000E+00 0. -1.
         21    1    1    2  505  504  0.44191145769E+02 -0.69002284575E+02 -0.40735611930E+02  0.91507173054E+02  0.00000000000E+00 0.  1.
         21    1    1    2  506  501  0.89387269633E+01  0.50331937654E+02  0.22180431056E+03  0.22761888536E+03  0.00000000000E+00 0. -1.
<scales pt_clust_3="144.13155" pt_clust_4="42.35174" pt_clust_5="42.35174" pt_clust_6="51.11951"></scales>
<clustering>
<clus scale="   42.352">  4  5 -1 -1</clus>
<clus scale="   51.120">  1  6  2 -1</clus>
<clus scale="  144.132">  1  3  2 -1</clus>
<clus scale="   51.120">  1  3  2 -1</clus>
</clustering>
</event>
<event>
 6    0  0.8777103E+002  0.8391593E+02  0.7546771E-02  0.1318292E+00
         21   -1    0    0  506  501  0.00000000000E+00  0.00000000000E+00  0.11148251137E+04  0.11148251137E+04  0.00000000000E+00 0. -1.
         21   -1    0    0  505  502 -0.00000000000E+00 -0.00000000000E+00 -0.69798568874E+02  0.69798568874E+02  0.00000000000E+00 0.  1.
         21    1    1    2  503  501  0.48914673257E+02 -0.91362442741E+02  0.85067085322E+03  0.85696011676E+03  0.00000000000E+00 0. -1.
         21    1    1    2  504  503 -0.99248708973E+02  0.94853386867E+01  0.61768011368E+02  0.11728412131E+03  0.00000000000E+00 0.  1.
         21    1    1    2  505  504  0.40538788325E+02  0.48567465993E+02 -0.96240455634E+01  0.63990736555E+02  0.00000000000E+00 0.  1.
         21    1    1    2  506  502  0.97952473913E+01  0.33309638062E+02  0.14221172581E+03  0.14638870795E+03  0.00000000000E+00 0. -1.
<scales pt_clust_3="83.91593" pt_clust_4="14000.00000" pt_clust_5="64.15610" pt_clust_6="34.72001"></scales>
<clustering>
<clus scale="   34.720">  1  6  2 -1</clus>
<clus scale="   64.156">  2  5  1 -1</clus>
<clus scale="   83.916">  1  3  2 -1</clus>
<clus scale="   34.720">  1  3  2 -1</clus>
</clustering>
</event>
<event>
 6    0  0.8777103E+002  0.9287376E+02  0.7546771E-02  0.1296038E+00
         21   -1    0    0  503  501  0.00000000000E+00  0.00000000000E+00  0.45110861630E+03  0.45110861630E+03  0.00000000000E+00 0. -1.
         21   -1    0    0  504  502 -0.00000000000E+00 -0.00000000000E+00 -0.12400738130E+04  0.12400738130E+04  0.00000000000E+00 0. -1.
         21    1    1    2  503  505  0.15897445008E+02  0.54564502608E+02  0.13570748326E+02  0.58430975627E+02  0.00000000000E+00 0. -1.
         21    1    1    2  504  501  0.45994015886E+02  0.28289140402E+02  0.39406149854E+03  0.39774387436E+03  0.00000000000E+00 0. -1.
         21    1    1    2  505  506 -0.12708668310E+03 -0.72390468412E+02 -0.27876983105E+03  0.31480791547E+03  0.00000000000E+00 0. -1.
         21    1    1    2  506  502  0.65195222201E+02 -0.10463174598E+02 -0.91782761254E+03  0.92019966385E+03  0.00000000000E+00 0. -1.
<scales pt_clust_3="92.87376" pt_clust_4="53.99745" pt_clust_5="14000.00000" pt_clust_6="66.91311"></scales>
<clustering>
<clus scale="   53.997">  1  4  2 -1</clus>
<clus scale="   66.913">  2  6  1 -1</clus>
<clus scale="   92.874">  1  3  2 -1</clus>
<clus scale="   53.997">  1  3  2 -1</clus>
</clustering>
</event>
<event>
 6    0  0.8777103E+002  0.2117817E+03  0.7546771E-02  0.1140163E+00
         21   -1    0    0  506  501  0.00000000000E+00  0.00000000000E+00  0.14553673619E+03  0.14553673619E+03  0.00000000000E+00 0.  1.
         21   -1    0    0  503  502 -0.00000000000E+00 -0.00000000000E+00 -0.11634726188E+04  0.11634726188E+04  0.00000000000E+00 0.  1.
         21    1    1    2  503  504  0.16514688733E+03  0.15741451903E+03 -0.29925805591E+03  0.37630866217E+03  0.00000000000E+00 0.  1.
         21    1    1    2  504  501  0.32688157013E+02  0.15366082102E+01  0.78060510619E+02  0.84642306749E+02  0.00000000000E+00 0.  1.
         21    1    1    2  505  502 -0.10589804494E+03  0.10363469320E+01 -0.30187315466E+03  0.31991072418E+03  0.00000000000E+00 0.  1.
         21    1    1    2  506  505 -0.91936999402E+02 -0.15998747418E+03 -0.49486518270E+03  0.52814766193E+03  0.00000000000E+00 0.  1.
<scales pt_clust_3="14000.00000" pt_clust_4="32.72425" pt_clust_5="101.31272" pt_clust_6="211.78175"></scales>
<clustering>
<clus scale="   32.724">  1  4  2 -1</clus>
<clus scale="  101.313">  2  5  1 -1</clus>
<clus scale="  211.782">  2  6  1 -1</clus>
<clus scale="   32.724">  1  3  2 -1</clus>
</clustering>
</event>
<event>
 6    0  0.8777103E+002  0.1219940E+03  0.7546771E-02  0.1239843E+00
         21   -1    0    0  504  501  0.00000000000E+00  0.00000000000E+00  0.22716408708E+03  0.22716408708E+03  0.00000000000E+00 0. -1.
         21   -1    0    0  503  502 -0.00000000000E+00 -0.00000000000E+00 -0.87917987585E+02  0.87917987585E+02  0.00000000000E+00 0. -1.
         21    1    1    2  503  501 -0.14868909346E+02  0.27745104144E+02  0.58872054084E+02  0.66759224240E+02  0.00000000000E+00 0. -1.
         21    1    1    2  504  505 -0.50627232954E+02 -0.55336916315E+02  0.20674024165E+02  0.77799140735E+02  0.00000000000E+00 0. -1.
         21    1    1    2  505  506  0.50780677069E+01 -0.55201013852E+02  0.33365190642E+02  0.64700654159E+02  0.00000000000E+00 0. -1.
         21    1    1    2  506  502  0.60418074593E+02  0.82792826023E+02  0.26334830599E+02  0.10582305553E+03  0.00000000000E+00 0. -1.
<scales pt_clust_3="31.47817" pt_clust_4="44.76441" pt_clust_5="44.76441" pt_clust_6="108.58155"></scales>
<clustering>
<clus scale="   31.478">  1  3  2 -1</clus>
<clus scale="   44.764">  4  5 -1 -1</clus>
<clus scale="  108.582">  2  6  1 -1</clus>
<clus scale="   31.478">  1  3  2 -1</clus>
</clustering>
</event>
<event>
 6    0  0.8777103E+002  0.1256073E+03  0.7546771E-02  0.1234123E+00
         21   -1    0    0  506  501  0.00000000000E+00  0.00000000000E+00  0.45097792904E+03  0.45097792904E+03  0.00000000000E+00 0.  1.
         21   -1    0    0  505  502 -0.00000000000E+00 -0.00000000000E+00 -0.97088251433E+02  0.97088251433E+02  0.00000000000E+00 0.  1.
         21    1    1    2  503  504 -0.98831312872E+02  0.15993508673E+02  0.14890842272E+03  0.17943561263E+03  0.00000000000E+00 0.  1.
         21    1    1    2  504  502 -0.53594290308E+02 -0.31624447718E+02 -0.20661547392E+02  0.65569453160E+02  0.00000000000E+00 0.  1.
         21    1    1    2  505  501  0.16509403075E+03  0.44272729024E+02  0.19352046182E+03  0.25819814613E+03  0.00000000000E+00 0.  1.
         21    1    1    2  506  503 -0.12668427568E+02 -0.28641789979E+02  0.32122340459E+02  0.44862968547E+02  0.00000000000E+00 0.  1.
<scales pt_clust_3="125.60727" pt_clust_4="63.62305" pt_clust_5="14000.00000" pt_clust_6="31.31838"></scales>
<clustering>
<clus scale="   31.318">  1  6  2 -1</clus>
<clus scale="   63.623">  2  4  1 -1</clus>
<clus scale="  125.607">  1  3  2 -1</clus>
<clus scale="   31.318">  1  3  2 -1</clus>
</clustering>
</event>
<event>
 6    0  0.8777103E+002  0.5966007E+02  0.7546771E-02  0.1399264E+00
         21   -1    0    0  503  501  0.00000000000E+00  0.00000000000E+00  0.19074211033E+03  0.19074211033E+03  0.00000000000E+00 0.  1.
         21   -1    0    0  504  502 -0.00000000000E+00 -0.00000000000E+00 -0.33035221912E+03  0.33035221912E+03  0.00000000000E+00 0. -1.
         21    1    1    2  503  505  0.93574601933E+02  0.71627697406E+02 -0.21668664818E+03  0.24665732639E+03  0.00000000000E+00 0. -1.
         21    1    1    2  504  501 -0.31100034279E+02 -0.49494157127E+02  0.15077351766E+03  0.16170818578E+03  0.00000000000E+00 0.  1.
         21    1    1    2  505  506 -0.30976027678E+02 -0.33034380736E+02 -0.63265779789E+02  0.77803235753E+02  0.00000000000E+00 0. -1.
         21    1    1    2  506  502 -0.31498539976E+02  0.10900840458E+02 -0.10431198472E+02  0.34925581525E+02  0.00000000000E+00 0.  1.
<scales pt_clust_3="59.66007" pt_clust_4="14000.00000" pt_clust_5="48.90221" pt_clust_6="33.33146"></scales>
<clustering>
<clus scale="   33.331">  2  6  1 -1</clus>
<clus scale="   48.902">  2  5  1 -1</clus>
<clus scale="   59.660">  2  3  1 -1</clus>
<clus scale="   59.660">  1  3  2 -1</clus>
</clustering>
</event>
<event>
 6    0  0.8777103E+002  0.9964036E+02  0.7546771E-02  0.1281054E+00
         21   -1    0    0  506  501  0.00000000000E+00  0.00000000000E+00  0.32340512192E+03  0.32340512192E+03  0.00000000000E+00 0. -1.
         21   -1    0    0  503  502 -0.00000000000E+00 -0.00000000000E+00 -0.79670443804E+03  0.79670443804E+03  0.00000000000E+00 0.  1.
         21    1    1    2  503  501  0.80360878367E+02 -0.38580380231E+02  0.20088662464E+03  0.21977659673E+03  0.00000000000E+00 0. -1.
         21    1    1    2  504  502 -0.32932050958E+02 -0.60639412176E+01 -0.55827812626E+03  0.55928146547E+03  0.00000000000E+00 0.  1.
         21    1    1    2  505  504 -0.68154538778E+02 -0.20932936889E+02 -0.21155460163E+03  0.22324555645E+03  0.00000000000E+00 0.  1.
         21    1    1    2  506  505  0.20725711369E+02  0.65577258338E+02  0.95646787118E+02  0.11780594131E+03  0.00000000000E+00 0. -1.
<scales pt_clust_3="14000.00000" pt_clust_4="33.48569" pt_clust_5="99.64036" pt_clust_6="68.05703"></scales>
<clustering>
<clus scale="   33.486">  2  4  1 -1</clus>
<clus scale="   68.057">  1  6  2 -1</clus>
<clus scale="   99.640">  2  5  1 -1</clus>
<clus scale="   68.057">  1  3  2 -1</clus>
</clustering>
</event>
<event>
 6    0  0.8777103E+002  0.8136246E+02  0.7546771E-02  0.1325229E+00
         21   -1    0    0  503  501  0.00000000000E+00  0.00000000000E+00  0.78786384048E+03  0.78786384048E+03  0.00000000000E+00 0. -1.
         21   -1    0    0  506  502 -0.00000000000E+00 -0.00000000000E+00 -0.27310499050E+03  0.27310499050E+03  0.00000000000E+00 0.  1.
         21    1    1    2  503  505  0.19870077897E+02  0.47457592562E+02  0.37646804327E+02  0.63752058504E+02  0.00000000000E+00 0. -1.
         21    1    1    2  504  501 -0.25137275604E+02 -0.32917024473E+02  0.67541874999E+03  0.67668744702E+03  0.00000000000E+00 0. -1.
         21    1    1    2  505  502  0.34553558438E+02  0.72221996681E+02 -0.21321545614E+03  0.22775161018E+03  0.00000000000E+00 0.  1.
         21    1    1    2  506  504 -0.29286360731E+02 -0.86762564771E+02  0.14908751810E+02  0.92777715272E+02  0.00000000000E+00 0. -1.
<scales pt_clust_3="33.61672" pt_clust_4="41.41755" pt_clust_5="81.36246" pt_clust_6="14000.00000"></scales>
<clustering>
<clus scale="   41.418">  1  4  2 -1</clus>
<clus scale="   33.617">  1  3  2 -1</clus>
<clus scale="   81.362">  2  5  1 -1</clus>
<clus scale="   41.418">  1  3  2 -1</clus>
</clustering>
</event>
<event>
 6    0  0.8777103E+002  0.7798629E+02  0.7546771E-02  0.1334865E+00
         21   -1    0    0  503  501  0.00000000000E+00  0.00000000000E+00  0.15537304162E+03  0.15537304162E+03  0.00000000000E+00 0. -1.
         21   -1    0    0  504  502 -0.00000000000E+00 -0.00000000000E+00 -0.16612672092E+03  0.16612672092E+03  0.00000000000E+00 0. -1.
         21    1    1    2  503  505 -0.21357041181E+01 -0.73253257672E+02 -0.48231003341E+01  0.73442925380E+02  0.00000000000E+00 0. -1.
         21    1    1    2  504  506 -0.73462807576E+02 -0.21128317498E+01  0.22982064898E+02  0.77002749704E+02  0.00000000000E+00 0. -1.
         21    1    1    2  505  502  0.29197116777E+02  0.76692325322E+02 -0.70910376816E+02  0.10845490276E+03  0.00000000000E+00 0. -1.
         21    1    1    2  506  501  0.46401394917E+02 -0.13262359005E+01  0.41997732948E+02  0.62599184697E+02  0.00000000000E+00 0. -1.
<scales pt_clust_3="14000.00000" pt_clust_4="51.03205" pt_clust_5="77.98629" pt_clust_6="46.42034"></scales>
<clustering>
<clus scale="   46.420">  1  6  2 -1</clus>
<clus scale="   51.032">  1  4  2 -1</clus>
<clus scale="   77.986">  2  5  1 -1</clus>
<clus scale="   46.420">  1  3  2 -1</clus>
</clustering>
</event>
<event>
 6    0  0.8777103E+002  0.1239667E+03  0.7546771E-02  0.1236693E+00
         21   -1    0    0  504  501  0.00000000000E+00  0.00000000000E+00  0.39823312615E+03  0.39823312615E+03  0.00000000000E+00 0. -1.
         21   -1    0    0  505  502 -0.00000000000E+00 -0.00000000000E+00 -0.20481259040E+03  0.20481259040E+03  0.00000000000E+00 0.  1.
         21    1    1    2  503  501  0.57104708162E+02  0.79674598736E+02  0.89850314611E+02  0.13297393885E+03  0.00000000000E+00 0. -1.
         21    1    1    2  504  506 -0.40447304624E+02  0.47978779307E+02  0.21298857733E+03  0.22204072101E+03  0.00000000000E+00 0. -1.
         21    1    1    2  505  503 -0.27520351621E+02 -0.15910556992E+03 -0.33172449527E+02  0.16484041841E+03  0.00000000000E+00 0.  1.
         21    1    1    2  506  502  0.10862948083E+02  0.31452191877E+02 -0.76245906661E+02  0.83190638280E+02  0.00000000000E+00 0.  1.
<scales pt_clust_3="123.96674" pt_clust_4="63.37823" pt_clust_5="14000.00000" pt_clust_6="33.27528"></scales>
<clustering>
<clus scale="   33.275">  2  6  1 -1</clus>
<clus scale="   63.378">  1  4  2 -1</clus>
<clus scale="  123.967">  1  3  2 -1</clus>
<clus scale="   63.378">  1  3  2 -1</clus>
</clustering>
</event>
<event>
 6    0  0.8777103E+002  0.7974248E+02  0.7546771E-02  0.1329784E+00
         21   -1    0    0  504  501  0.00000000000E+00  0.00000000000E+00  0.87535136434E+02  0.87535136434E+02  0.00000000000E+00 0. -1.
         21   -1    0    0  505  502 -0.00000000000E+00 -0.00000000000E+00 -0.26313948963E+03  0.26313948963E+03  0.00000000000E+00 0. -1.
         21    1    1    2  503  502  0.52408713223E+02  0.24943772204E+02 -0.10015166141E+03  0.11575500109E+03  0.00000000000E+00 0. -1.
         21    1    1    2  504  503  0.16878375637E+02 -0.96281822002E+02 -0.27287231966E+01  0.97788111458E+02  0.00000000000E+00 0. -1.
         21    1    1    2  505  506 -0.32768038039E+02  0.14492519513E+02 -0.57694501876E+02  0.67914895166E+02  0.00000000000E+00 0. -1.
         21    1    1    2  506  501 -0.36519050822E+02  0.56845530285E+02 -0.15029466712E+02  0.69216618351E+02  0.00000000000E+00 0. -1.
<scales pt_clust_3="47.75376" pt_clust_4="79.74248" pt_clust_5="35.82984" pt_clust_6="14000.00000"></scales>
<clustering>
<clus scale="   35.830">  2  5  1 -1</clus>
<clus scale="   47.754">  2  3  1 -1</clus>
<clus scale="   79.742">  2  4  1 -1</clus>
<clus scale="   79.742">  1  3  2 -1</clus>
</clustering>
</event>
<event>
 6    0  0.8777103E+002  0.1004351E+03  0.7546771E-02  0.1279384E+00
         21   -1    0    0  505  501  0.00000000000E+00  0.00000000000E+00  0.62530625899E+02  0.62530625899E+02  0.00000000000E+00 0.  1.
         21   -1    0    0  506  502 -0.00000000000E+00 -0.00000000000E+00 -0.47787594360E+03  0.47787594360E+03  0.00000000000E+00 0. -1.
         21    1    1    2  503  502  0.10018020054E+03 -0.50629459049E+02 -0.31537305993E+03  0.33475301587E+03  0.00000000000E+00 0. -1.
         21    1    1    2  504  503 -0.56756928358E+02  0.23290917425E+02  0.29718966538E+01  0.61421884706E+02  0.00000000000E+00 0.  1.
         21    1    1    2  505  504 -0.35814079403E+02 -0.27252946647E+02 -0.36819097904E+02  0.58146516275E+02  0.00000000000E+00 0.  1.
         21    1    1    2  506  501 -0.76091927827E+01  0.54591488271E+02 -0.66125056522E+02  0.86085152649E+02  0.00000000000E+00 0.  1.
<scales pt_clust_3="100.43515" pt_clust_4="14000.00000" pt_clust_5="45.00413" pt_clust_6="51.43389"></scales>
<clustering>
<clus scale="   45.004">  1  5  2 -1</clus>
<clus scale="   51.434">  1  6  2 -1</clus>
<clus scale="  100.435">  2  3  1 -1</clus>
<clus scale="   45.004">  1  3  2 -1</clus>
</clustering>
</event>
<event>
 6    0  0.8777103E+002  0.8869946E+02  0.7546771E-02  0.1306032E+00
         21   -1    0    0  504  501  0.00000000000E+00  0.00000000000E+00  0.69968887780E+02  0.69968887780E+02  0.00000000000E+00 0.  1.
         21   -1    0    0  506  502 -0.00000000000E+00 -0.00000000000E+00 -0.13169106149E+04  0.13169106149E+04  0.00000000000E+00 0. -1.
         21    1    1    2  503  502 -0.50877987449E+02 -0.46677679993E+02 -0.80465595889E+03  0.80761289464E+03  0.00000000000E+00 0. -1.
         21    1    1    2  504  503  0.14067623754E+03 -0.28266108568E+02 -0.31608157082E+03  0.34712582174E+03  0.00000000000E+00 0. -1.
         21    1    1    2  505  501 -0.73676177788E+02  0.39324917370E+02  0.15675468820E+02  0.84972634550E+02  0.00000000000E+00 0.  1.
         21    1    1    2  506  505 -0.16122072307E+02  0.35618871191E+02 -0.14187966619E+03  0.14716815171E+03  0.00000000000E+00 0. -1.
<scales pt_clust_3="65.81568" pt_clust_4="14000.00000" pt_clust_5="88.69946" pt_clust_6="39.09764"></scales>
<clustering>
<clus scale="   39.098">  2  6  1 -1</clus>
<clus scale="   65.816">  2  3  1 -1</clus>
<clus scale="   88.699">  1  5  2 -1</clus>
<clus scale="   88.699">  1  3  2 -1</clus>
</clustering>
</event>
<event>
 6    0  0.8777103E+002  0.1924847E+03  0.7546771E-02  0.1156239E+00
         21   -1    0    0  506  501  0.00000000000E+00  0.00000000000E+00  0.14653667832E+03  0.14653667832E+03  0.00000000000E+00 0.  1.
         21   -1    0    0  505  502 -0.00000000000E+00 -0.00000000000E+00 -0.90827778128E+03  0.90827778128E+03  0.00000000000E+00 0.  1.
         21    1    1    2  503  501  0.32162636840E+02  0.94251477903E+01 -0.27705683969E+02  0.43484175783E+02  0.00000000000E+00 0.  1.
         21    1    1    2  504  502  0.75962999050E+02 -0.71155744640E+02 -0.17036512769E+03  0.19964416834E+03  0.00000000000E+00 0.  1.
         21    1    1    2  505  503 -0.23275136017E+03  0.68643450976E+01 -0.10838646251E+01  0.23285508296E+03  0.00000000000E+00 0.  1.
         21    1    1    2  506  504  0.12462572429E+03  0.54866251752E+02 -0.56258642667E+03  0.57883103252E+03  0.00000000000E+00 0.  1.
<scales pt_clust_3="33.51520" pt_clust_4="105.92617" pt_clust_5="14000.00000" pt_clust_6="192.48473"></scales>
<clustering>
<clus scale="   33.515">  1  3  2 -1</clus>
<clus scale="  105.926">  2  4  1 -1</clus>
<clus scale="  192.485">  2  6  1 -1</clus>
<clus scale="   33.515">  1  3  2 -1</clus>
</clustering>
</event>
<event>
 6    0  0.8777103E+002  0.6806423E+02  0.7546771E-02  0.1366802E+00
         21   -1    0    0  506  501  0.00000000000E+00  0.00000000000E+00  0.17444613524E+03  0.17444613524E+03  0.00000000000E+00 0. -1.
         21   -1    0    0  504  502 -0.00000000000E+00 -0.00000000000E+00 -0.51961121565E+03  0.51961121565E+03  0.00000000000E+00 0.  1.
         21    1    1    2  503  502 -0.50426872817E+02  0.10866028075E+02 -0.18300757307E+03  0.19013866485E+03  0.00000000000E+00 0.  1.
         21    1    1    2  504  505  0.67599116223E+02 -0.41160874915E+02 -0.16177521677E+03  0.18009741503E+03  0.00000000000E+00 0.  1.
         21    1    1    2  505  501  0.53791171193E+02 -0.39223628890E+02  0.13814883396E+03  0.15335280723E+03  0.00000000000E+00 0. -1.
         21    1    1    2  506  503 -0.70963414600E+02  0.69518475730E+02 -0.13853112454E+03  0.17046846378E+03  0.00000000000E+00 0.  1.
<scales pt_clust_3="51.58430" pt_clust_4="54.83154" pt_clust_5="68.06423" pt_clust_6="14000.00000"></scales>
<clustering>
<clus scale="   51.584">  2  3  1 -1</clus>
<clus scale="   54.832">  2  4  1 -1</clus>
<clus scale="   68.064">  1  5  2 -1</clus>
<clus scale="   68.064">  1  3  2 -1</clus>
</clustering>
</event>
<event>
 6    0  0.8777103E+002  0.1012856E+03  0.7546771E-02  0.1277616E+00
         21   -1    0    0  504  501  0.00000000000E+00  0.00000000000E+00  0.14169297382E+03  0.14169297382E+03  0.00000000000E+00 0. -1.
         21   -1    0    0  505  502 -0.00000000000E+00 -0.00000000000E+00 -0.17844980801E+04  0.17844980801E+04  0.00000000000E+00 0. -1.
         21    1    1    2  503  506 -0.87681276242E+02  0.12375733389E+02 -0.97169456137E+03  0.97572100807E+03  0.00000000000E+00 0. -1.
         21    1    1    2  504  502  0.51300588659E+02 -0.10175843546E+03  0.97784242937E+02  0.15016087290E+03  0.00000000000E+00 0. -1.
         21    1    1    2  505  503  0.42904355130E+02  0.21908460251E+02 -0.70661192446E+03  0.70825219810E+03  0.00000000000E+00 0. -1.
         21    1    1    2  506  501 -0.65236675482E+01  0.67474241819E+02 -0.62282863384E+02  0.92056974850E+02  0.00000000000E+00 0.  1.
<scales pt_clust_3="58.53465" pt_clust_4="101.28556" pt_clust_5="48.17431" pt_clust_6="14000.00000"></scales>
<clustering>
<clus scale="   48.174">  2  5  1 -1</clus>
<clus scale="   58.535">  2  3  1 -1</clus>
<clus scale="  101.286">  1  4  2 -1</clus>
<clus scale="  101.286">  1  3  2 -1</clus>
</clustering>
</event>
<event>
 6    0  0.8777103E+002  0.1215269E+03  0.7546771E-02  0.1240599E+00
         21   -1    0    0  506  501  0.00000000000E+00  0.00000000000E+00  0.37392505244E+03  0.37392505244E+03  0.00000000000E+00 0.  1.
         21   -1    0    0  504  502 -0.00000000000E+00 -0.00000000000E+00 -0.16988592637E+03  0.16988592637E+03  0.00000000000E+00 0.  1.
         21    1    1    2  503  502 -0.30051920570E+02 -0.11812555414E+03 -0.49656732284E+02  0.13161517972E+03  0.00000000000E+00 0.  1.
         21    1    1    2  504  505 -0.29442214704E+02  0.15344625544E+02 -0.48356941416E+02  0.58657440474E+02  0.00000000000E+00 0.  1.
         21    1    1    2  505  501  0.24966436391E+02 -0.33976601011E+02  0.58879745756E+02  0.72419312497E+02  0.00000000000E+00 0. -1.
         21    1    1    2  506  503  0.34527698884E+02  0.13675752961E+03  0.24317305401E+03  0.28111904612E+03  0.00000000000E+00 0.  1.
<scales pt_clust_3="14000.00000" pt_clust_4="33.20093" pt_clust_5="40.43871" pt_clust_6="121.52692"></scales>
<clustering>
<clus scale="   33.201">  2  4  1 -1</clus>
<clus scale="   40.439">  1  5  2 -1</clus>
<clus scale="  121.527">  1  6  2 -1</clus>
<clus scale="   40.439">  1  3  2 -1</clus>
</clustering>
</event>
<event>
 6    0  0.8777103E+002  0.1006238E+03  0.7546771E-02  0.1278990E+00
         21   -1    0    0  506  501  0.00000000000E+00  0.00000000000E+00  0.27274325434E+03  0.27274325434E+03  0.00000000000E+00 0. -1.
         21   -1    0    0  503  502 -0.00000000000E+00 -0.00000000000E+00 -0.12262734278E+04  0.12262734278E+04  0.00000000000E+00 0.  1.
         21    1    1    2  503  505 -0.64059555646E+02  0.11109580816E+03 -0.18575060934E+03  0.22571928170E+03  0.00000000000E+00 0.  1.
         21    1    1    2  504  502  0.47804124555E+02 -0.50924925871E+02 -0.83706864203E+03  0.83997767463E+03  0.00000000000E+00 0.  1.
         21    1    1    2  505  501 -0.73243691485E+02  0.64323548811E+02  0.20599792024E+03  0.22789756563E+03  0.00000000000E+00 0. -1.
         21    1    1    2  506  504  0.89499122576E+02 -0.12449443110E+03 -0.13670884230E+03  0.20542216015E+03  0.00000000000E+00 0.  1.
<scales pt_clust_3="92.55302" pt_clust_4="69.84685" pt_clust_5="14000.00000" pt_clust_6="100.62378"></scales>
<clustering>
<clus scale="   69.847">  2  4  1 -1</clus>
<clus scale="   92.553">  2  3  1 -1</clus>
<clus scale="  100.624">  2  6  1 -1</clus>
<clus scale="  100.624">  1  3  2 -1</clus>
</clustering>
</event>
<event>
 6    0  0.8777103E+002  0.9852229E+02  0.7546771E-02  0.1283434E+00
         21   -1    0    0  502  501  0.00000000000E+00  0.00000000000E+00  0.11212874961E+04  0.11212874961E+04  0.00000000000E+00 0.  1.
         21   -1    0    0  506  502 -0.00000000000E+00 -0.00000000000E+00 -0.12456515370E+03  0.12456515370E+03  0.00000000000E+00 0.  1.
         21    1    1    2  503  505  0.40873522432E+02  0.69315785876E+02  0.31948484442E+03  0.32946303104E+03  0.00000000000E+00 0. -1.
         21    1    1    2  504  503 -0.36466170003E+02  0.50093570663E+02  0.73321729072E+02  0.95995954761E+02  0.00000000000E+00 0. -1.
         21    1    1    2  505  501 -0.39687730552E+02 -0.13168649388E+02  0.68239783446E+03  0.68367779967E+03  0.00000000000E+00 0.  1.
         21    1    1    2  506  504  0.35280378123E+02 -0.10624070715E+03 -0.78482065574E+02  0.13671586431E+03  0.00000000000E+00 0.  1.
<scales pt_clust_3="60.66383" pt_clust_4="98.52229" pt_clust_5="41.81542" pt_clust_6="14000.00000"></scales>
<clustering>
<clus scale="   41.815">  1  5  2 -1</clus>
<clus scale="   60.664">  1  3  2 -1</clus>
<clus scale="   98.522">  1  4  2 -1</clus>
<clus scale="   41.815">  1  3  2 -1</clus>
</clustering>
</event>
<event>
 6    0  0.8777103E+002  0.6556548E+02  0.7546771E-02  0.1375857E+00
         21   -1    0    0  503  501  0.00000000000E+00  0.00000000000E+00  0.27616395535E+03  0.27616395535E+03  0.00000000000E+00 0.  1.
         21   -1    0    0  505  502 -0.00000000000E+00 -0.00000000000E+00 -0.18770661617E+04  0.18770661617E+04  0.00000000000E+00 0. -1.
         21    1    1    2  503  504 -0.33975147644E+02  0.25526697861E+01  0.84585119281E+02  0.91189194449E+02  0.00000000000E+00 0.  1.
         21    1    1    2  504  502  0.14336777994E+02  0.53588937028E+02 -0.77085337883E+03  0.77284684707E+03  0.00000000000E+00 0. -1.
         21    1    1    2  505  506 -0.60497500267E+02 -0.98817118670E+02 -0.10876496620E+04  0.10938037108E+04  0.00000000000E+00 0. -1.
         21    1    1    2  506  501  0.80135869917E+02  0.42675511856E+02  0.17301571515E+03  0.19539036478E+03  0.00000000000E+00 0.  1.
<scales pt_clust_3="34.07091" pt_clust_4="55.44043" pt_clust_5="65.56548" pt_clust_6="14000.00000"></scales>
<clustering>
<clus scale="   34.071">  1  3  2 -1</clus>
<clus scale="   55.440">  2  4  1 -1</clus>
<clus scale="   65.565">  2  5  1 -1</clus>
<clus scale="   34.071">  1  3  2 -1</clus>
</clustering>
</event>
<event>
 6    0  0.8777103E+002  0.1150332E+03  0.7546771E-02  0.1251523E+00
         21   -1    0    0  503  501  0.00000000000E+00  0.00000000000E+00  0.28833151135E+03  0.28833151135E+03  0.00000000000E+00 0. -1.
         21   -1    0    0  504  502 -0.00000000000E+00 -0.00000000000E+00 -0.19376457330E+03  0.19376457330E+03  0.00000000000E+00 0.  1.
         21    1    1    2  503  505 -0.49389146053E+02 -0.71033977071E+01  0.19810728394E+02  0.53686226971E+02  0.00000000000E+00 0.  1.
         21    1    1    2  504  501 -0.82513134750E+02 -0.21340233688E+02  0.16479141651E+03  0.18552636992E+03  0.00000000000E+00 0. -1.
         21    1    1    2  505  506  0.87173397705E+02  0.10006096311E+03 -0.22156167303E+02  0.13454476339E+03  0.00000000000E+00 0.  1.
         21    1    1    2  506  502  0.44728883099E+02 -0.71617331717E+02 -0.67879039555E+02  0.10833872436E+03  0.00000000000E+00 0.  1.
<scales pt_clust_3="49.89735" pt_clust_4="115.03319" pt_clust_5="14000.00000" pt_clust_6="82.89967"></scales>
<clustering>
<clus scale="   49.897">  1  3  2 -1</clus>
<clus scale="   82.900">  2  6  1 -1</clus>
<clus scale="  115.033">  1  4  2 -1</clus>
<clus scale="   49.897">  1  3  2 -1</clus>
</clustering>
</event>
<event>
 6    0  0.8777103E+002  0.8897262E+02  0.7546771E-02  0.1305359E+00
         21   -1    0    0  505  501  0.00000000000E+00  0.00000000000E+00  0.37363525959E+03  0.37363525959E+03  0.00000000000E+00 0.  1.
         21   -1    0    0  501  502 -0.00000000000E+00 -0.00000000000E+00 -0.96491882255E+02  0.96491882255E+02  0.00000000000E+00 0. -1.
         21    1    1    2  503  506  0.19011645291E+02  0.43040723820E+02  0.50343193791E+02  0.68908517069E+02  0.00000000000E+00 0.  1.
         21    1    1    2  504  503  0.76692604789E+02 -0.97840632193E+02  0.94844136692E+02  0.15636481446E+03  0.00000000000E+00 0. -1.
         21    1    1    2  505  504 -0.66650395190E+02  0.44507451057E+02  0.17467046734E+03  0.19217950083E+03  0.00000000000E+00 0.  1.
         21    1    1    2  506  502 -0.29053854889E+02  0.10292457316E+02 -0.42714420489E+02  0.52674309481E+02  0.00000000000E+00 0.  1.
<scales pt_clust_3="46.97571" pt_clust_4="88.97262" pt_clust_5="14000.00000" pt_clust_6="30.82306"></scales>
<clustering>
<clus scale="   30.823">  2  6  1 -1</clus>
<clus scale="   46.976">  2  3  1 -1</clus>
<clus scale="   88.973">  2  4  1 -1</clus>
<clus scale="   88.973">  1  3  2 -1</clus>
</clustering>
</event>
<event>
 6    0  0.8777103E+002  0.1334514E+03  0.7546771E-02  0.1222422E+00
         21   -1    0    0  503  501  0.00000000000E+00  0.00000000000E+00  0.24011463964E+03  0.24011463964E+03  0.00000000000E+00 0.  1.
         21   -1    0    0  505  502 -0.00000000000E+00 -0.00000000000E+00 -0.30816988831E+03  0.30816988831E+03  0.00000000000E+00 0.  1.
         21    1    1    2  503  504  0.39915886339E+02 -0.14626113632E+02  0.90053840514E+02  0.99583609965E+02  0.00000000000E+00 0. -1.
         21    1    1    2  504  502 -0.59222167543E+02  0.14675478542E+03 -0.21455923863E+03  0.26660813763E+03  0.00000000000E+00 0.  1.
         21    1    1    2  505  506  0.31365937286E+02 -0.14358096108E+02 -0.21221533925E+02  0.40500993170E+02  0.00000000000E+00 0. -1.
         21    1    1    2  506  501 -0.12059656082E+02 -0.11777057568E+03  0.77671683362E+02  0.14159178718E+03  0.00000000000E+00 0.  1.
<scales pt_clust_3="43.10214" pt_clust_4="133.45144" pt_clust_5="34.49604" pt_clust_6="14000.00000"></scales>
<clustering>
<clus scale="   34.496">  2  5  1 -1</clus>
<clus scale="   43.102">  1  3  2 -1</clus>
<clus scale="  133.451">  2  4  1 -1</clus>
<clus scale="   43.102">  1  3  2 -1</clus>
</clustering>
</event>
<event>
 6    0  0.8777103E+002  0.9866882E+02  0.7546771E-02  0.1283120E+00
         21   -1    0    0  505  501  0.00000000000E+00  0.00000000000E+00  0.68030785241E+02  0.68030785241E+02  0.00000000000E+00 0.  1.
         21   -1    0    0  504  502 -0.00000000000E+00 -0.00000000000E+00 -0.13252488500E+04  0.13252488500E+04  0.00000000000E+00 0.  1.
         21    1    1    2  503  501  0.84753257475E+02  0.11242666700E+03 -0.45497541637E+02  0.14796248308E+03  0.00000000000E+00 0.  1.
         21    1    1    2  504  506 -0.23169572297E+02 -0.47942998724E+02 -0.75499991197E+03  0.75687530498E+03  0.00000000000E+00 0.  1.
         21    1    1    2  505  502 -0.78508045351E+02 -0.26819184443E+02 -0.10270810297E+03  0.13202930074E+03  0.00000000000E+00 0.  1.
         21    1    1    2  506  503  0.16924360174E+02 -0.37664483833E+02 -0.35401250820E+03  0.35641254646E+03  0.00000000000E+00 0. -1.
<scales pt_clust_3="87.18880" pt_clust_4="40.67649" pt_clust_5="82.96253" pt_clust_6="40.67649"></scales>
<clustering>
<clus scale="   40.676">  4  6 -1 -1</clus>
<clus scale="   82.963">  1  5  2 -1</clus>
<clus scale="   87.189">  1  3  2 -1</clus>
<clus scale="   82.963">  1  3  2 -1</clus>
</clustering>
</event>
<event>
 6    0  0.8777103E+002  0.2324801E+03  0.7546771E-02  0.1124906E+00
         21   -1    0    0  506  501  0.00000000000E+00  0.00000000000E+00  0.28427329542E+03  0.28427329542E+03  0.00000000000E+00 0. -1.
         21   -1    0    0  505  502 -0.00000000000E+00 -0.00000000000E+00 -0.91766151078E+03  0.91766151078E+03  0.00000000000E+00 0.  1.
         21    1    1    2  503  502 -0.27232063558E+02  0.22474432558E+02 -0.44467550796E+03  0.44607509769E+03  0.00000000000E+00 0.  1.
         21    1    1    2  504  503  0.15789595384E+03  0.18899295900E+03  0.16118944988E+03  0.29433231142E+03  0.00000000000E+00 0. -1.
         21    1    1    2  505  501 -0.14808626989E+03 -0.17397416011E+03 -0.35254382034E+03  0.42009962744E+03  0.00000000000E+00 0.  1.
         21    1    1    2  506  504  0.17422379600E+02 -0.37493231445E+02  0.26416630491E+01  0.41427769658E+02  0.00000000000E+00 0. -1.
<scales pt_clust_3="35.30843" pt_clust_4="232.48008" pt_clust_5="14000.00000" pt_clust_6="40.04022"></scales>
<clustering>
<clus scale="   35.308">  2  3  1 -1</clus>
<clus scale="   40.040">  1  6  2 -1</clus>
<clus scale="  232.480">  1  4  2 -1</clus>
<clus scale="   40.040">  1  3  2 -1</clus>
</clustering>
</event>
<event>
 6    0  0.8777103E+002  0.7830727E+02  0.7546771E-02  0.1333925E+00
         21   -1    0    0  503  501  0.00000000000E+00  0.00000000000E+00  0.32708720026E+03  0.32708720026E+03  0.00000000000E+00 0. -1.
         21   -1    0    0  506  502 -0.00000000000E+00 -0.00000000000E+00 -0.16723826144E+03  0.16723826144E+03  0.00000000000E+00 0. -1.
         21    1    1    2  503  505 -0.35599369900E+02 -0.68016470296E+01  0.18198824910E+02  0.40555822858E+02  0.00000000000E+00 0.  1.
         21    1    1    2  504  501 -0.25503436054E+02  0.54085615338E+02  0.24265516296E+03  0.24991439964E+03  0.00000000000E+00 0. -1.
         21    1    1    2  505  502 -0.18182108320E+02  0.43408081448E+02 -0.64812376718E+00  0.47066661900E+02  0.00000000000E+00 0. -1.
         21    1    1    2  506  504  0.79284914274E+02 -0.90692049756E+02 -0.10035692528E+03  0.15678857730E+03  0.00000000000E+00 0. -1.
<scales pt_clust_3="36.24331" pt_clust_4="78.30727" pt_clust_5="47.72548" pt_clust_6="14000.00000"></scales>
<clustering>
<clus scale="   36.243">  1  3  2 -1</clus>
<clus scale="   47.725">  2  5  1 -1</clus>
<clus scale="   78.307">  1  4  2 -1</clus>
<clus scale="   36.243">  1  3  2 -1</clus>
</clustering>
</event>
<event>
 6    0  0.8777103E+002  0.6674890E+02  0.7546771E-02  0.1371511E+00
         21   -1    0    0  503  501  0.00000000000E+00  0.00000000000E+00  0.48281166170E+03  0.48281166170E+03  0.00000000000E+00 0.  1.
         21   -1    0    0  506  502 -0.00000000000E+00 -0.00000000000E+00 -0.20259066464E+03  0.20259066464E+03  0.00000000000E+00 0.  1.
         21    1    1    2  503  504  0.16185346050E+02 -0.55349148746E+02  0.10534967293E+03  0.12010015520E+03  0.00000000000E+00 0.  1.
         21    1    1    2  504  502  0.51206965021E+02  0.19014176321E+02 -0.15319460131E+03  0.16264156307E+03  0.00000000000E+00 0.  1.
         21    1    1    2  505  501  0.41703441997E+02  0.44833498219E+02  0.27371446216E+03  0.28047963640E+03  0.00000000000E+00 0.  1.
         21    1    1    2  506  505 -0.10909575307E+03 -0.84985257942E+01  0.54351463283E+02  0.12218097167E+03  0.00000000000E+00 0.  1.
<scales pt_clust_3="57.73199" pt_clust_4="54.62318" pt_clust_5="66.74890" pt_clust_6="14000.00000"></scales>
<clustering>
<clus scale="   54.623">  2  4  1 -1</clus>
<clus scale="   57.732">  1  3  2 -1</clus>
<clus scale="   66.749">  1  5  2 -1</clus>
<clus scale="   57.732">  1  3  2 -1</clus>
</clustering>
</event>
<event>
 6    0  0.8777103E+002  0.7725113E+02  0.7546771E-02  0.1337038E+00
         21   -1    0    0  504  501  0.00000000000E+00  0.00000000000E+00  0.43249932526E+03  0.43249932526E+03  0.00000000000E+00 0. -1.
         21   -1    0    0  505  502 -0.00000000000E+00 -0.00000000000E+00 -0.25261047681E+03  0.25261047681E+03  0.00000000000E+00 0. -1.
         21    1    1    2  503  502  0.11354083515E+03 -0.73753086263E+01 -0.19415372195E+03  0.22503685070E+03  0.00000000000E+00 0. -1.
         21    1    1    2  504  503 -0.27122572534E+02 -0.43894159641E+02  0.37112038542E+02  0.63558119829E+02  0.00000000000E+00 0. -1.
         21    1    1    2  505  506 -0.37456700638E+02  0.19697363490E+02 -0.11011506732E+02  0.43729210279E+02  0.00000000000E+00 0. -1.
         21    1    1    2  506  501 -0.48961561979E+02  0.31572104777E+02  0.34794203859E+03  0.35278562126E+03  0.00000000000E+00 0. -1.
<scales pt_clust_3="77.25113" pt_clust_4="51.82925" pt_clust_5="42.32010" pt_clust_6="14000.00000"></scales>
<clustering>
<clus scale="   42.320">  2  5  1 -1</clus>
<clus scale="   51.829">  1  4  2 -1</clus>
<clus scale="   77.251">  2  3  1 -1</clus>
<clus scale="   51.829">  1  3  2 -1</clus>
</clustering>
</event>
<event>
 6    0  0.1124930E+003  0.9769437E+02  0.7546771E-02  0.1285220E+00
         21   -1    0    0  505  501  0.00000000000E+00  0.00000000000E+00  0.36107882388E+03  0.36107882388E+03  0.00000000000E+00 0. -1.
         21   -1    0    0  504  502 -0.00000000000E+00 -0.00000000000E+00 -0.14351659023E+04  0.14351659023E+04  0.00000000000E+00 0. -1.
         21    1    1    2  503  506 -0.40693360636E+02  0.55616921605E+02  0.18497736913E+02  0.71353751405E+02  0.00000000000E+00 0. -1.
         21    1    1    2  504  501  0.15013975821E+02 -0.47029350911E+02 -0.12146422202E+04  0.12156450560E+04  0.00000000000E+00 0. -1.
         21    1    1    2  505  503 -0.54864255882E+02  0.19423703639E+02  0.30335854526E+03  0.30889120061E+03  0.00000000000E+00 0. -1.
         21    1    1    2  506  502  0.80543640698E+02 -0.28011274333E+02 -0.18130114040E+03  0.20035471808E+03  0.00000000000E+00 0. -1.
<scales pt_clust_3="97.69437" pt_clust_4="49.36780" pt_clust_5="57.82792" pt_clust_6="14000.00000"></scales>
<clustering>
<clus scale="   49.368">  2  4  1 -1</clus>
<clus scale="   57.828">  1  5  2 -1</clus>
<clus scale="   97.694">  1  3  2 -1</clus>
<clus scale="   57.828">  1  3  2 -1</clus>
</clustering>
</event>
<event>
 6    0  0.8777103E+002  0.1300864E+03  0.7546771E-02  0.1227328E+00
         21   -1    0    0  504  501  0.00000000000E+00  0.00000000000E+00  0.31767699361E+03  0.31767699361E+03  0.00000000000E+00 0.  1.
         21   -1    0    0  506  502 -0.00000000000E+00 -0.00000000000E+00 -0.96085304921E+02  0.96085304921E+02  0.00000000000E+00 0.  1.
         21    1    1    2  503  501 -0.48374300291E+02 -0.22579093098E+02  0.61194365654E+02  0.81207381202E+02  0.00000000000E+00 0.  1.
         21    1    1    2  504  502  0.12931572836E+03 -0.13003014320E+02  0.17842361829E+03  0.22074107807E+03  0.00000000000E+00 0.  1.
         21    1    1    2  505  503 -0.57987629878E+02  0.97018764074E+00  0.13650897505E+02  0.59580646905E+02  0.00000000000E+00 0.  1.
         21    1    1    2  506  505 -0.22953798194E+02  0.34611919776E+02 -0.31677192762E+02  0.52233192353E+02  0.00000000000E+00 0.  1.
<scales pt_clust_3="43.95529" pt_clust_4="120.34455" pt_clust_5="43.95529" pt_clust_6="41.53146"></scales>
<clustering>
<clus scale="   41.531">  2  6  1 -1</clus>
<clus scale="   43.955">  3  5 -1 -1</clus>
<clus scale="  120.345">  1  4  2 -1</clus>
<clus scale="  120.345">  1  3  2 -1</clus>
</clustering>
</event>
<event>
 6    0  0.8777103E+002  0.1338226E+03  0.7546771E-02  0.1221891E+00
         21   -1    0    0  506  501  0.00000000000E+00  0.00000000000E+00  0.10868745738E+03  0.10868745738E+03  0.00000000000E+00 0. -1.
         21   -1    0    0  505  502 -0.00000000000E+00 -0.00000000000E+00 -0.13986709087E+04  0.13986709087E+04  0.00000000000E+00 0. -1.
         21    1    1    2  503  502  0.45639752140E+02 -0.29873538116E+02 -0.20845438450E+03  0.21547307413E+03  0.00000000000E+00 0. -1.
         21    1    1    2  504  501  0.12566837217E+03  0.13221745413E+02  0.27461659356E+02  0.12931162767E+03  0.00000000000E+00 0. -1.
         21    1    1    2  505  504  0.54147486809E+01  0.31444721055E+02 -0.83864911403E+03  0.83925587663E+03  0.00000000000E+00 0. -1.
         21    1    1    2  506  503 -0.17672287299E+03 -0.14792928352E+02 -0.27034161219E+03  0.32331778771E+03  0.00000000000E+00 0. -1.
<scales pt_clust_3="50.96199" pt_clust_4="133.82257" pt_clust_5="31.90752" pt_clust_6="14000.00000"></scales>
<clustering>
<clus scale="   31.908">  2  5  1 -1</clus>
<clus scale="   50.962">  2  3  1 -1</clus>
<clus scale="  133.823">  1  4  2 -1</clus>
<clus scale="  133.823">  1  3  2 -1</clus>
</clustering>
</event>
<event>
 6    0  0.8777103E+002  0.8761168E+02  0.7546771E-02  0.1308741E+00
         21   -1    0    0  506  501  0.00000000000E+00  0.00000000000E+00  0.30512549318E+03  0.30512549318E+03  0.00000000000E+00 0.  1.
         21   -1    0    0  505  502 -0.00000000000E+00 -0.00000000000E+00 -0.17855777680E+03  0.17855777680E+03  0.00000000000E+00 0.  1.
         21    1    1    2  503  502  0.13990815778E+02 -0.51283136117E+02  0.29339192766E+01  0.53238246200E+02  0.00000000000E+00 0.  1.
         21    1    1    2  504  501  0.64659763546E+02  0.38333807677E+02  0.25577265275E+02  0.79401274119E+02  0.00000000000E+00 0.  1.
         21    1    1    2  505  504  0.15448130943E+02 -0.42693550090E+02 -0.10834828621E+03  0.11747652997E+03  0.00000000000E+00 0.  1.
         21    1    1    2  506  503 -0.94098710266E+02  0.55642878529E+02  0.20640481804E+03  0.23356721970E+03  0.00000000000E+00 0.  1.
<scales pt_clust_3="70.51057" pt_clust_4="87.61168" pt_clust_5="45.40247" pt_clust_6="14000.00000"></scales>
<clustering>
<clus scale="   45.402">  2  5  1 -1</clus>
<clus scale="   70.511">  2  3  1 -1</clus>
<clus scale="   87.612">  2  4  1 -1</clus>
<clus scale="   87.612">  1  3  2 -1</clus>
</clustering>
</event>
<event>
 6    0  0.8777103E+002  0.9388765E+02  0.7546771E-02  0.1293701E+00
         21   -1    0    0  504  501  0.00000000000E+00  0.00000000000E+00  0.11020398287E+03  0.11020398287E+03  0.00000000000E+00 0.  1.
         21   -1    0    0  506  502 -0.00000000000E+00 -0.00000000000E+00 -0.66869986921E+03  0.66869986921E+03  0.00000000000E+00 0.  1.
         21    1    1    2  503  505 -0.66611439205E+02 -0.25263407294E+02 -0.14113371545E+03  0.15809506387E+03  0.00000000000E+00 0.  1.
         21    1    1    2  504  502 -0.43696795185E+02  0.84047136687E+02  0.64712993108E+02  0.11472184871E+03  0.00000000000E+00 0.  1.
         21    1    1    2  505  501  0.71689086048E+02 -0.51248796152E+02 -0.43895188024E+03  0.44771030514E+03  0.00000000000E+00 0.  1.
         21    1    1    2  506  503  0.38619148342E+02 -0.75349332416E+01 -0.43123283754E+02  0.58376634361E+02  0.00000000000E+00 0.  1.
<scales pt_clust_3="63.34500" pt_clust_4="93.88765" pt_clust_5="14000.00000" pt_clust_6="39.34735"></scales>
<clustering>
<clus scale="   39.347">  2  6  1 -1</clus>
<clus scale="   63.345">  2  3  1 -1</clus>
<clus scale="   93.888">  1  4  2 -1</clus>
<clus scale="   93.888">  1  3  2 -1</clus>
</clustering>
</event>
<event>
 6    0  0.8777103E+002  0.1306908E+03  0.7546771E-02  0.1226434E+00
         21   -1    0    0  506  501  0.00000000000E+00  0.00000000000E+00  0.11755728237E+03  0.11755728237E+03  0.00000000000E+00 0.  1.
         21   -1    0    0  505  502 -0.00000000000E+00 -0.00000000000E+00 -0.31212184659E+03  0.31212184659E+03  0.00000000000E+00 0.  1.
         21    1    1    2  503  502  0.10944399020E+02 -0.82742886267E+02 -0.58894695360E+02  0.10215062525E+03  0.00000000000E+00 0.  1.
         21    1    1    2  504  501  0.41281713093E+02  0.66824395282E+02  0.29699924722E+02  0.83974788890E+02  0.00000000000E+00 0.  1.
         21    1    1    2  505  504 -0.87130610104E+02  0.67415991409E+02 -0.72893619622E+02  0.13209897387E+03  0.00000000000E+00 0.  1.
         21    1    1    2  506  503  0.34904497991E+02 -0.51497500423E+02 -0.92476173965E+02  0.11145474095E+03  0.00000000000E+00 0.  1.
<scales pt_clust_3="43.95058" pt_clust_4="78.54731" pt_clust_5="120.36848" pt_clust_6="43.95058"></scales>
<clustering>
<clus scale="   43.951">  3  6 -1 -1</clus>
<clus scale="   78.547">  1  4  2 -1</clus>
<clus scale="  120.368">  1  5  2 -1</clus>
<clus scale="   78.547">  1  3  2 -1</clus>
</clustering>
</event>
<event>
 6    0  0.8777103E+002  0.1210972E+03  0.7546771E-02  0.1241298E+00
         21   -1    0    0  506  501  0.00000000000E+00  0.00000000000E+00  0.14269654269E+04  0.14269654269E+04  0.00000000000E+00 0. -1.
         21   -1    0    0  505  502 -0.00000000000E+00 -0.00000000000E+00 -0.34750267394E+02  0.34750267394E+02  0.00000000000E+00 0. -1.
         21    1    1    2  503  501  0.52219499132E+02  0.80433906322E+01  0.49410440696E+03  0.49692125855E+03  0.00000000000E+00 0. -1.
         21    1    1    2  504  503 -0.10067057279E+03  0.47554463627E+02  0.32904383754E+03  0.34736988680E+03  0.00000000000E+00 0. -1.
         21    1    1    2  505  504  0.12060975807E+03 -0.39846923662E+02  0.17353251402E+03  0.21505353865E+03  0.00000000000E+00 0. -1.
         21    1    1    2  506  502 -0.72158684409E+02 -0.15750930597E+02  0.39553440095E+03  0.40237101024E+03  0.00000000000E+00 0. -1.
<scales pt_clust_3="52.83533" pt_clust_4="14000.00000" pt_clust_5="121.09718" pt_clust_6="51.29054"></scales>
<clustering>
<clus scale="   52.835">  1  3  2 -1</clus>
<clus scale="   51.291">  1  6  2 -1</clus>
<clus scale="  121.097">  2  5  1 -1</clus>
<clus scale="   52.835">  1  3  2 -1</clus>
</clustering>
</event>
<event>
 6    0  0.8777103E+002  0.8645329E+02  0.7546771E-02  0.1311675E+00
         21   -1    0    0  505  501  0.00000000000E+00  0.00000000000E+00  0.11232128896E+04  0.11232128896E+04  0.00000000000E+00 0. -1.
         21   -1    0    0  504  502 -0.00000000000E+00 -0.00000000000E+00 -0.12530392783E+03  0.12530392783E+03  0.00000000000E+00 0. -1.
         21    1    1    2  503  501 -0.55359950955E+02 -0.21865544759E+02  0.55194193503E+02  0.81174042734E+02  0.00000000000E+00 0.  1.
         21    1    1    2  504  503  0.50567509968E+02  0.41688238791E+01  0.16864730014E+02  0.53468413810E+02  0.00000000000E+00 0.  1.
         21    1    1    2  505  506  0.91052977307E+02  0.52417334362E+01  0.99712419507E+03  0.10012865628E+04  0.00000000000E+00 0. -1.
         21    1    1    2  506  502 -0.86260536320E+02  0.12454987443E+02 -0.71274156842E+02  0.11258779806E+03  0.00000000000E+00 0. -1.
<scales pt_clust_3="14000.00000" pt_clust_4="50.73906" pt_clust_5="86.45329" pt_clust_6="45.72015"></scales>
<clustering>
<clus scale="   50.739">  2  4  1 -1</clus>
<clus scale="   45.720">  2  6  1 -1</clus>
<clus scale="   86.453">  1  5  2 -1</clus>
<clus scale="   86.453">  1  3  2 -1</clus>
</clustering>
</event>
<event>
 6    0  0.8777103E+002  0.8293748E+02  0.7546771E-02  0.1320916E+00
         21   -1    0    0  503  501  0.00000000000E+00  0.00000000000E+00  0.93984561180E+02  0.93984561180E+02  0.00000000000E+00 0. -1.
         21   -1    0    0  504  502 -0.00000000000E+00 -0.00000000000E+00 -0.44392421554E+03  0.44392421554E+03  0.00000000000E+00 0.  1.
         21    1    1    2  503  506 -0.13454820222E+02  0.82827413510E+02  0.26865100407E+02  0.88108718274E+02  0.00000000000E+00 0. -1.
         21    1    1    2  504  505  0.12792566073E+02  0.28086895516E+02 -0.27695971315E+02  0.41467942721E+02  0.00000000000E+00 0. -1.
         21    1    1    2  505  501  0.75357168785E+02 -0.33959023331E+02 -0.66587342942E+02  0.10614043712E+03  0.00000000000E+00 0.  1.
         21    1    1    2  506  502 -0.74694914635E+02 -0.76955285695E+02 -0.28252144050E+03  0.30219167860E+03  0.00000000000E+00 0.  1.
<scales pt_clust_3="81.19545" pt_clust_4="30.86298" pt_clust_5="82.93748" pt_clust_6="14000.00000"></scales>
<clustering>
<clus scale="   30.863">  2  4  1 -1</clus>
<clus scale="   82.937">  1  5  2 -1</clus>
<clus scale="   81.195">  1  3  2 -1</clus>
<clus scale="   82.937">  1  3  2 -1</clus>
</clustering>
</event>
<event>
 6    0  0.8777103E+002  0.1063377E+03  0.7546771E-02  0.1267506E+00
         21   -1    0    0  504  501  0.00000000000E+00  0.00000000000E+00  0.28938675198E+03  0.28938675198E+03  0.00000000000E+00 0.  1.
         21   -1    0    0  503  502 -0.00000000000E+00 -0.00000000000E+00 -0.16409995058E+04  0.16409995058E+04  0.00000000000E+00 0. -1.
         21    1    1    2  503  505 -0.30027933050E+02 -0.10250886308E+03 -0.15296350646E+04  0.15333600929E+04  0.00000000000E+00 0. -1.
         21    1    1    2  504  502  0.42261683425E+02  0.45492786498E+02  0.19264378054E+03  0.20240372944E+03  0.00000000000E+00 0.  1.
         21    1    1    2  505  506 -0.66843171047E+02  0.69360967970E+02 -0.67490558248E+02  0.11761772335E+03  0.00000000000E+00 0.  1.
         21    1    1    2  506  501  0.54609420673E+02 -0.12344891385E+02  0.52869088452E+02  0.77004712085E+02  0.00000000000E+00 0.  1.
<scales pt_clust_3="14000.00000" pt_clust_4="106.33772" pt_clust_5="91.16788" pt_clust_6="55.98737"></scales>
<clustering>
<clus scale="   55.987">  1  6  2 -1</clus>
<clus scale="   91.168">  1  5  2 -1</clus>
<clus scale="  106.338">  1  4  2 -1</clus>
<clus scale="   55.987">  1  3  2 -1</clus>
</clustering>
</event>
<event>
 6    0  0.8777103E+002  0.1220984E+03  0.7546771E-02  0.1239675E+00
         21   -1    0    0  505  501  0.00000000000E+00  0.00000000000E+00  0.17473944551E+04  0.17473944551E+04  0.00000000000E+00 0.  1.
         21   -1    0    0  506  502 -0.00000000000E+00 -0.00000000000E+00 -0.36581539058E+02  0.36581539058E+02  0.00000000000E+00 0.  1.
         21    1    1    2  503  504 -0.42636443968E+02 -0.91777124129E+02  0.10123218236E+04  0.10173673778E+04  0.00000000000E+00 0.  1.
         21    1    1    2  504  501 -0.39524823729E+02 -0.58016024232E+01  0.26123960414E+03  0.26427637249E+03  0.00000000000E+00 0.  1.
         21    1    1    2  505  502  0.49549509404E+02 -0.45752215890E+02  0.39200491246E+02  0.78007035933E+02  0.00000000000E+00 0.  1.
         21    1    1    2  506  503  0.32611758293E+02  0.14333094244E+03  0.39805099703E+03  0.42432520792E+03  0.00000000000E+00 0.  1.
<scales pt_clust_3="122.09836" pt_clust_4="39.94835" pt_clust_5="66.46238" pt_clust_6="14000.00000"></scales>
<clustering>
<clus scale="   39.948">  1  4  2 -1</clus>
<clus scale="   66.462">  2  5  1 -1</clus>
<clus scale="  122.098">  1  3  2 -1</clus>
<clus scale="   39.948">  1  3  2 -1</clus>
</clustering>
</event>
<event>
 6    0  0.8777103E+002  0.6557955E+02  0.7546771E-02  0.1375805E+00
         21   -1    0    0  506  501  0.00000000000E+00  0.00000000000E+00  0.62102916809E+03  0.62102916809E+03  0.00000000000E+00 0.  1.
         21   -1    0    0  505  502 -0.00000000000E+00 -0.00000000000E+00 -0.24610156232E+03  0.24610156232E+03  0.00000000000E+00 0. -1.
         21    1    1    2  503  502 -0.38451625443E+02  0.49352615167E+02  0.49111789948E+02  0.79537261927E+02  0.00000000000E+00 0.  1.
         21    1    1    2  504  501 -0.58142853815E+02 -0.58560435497E+02  0.36559934230E+02  0.90258212071E+02  0.00000000000E+00 0.  1.
         21    1    1    2  505  504  0.51489378955E+02  0.38483841647E+02 -0.19745900117E+03  0.20765890147E+03  0.00000000000E+00 0. -1.
         21    1    1    2  506  503  0.45105100302E+02 -0.29276021317E+02  0.48671488277E+03  0.48967635496E+03  0.00000000000E+00 0.  1.
<scales pt_clust_3="38.89998" pt_clust_4="65.57955" pt_clust_5="14000.00000" pt_clust_6="53.77319"></scales>
<clustering>
<clus scale="   53.773">  1  6  2 -1</clus>
<clus scale="   38.900">  1  3  2 -1</clus>
<clus scale="   65.580">  1  4  2 -1</clus>
<clus scale="   53.773">  1  3  2 -1</clus>
</clustering>
</event>
<event>
 6    0  0.8777103E+002  0.1644675E+03  0.7546771E-02  0.1183743E+00
         21   -1    0    0  503  501  0.00000000000E+00  0.00000000000E+00  0.25633605437E+03  0.25633605437E+03  0.00000000000E+00 0.  1.
         21   -1    0    0  506  502 -0.00000000000E+00 -0.00000000000E+00 -0.28271489924E+03  0.28271489924E+03  0.00000000000E+00 0.  1.
         21    1    1    2  503  502 -0.12727522484E+03  0.13605636597E+02 -0.43216851981E+02  0.13509919504E+03  0.00000000000E+00 0. -1.
         21    1    1    2  504  501 -0.73423720817E+02 -0.13595547979E+02  0.92088725670E+02  0.11855890983E+03  0.00000000000E+00 0.  1.
         21    1    1    2  505  504  0.21055835209E+03 -0.54744715233E+02 -0.45298226366E+02  0.22222450988E+03  0.00000000000E+00 0.  1.
         21    1    1    2  506  505 -0.98594064250E+01  0.54734626615E+02 -0.29952492194E+02  0.63168338861E+02  0.00000000000E+00 0.  1.
<scales pt_clust_3="164.46751" pt_clust_4="74.72168" pt_clust_5="14000.00000" pt_clust_6="55.61553"></scales>
<clustering>
<clus scale="   55.616">  2  6  1 -1</clus>
<clus scale="   74.722">  1  4  2 -1</clus>
<clus scale="  164.468">  2  3  1 -1</clus>
<clus scale="   74.722">  1  3  2 -1</clus>
</clustering>
</event>
<event>
 6    0  0.8777103E+002  0.9827207E+02  0.7546771E-02  0.1283972E+00
         21   -1    0    0  504  501  0.00000000000E+00  0.00000000000E+00  0.19310255011E+04  0.19310255011E+04  0.00000000000E+00 0. -1.
         21   -1    0    0  503  502 -0.00000000000E+00 -0.00000000000E+00 -0.15372209365E+03  0.15372209365E+03  0.00000000000E+00 0.  1.
         21    1    1    2  503  505 -0.51080644859E+02  0.31239065848E+02  0.12972126162E+03  0.14287308084E+03  0.00000000000E+00 0.  1.
         21    1    1    2  504  506 -0.55450455196E+02  0.97988656558E+01  0.18854573643E+02  0.59382368568E+02  0.00000000000E+00 0.  1.
         21    1    1    2  505  501  0.10135395149E+03 -0.10944553289E+01  0.17509103690E+04  0.17538417664E+04  0.00000000000E+00 0. -1.
         21    1    1    2  506  502  0.51771485657E+01 -0.39943476175E+02 -0.12218279682E+03  0.12865037892E+03  0.00000000000E+00 0.  1.
<scales pt_clust_3="54.49790" pt_clust_4="14000.00000" pt_clust_5="98.27207" pt_clust_6="40.27759"></scales>
<clustering>
<clus scale="   40.278">  2  6  1 -1</clus>
<clus scale="   54.498">  2  3  1 -1</clus>
<clus scale="   98.272">  1  5  2 -1</clus>
<clus scale="   98.272">  1  3  2 -1</clus>
</clustering>
</event>
<event>
 6    0  0.8777103E+002  0.1064152E+03  0.7546771E-02  0.1267356E+00
         21   -1    0    0  503  501  0.00000000000E+00  0.00000000000E+00  0.29423236592E+04  0.29423236592E+04  0.00000000000E+00 0. -1.
         21   -1    0    0  506  502 -0.00000000000E+00 -0.00000000000E+00 -0.21331159048E+02  0.21331159048E+02  0.00000000000E+00 0. -1.
         21    1    1    2  503  504 -0.93936624167E+02  0.50278705586E+01  0.25913294820E+04  0.25930364157E+04  0.00000000000E+00 0. -1.
         21    1    1    2  504  505  0.42360017514E+02 -0.12979351472E+02  0.80512274270E+02  0.91897012773E+02  0.00000000000E+00 0.  1.
         21    1    1    2  505  502  0.73754232143E+02  0.31521899257E+02  0.22340224335E+03  0.23736444389E+03  0.00000000000E+00 0. -1.
         21    1    1    2  506  501 -0.22177625490E+02 -0.23570418344E+02  0.25748500531E+02  0.41356945884E+02  0.00000000000E+00 0. -1.
<scales pt_clust_3="95.40162" pt_clust_4="37.00131" pt_clust_5="37.00131" pt_clust_6="32.36374"></scales>
<clustering>
<clus scale="   32.364">  2  6  1 -1</clus>
<clus scale="   37.001">  4  5 -1 -1</clus>
<clus scale="   95.402">  1  3  2 -1</clus>
<clus scale="   95.402">  1  3  2 -1</clus>
</clustering>
</event>
<event>
 6    0  0.8777103E+002  0.3224705E+03  0.7546771E-02  0.1074518E+00
         21   -1    0    0  503  501  0.00000000000E+00  0.00000000000E+00  0.18536642389E+04  0.18536642389E+04  0.00000000000E+00 0. -1.
         21   -1    0    0  506  502 -0.00000000000E+00 -0.00000000000E+00 -0.10285254199E+03  0.10285254199E+03  0.00000000000E+00 0. -1.
         21    1    1    2  503  502  0.20685999414E+03 -0.24878398597E+03  0.39376625970E+03  0.50964340094E+03  0.00000000000E+00 0. -1.
         21    1    1    2  504  505 -0.85097368191E+00  0.45905375110E+02  0.25106856810E+03  0.25523215610E+03  0.00000000000E+00 0. -1.
         21    1    1    2  505  501  0.37347228377E+02 -0.10014226995E+02  0.52764909288E+03  0.52906395211E+03  0.00000000000E+00 0. -1.
         21    1    1    2  506  504 -0.24335624883E+03  0.21289283785E+03  0.57832777628E+03  0.66257727177E+03  0.00000000000E+00 0. -1.
<scales pt_clust_3="14000.00000" pt_clust_4="44.43891" pt_clust_5="38.66653" pt_clust_6="322.47046"></scales>
<clustering>
<clus scale="   38.667">  1  5  2 -1</clus>
<clus scale="   44.439">  1  4  2 -1</clus>
<clus scale="  322.470">  1  6  2 -1</clus>
<clus scale="   38.667">  1  3  2 -1</clus>
</clustering>
</event>
<event>
 6    0  0.8777103E+002  0.8489913E+02  0.7546771E-02  0.1315697E+00
         21   -1    0    0  504  501  0.00000000000E+00  0.00000000000E+00  0.85110679565E+03  0.85110679565E+03  0.00000000000E+00 0. -1.
         21   -1    0    0  503  502 -0.00000000000E+00 -0.00000000000E+00 -0.27290425549E+02  0.27290425549E+02  0.00000000000E+00 0. -1.
         21    1    1    2  503  506 -0.94406294354E+02 -0.34421663682E+01  0.14539732115E+03  0.17339197767E+03  0.00000000000E+00 0. -1.
         21    1    1    2  504  505  0.82749440776E+02 -0.56901543459E+02  0.53190979289E+03  0.54130701397E+03  0.00000000000E+00 0. -1.
         21    1    1    2  505  502  0.22594876988E+02  0.28725852401E+02  0.52960635972E+02  0.64346965933E+02  0.00000000000E+00 0. -1.
         21    1    1    2  506  501 -0.10938023410E+02  0.31617857427E+02  0.93548620086E+02  0.99351263627E+02  0.00000000000E+00 0. -1.
<scales pt_clust_3="84.89913" pt_clust_4="14000.00000" pt_clust_5="38.01619" pt_clust_6="33.45638"></scales>
<clustering>
<clus scale="   33.456">  1  6  2 -1</clus>
<clus scale="   38.016">  2  5  1 -1</clus>
<clus scale="   84.899">  2  3  1 -1</clus>
<clus scale="   33.456">  1  3  2 -1</clus>
</clustering>
</event>
<event>
 6    0  0.8777103E+002  0.1113532E+03  0.7546771E-02  0.1258084E+00
         21   -1    0    0  506  501  0.00000000000E+00  0.00000000000E+00  0.40965667418E+03  0.40965667418E+03  0.00000000000E+00 0. -1.
         21   -1    0    0  503  502 -0.00000000000E+00 -0.00000000000E+00 -0.30276418177E+03  0.30276418177E+03  0.00000000000E+00 0. -1.
         21    1    1    2  503  504  0.53976721565E+02  0.15853386177E+02 -0.23601658002E+01  0.56306187109E+02  0.00000000000E+00 0.  1.
         21    1    1    2  504  501  0.58978090692E+02 -0.11888939074E+03  0.20971684820E+03  0.24818190673E+03  0.00000000000E+00 0. -1.
         21    1    1    2  505  502 -0.11494267815E+03  0.71308657180E+02 -0.23420801005E+03  0.27046281781E+03  0.00000000000E+00 0. -1.
         21    1    1    2  506  505  0.19878658968E+01  0.31727347381E+02  0.13374382005E+03  0.13746994429E+03  0.00000000000E+00 0. -1.
<scales pt_clust_3="57.39982" pt_clust_4="14000.00000" pt_clust_5="111.35318" pt_clust_6="31.78956"></scales>
<clustering>
<clus scale="   31.790">  1  6  2 -1</clus>
<clus scale="   57.400">  2  3  1 -1</clus>
<clus scale="  111.353">  2  5  1 -1</clus>
<clus scale="   31.790">  1  3  2 -1</clus>
</clustering>
</event>
<event>
 6    0  0.8777103E+002  0.9550160E+02  0.7546771E-02  0.1290050E+00
         21   -1    0    0  505  501  0.00000000000E+00  0.00000000000E+00  0.52409892178E+03  0.52409892178E+03  0.00000000000E+00 0.  1.
         21   -1    0    0  504  502 -0.00000000000E+00 -0.00000000000E+00 -0.10106088862E+03  0.10106088862E+03  0.00000000000E+00 0.  1.
         21    1    1    2  503  506  0.87432401025E+02  0.22348517055E+02  0.11948170733E+03  0.14973229227E+03  0.00000000000E+00 0.  1.
         21    1    1    2  504  503  0.59315166491E+02  0.65147163957E+02 -0.22709926260E+02  0.90984519003E+02  0.00000000000E+00 0.  1.
         21    1    1    2  505  502 -0.12444186922E+03 -0.65558400817E+02  0.15081897123E+03  0.20622813779E+03  0.00000000000E+00 0.  1.
         21    1    1    2  506  501 -0.22305698296E+02 -0.21937280194E+02  0.17544728087E+03  0.17821486134E+03  0.00000000000E+00 0.  1.
<scales pt_clust_3="79.99360" pt_clust_4="95.50160" pt_clust_5="14000.00000" pt_clust_6="31.28559"></scales>
<clustering>
<clus scale="   31.286">  1  6  2 -1</clus>
<clus scale="   79.994">  1  3  2 -1</clus>
<clus scale="   95.502">  2  4  1 -1</clus>
<clus scale="   31.286">  1  3  2 -1</clus>
</clustering>
</event>
<event>
 6    0  0.8777103E+002  0.1082919E+03  0.7546771E-02  0.1263766E+00
         21   -1    0    0  506  501  0.00000000000E+00  0.00000000000E+00  0.98556413139E+02  0.98556413139E+02  0.00000000000E+00 0. -1.
         21   -1    0    0  504  502 -0.00000000000E+00 -0.00000000000E+00 -0.69988941982E+03  0.69988941982E+03  0.00000000000E+00 0. -1.
         21    1    1    2  503  501 -0.22437678689E+02  0.24596449303E+02 -0.21306147147E+02  0.39527036943E+02  0.00000000000E+00 0. -1.
         21    1    1    2  504  503 -0.36901242398E+02 -0.35623943264E+02 -0.16650742620E+02  0.53926007213E+02  0.00000000000E+00 0. -1.
         21    1    1    2  505  502  0.11255117911E+03  0.12163436373E+01 -0.61796426921E+03  0.62813142369E+03  0.00000000000E+00 0. -1.
         21    1    1    2  506  505 -0.53212258025E+02  0.98111503233E+01  0.54588152299E+02  0.76861365107E+02  0.00000000000E+00 0. -1.
<scales pt_clust_3="33.29316" pt_clust_4="51.56343" pt_clust_5="108.29186" pt_clust_6="14000.00000"></scales>
<clustering>
<clus scale="   33.293">  1  3  2 -1</clus>
<clus scale="   51.563">  1  4  2 -1</clus>
<clus scale="  108.292">  2  5  1 -1</clus>
<clus scale="   33.293">  1  3  2 -1</clus>
</clustering>
</event>
<event>
 6    0  0.8777103E+002  0.7287862E+02  0.7546771E-02  0.1350569E+00
         21   -1    0    0  503  501  0.00000000000E+00  0.00000000000E+00  0.12917336601E+04  0.12917336601E+04  0.00000000000E+00 0. -1.
         21   -1    0    0  505  502 -0.00000000000E+00 -0.00000000000E+00 -0.29320056330E+02  0.29320056330E+02  0.00000000000E+00 0. -1.
         21    1    1    2  503  506 -0.43363358653E+00 -0.34353064627E+02  0.15080747283E+03  0.15467131262E+03  0.00000000000E+00 0.  1.
         21    1    1    2  504  501 -0.23589198731E+02  0.76677418661E+02  0.83078760708E+03  0.83465197831E+03  0.00000000000E+00 0. -1.
         21    1    1    2  505  504 -0.29942616981E+02 -0.73795537920E+02  0.53393484222E+02  0.95881207157E+02  0.00000000000E+00 0. -1.
         21    1    1    2  506  502  0.53965449298E+02  0.31471183886E+02  0.22742503960E+03  0.23584921829E+03  0.00000000000E+00 0. -1.
<scales pt_clust_3="34.35580" pt_clust_4="56.83426" pt_clust_5="72.87862" pt_clust_6="14000.00000"></scales>
<clustering>
<clus scale="   34.356">  1  3  2 -1</clus>
<clus scale="   56.834">  1  4  2 -1</clus>
<clus scale="   72.879">  2  5  1 -1</clus>
<clus scale="   34.356">  1  3  2 -1</clus>
</clustering>
</event>
<event>
 6    0  0.8777103E+002  0.1005287E+03  0.7546771E-02  0.1279188E+00
         21   -1    0    0  505  501  0.00000000000E+00  0.00000000000E+00  0.57112285424E+02  0.57112285424E+02  0.00000000000E+00 0.  1.
         21   -1    0    0  506  502 -0.00000000000E+00 -0.00000000000E+00 -0.65789959619E+03  0.65789959619E+03  0.00000000000E+00 0. -1.
         21    1    1    2  503  502 -0.46021397861E+02  0.13316534361E+02 -0.34064392190E+03  0.34399648352E+03  0.00000000000E+00 0.  1.
         21    1    1    2  504  503 -0.42506705044E+02  0.88534549631E+01 -0.13830038392E+03  0.14495585476E+03  0.00000000000E+00 0. -1.
         21    1    1    2  505  504 -0.21599216095E+02 -0.48822208207E+02  0.77184793391E+01  0.53941719229E+02  0.00000000000E+00 0.  1.
         21    1    1    2  506  501  0.11012731900E+03  0.26652218882E+02 -0.12956148429E+03  0.17211782410E+03  0.00000000000E+00 0. -1.
<scales pt_clust_3="35.08172" pt_clust_4="35.08172" pt_clust_5="53.38665" pt_clust_6="93.53082"></scales>
<clustering>
<clus scale="   35.082">  3  4 -1 -1</clus>
<clus scale="   53.387">  1  5  2 -1</clus>
<clus scale="   93.531">  1  6  2 -1</clus>
<clus scale="   53.387">  1  3  2 -1</clus>
</clustering>
</event>
<event>
 6    0  0.8777103E+002  0.2091069E+03  0.7546771E-02  0.1142275E+00
         21   -1    0    0  504  501  0.00000000000E+00  0.00000000000E+00  0.22595997136E+03  0.22595997136E+03  0.00000000000E+00 0.  1.
         21   -1    0    0  505  502 -0.00000000000E+00 -0.00000000000E+00 -0.47312531177E+03  0.47312531177E+03  0.00000000000E+00 0.  1.
         21    1    1    2  503  502  0.48837542091E+02  0.23576310323E+02 -0.10319300853E+03  0.11657506138E+03  0.00000000000E+00 0.  1.
         21    1    1    2  504  506  0.90673684788E+02  0.55182063933E+02  0.21432254706E+02  0.10828720531E+03  0.00000000000E+00 0. -1.
         21    1    1    2  505  501 -0.21418972045E+03 -0.11026918589E+03 -0.25676730701E+03  0.35208802827E+03  0.00000000000E+00 0.  1.
         21    1    1    2  506  503  0.74678493576E+02  0.31510811630E+02  0.91362720414E+02  0.12213498816E+03  0.00000000000E+00 0.  1.
<scales pt_clust_3="54.23051" pt_clust_4="63.89110" pt_clust_5="195.47633" pt_clust_6="63.89110"></scales>
<clustering>
<clus scale="   54.231">  2  3  1 -1</clus>
<clus scale="   63.891">  4  6 -1 -1</clus>
<clus scale="  195.476">  2  5  1 -1</clus>
<clus scale="  209.107">  1  3  2 -1</clus>
</clustering>
</event>
<event>
 6    0  0.8777103E+002  0.1262423E+03  0.7546771E-02  0.1233140E+00
         21   -1    0    0  505  501  0.00000000000E+00  0.00000000000E+00  0.39502630979E+03  0.39502630979E+03  0.00000000000E+00 0.  1.
         21   -1    0    0  503  502 -0.00000000000E+00 -0.00000000000E+00 -0.30104809660E+03  0.30104809660E+03  0.00000000000E+00 0. -1.
         21    1    1    2  503  506 -0.59754897624E+02  0.37339595893E+02 -0.21962271621E+03  0.23064915063E+03  0.00000000000E+00 0. -1.
         21    1    1    2  504  502  0.20904723397E+00  0.55703596623E+02  0.86078656508E+02  0.10253033446E+03  0.00000000000E+00 0. -1.
         21    1    1    2  505  504 -0.88317697215E+01  0.56686396634E+02  0.18385392749E+03  0.19259702587E+03  0.00000000000E+00 0.  1.
         21    1    1    2  506  501  0.68377620112E+02 -0.14972958915E+03  0.43668345394E+02  0.17029789543E+03  0.00000000000E+00 0. -1.
<scales pt_clust_3="70.46200" pt_clust_4="38.55177" pt_clust_5="38.55177" pt_clust_6="120.02675"></scales>
<clustering>
<clus scale="   38.552">  4  5 -1 -1</clus>
<clus scale="   70.462">  2  3  1 -1</clus>
<clus scale="  120.027">  2  6  1 -1</clus>
<clus scale="  126.242">  1  3  2 -1</clus>
</clustering>
</event>
<event>
 6    0  0.8777103E+002  0.6979828E+02  0.7546771E-02  0.1360780E+00
         21   -1    0    0  505  501  0.00000000000E+00  0.00000000000E+00  0.40575047040E+03  0.40575047040E+03  0.00000000000E+00 0.  1.
         21   -1    0    0  506  502 -0.00000000000E+00 -0.00000000000E+00 -0.12422983174E+04  0.12422983174E+04  0.00000000000E+00 0. -1.
         21    1    1    2  503  504 -0.81097547966E+02  0.85634233850E+01  0.31568339344E+03  0.32604623813E+03  0.00000000000E+00 0.  1.
         21    1    1    2  504  502  0.69411273809E+02 -0.69754781432E+01 -0.11906253102E+04  0.11926672678E+04  0.00000000000E+00 0. -1.
         21    1    1    2  505  503  0.55054225990E+02 -0.20234016889E+02  0.53887995363E+02  0.79651109742E+02  0.00000000000E+00 0. -1.
         21    1    1    2  506  501 -0.43367951833E+02  0.18646071647E+02 -0.15493925563E+02  0.49684172162E+02  0.00000000000E+00 0. -1.
<scales pt_clust_3="14000.00000" pt_clust_4="69.79828" pt_clust_5="50.55852" pt_clust_6="47.20652"></scales>
<clustering>
<clus scale="   47.207">  1  6  2 -1</clus>
<clus scale="   50.559">  1  5  2 -1</clus>
<clus scale="   69.798">  2  4  1 -1</clus>
<clus scale="   47.207">  1  3  2 -1</clus>
</clustering>
</event>
<event>
 6    0  0.8777103E+002  0.9698417E+02  0.7546771E-02  0.1286769E+00
         21   -1    0    0  504  501  0.00000000000E+00  0.00000000000E+00  0.86145989089E+03  0.86145989089E+03  0.00000000000E+00 0.  1.
         21   -1    0    0  503  502 -0.00000000000E+00 -0.00000000000E+00 -0.21699383886E+03  0.21699383886E+03  0.00000000000E+00 0.  1.
         21    1    1    2  503  505  0.76128927171E+02 -0.11634217151E+03 -0.16301170920E+03  0.21425202861E+03  0.00000000000E+00 0.  1.
         21    1    1    2  504  506  0.34052175122E+01  0.11169029174E+03  0.56916137986E+03  0.58002671758E+03  0.00000000000E+00 0.  1.
         21    1    1    2  505  501 -0.29503195495E+02 -0.20653895908E+02  0.22322662264E+03  0.22611312880E+03  0.00000000000E+00 0.  1.
         21    1    1    2  506  502 -0.50030949189E+02  0.25305775685E+02  0.15089758734E+02  0.58061854762E+02  0.00000000000E+00 0.  1.
<scales pt_clust_3="96.98417" pt_clust_4="14000.00000" pt_clust_5="36.01419" pt_clust_6="57.07259"></scales>
<clustering>
<clus scale="   36.014">  1  5  2 -1</clus>
<clus scale="   57.073">  2  6  1 -1</clus>
<clus scale="   96.984">  2  3  1 -1</clus>
<clus scale="   36.014">  1  3  2 -1</clus>
</clustering>
</event>
<event>
 6    0  0.8777103E+002  0.5603161E+02  0.7546771E-02  0.1415282E+00
         21   -1    0    0  505  501  0.00000000000E+00  0.00000000000E+00  0.29699723510E+03  0.29699723510E+03  0.00000000000E+00 0. -1.
         21   -1    0    0  504  502 -0.00000000000E+00 -0.00000000000E+00 -0.43402090328E+03  0.43402090328E+03  0.00000000000E+00 0.  1.
         21    1    1    2  503  502  0.46935265546E+02 -0.63314163367E+02 -0.38651396379E+02  0.87781164705E+02  0.00000000000E+00 0.  1.
         21    1    1    2  504  506 -0.29876546881E+02  0.44775252810E+02 -0.30131348140E+03  0.30608372285E+03  0.00000000000E+00 0.  1.
         21    1    1    2  505  503 -0.20497174977E+02  0.71303983402E+02 -0.42891854987E+02  0.85697744750E+02  0.00000000000E+00 0.  1.
         21    1    1    2  506  501  0.34384563118E+01 -0.52765072845E+02  0.24583306458E+03  0.25145550608E+03  0.00000000000E+00 0. -1.
<scales pt_clust_3="14000.00000" pt_clust_4="56.03161" pt_clust_5="51.56620" pt_clust_6="52.87699"></scales>
<clustering>
<clus scale="   52.877">  1  6  2 -1</clus>
<clus scale="   51.566">  1  5  2 -1</clus>
<clus scale="   56.032">  2  4  1 -1</clus>
<clus scale="   52.877">  1  3  2 -1</clus>
</clustering>
</event>
<event>
 6    0  0.8777103E+002  0.8459339E+02  0.7546771E-02  0.1316499E+00
         21   -1    0    0  504  501  0.00000000000E+00  0.00000000000E+00  0.41767790143E+03  0.41767790143E+03  0.00000000000E+00 0. -1.
         21   -1    0    0  506  502 -0.00000000000E+00 -0.00000000000E+00 -0.78023591274E+03  0.78023591274E+03  0.00000000000E+00 0.  1.
         21    1    1    2  503  501  0.33175943390E+02 -0.25039112022E+02  0.36080817608E+03  0.36319435607E+03  0.00000000000E+00 0. -1.
         21    1    1    2  504  502 -0.88100295987E+02 -0.13351405176E+01 -0.48928459150E+03  0.49715476085E+03  0.00000000000E+00 0.  1.
         21    1    1    2  505  503 -0.19391362976E+02  0.71158545834E+02  0.13713784668E+02  0.75017541237E+02  0.00000000000E+00 0.  1.
         21    1    1    2  506  505  0.74315715574E+02 -0.44784293295E+02 -0.24779538057E+03  0.26254715602E+03  0.00000000000E+00 0.  1.
<scales pt_clust_3="41.56441" pt_clust_4="14000.00000" pt_clust_5="51.68857" pt_clust_6="84.59339"></scales>
<clustering>
<clus scale="   41.564">  1  3  2 -1</clus>
<clus scale="   51.689">  1  5  2 -1</clus>
<clus scale="   84.593">  1  6  2 -1</clus>
<clus scale="   41.564">  1  3  2 -1</clus>
</clustering>
</event>
<event>
 6    0  0.8777103E+002  0.9667464E+02  0.7546771E-02  0.1287448E+00
         21   -1    0    0  504  501  0.00000000000E+00  0.00000000000E+00  0.75222749966E+03  0.75222749966E+03  0.00000000000E+00 0.  1.
         21   -1    0    0  505  502 -0.00000000000E+00 -0.00000000000E+00 -0.27866876575E+03  0.27866876575E+03  0.00000000000E+00 0.  1.
         21    1    1    2  503  501  0.43549506340E+02  0.17323794164E+02  0.75491166565E+02  0.88857130136E+02  0.00000000000E+00 0. -1.
         21    1    1    2  504  502 -0.13096918484E+03 -0.32090830798E+02  0.60298726170E+03  0.61788056012E+03  0.00000000000E+00 0.  1.
         21    1    1    2  505  506 -0.34830090046E+02  0.26839440791E+02 -0.19613158566E+03  0.20100022300E+03  0.00000000000E+00 0.  1.
         21    1    1    2  506  503  0.12224976854E+03 -0.12072404158E+02 -0.87881086952E+01  0.12315835215E+03  0.00000000000E+00 0.  1.
<scales pt_clust_3="45.10672" pt_clust_4="14000.00000" pt_clust_5="43.97148" pt_clust_6="96.67464"></scales>
<clustering>
<clus scale="   43.971">  2  5  1 -1</clus>
<clus scale="   45.107">  1  3  2 -1</clus>
<clus scale="   96.675">  2  6  1 -1</clus>
<clus scale="   45.107">  1  3  2 -1</clus>
</clustering>
</event>
<event>
 6    0  0.8777103E+002  0.1639875E+03  0.7546771E-02  0.1184267E+00
         21   -1    0    0  504  501  0.00000000000E+00  0.00000000000E+00  0.96228272396E+03  0.96228272396E+03  0.00000000000E+00 0. -1.
         21   -1    0    0  506  502 -0.00000000000E+00 -0.00000000000E+00 -0.16615185901E+03  0.16615185901E+03  0.00000000000E+00 0. -1.
         21    1    1    2  503  501 -0.19444953502E+02  0.29497903194E+02  0.28175543194E+03  0.28396189170E+03  0.00000000000E+00 0. -1.
         21    1    1    2  504  505 -0.39552419923E+02 -0.73949466141E+01  0.29359269917E+03  0.29633722709E+03  0.00000000000E+00 0. -1.
         21    1    1    2  505  502 -0.97761047642E+02 -0.28538082969E+02  0.33753896583E+03  0.35256800489E+03  0.00000000000E+00 0. -1.
         21    1    1    2  506  503  0.15675842107E+03  0.64351263893E+01 -0.11675623199E+03  0.19556745929E+03  0.00000000000E+00 0. -1.
<scales pt_clust_3="35.33033" pt_clust_4="32.07967" pt_clust_5="32.07967" pt_clust_6="155.84368"></scales>
<clustering>
<clus scale="   32.080">  4  5 -1 -1</clus>
<clus scale="   35.330">  1  3  2 -1</clus>
<clus scale="  155.844">  2  6  1 -1</clus>
<clus scale="   35.330">  1  3  2 -1</clus>
</clustering>
</event>
<event>
 6    0  0.8777103E+002  0.8845164E+02  0.7546771E-02  0.1306645E+00
         21   -1    0    0  504  501  0.00000000000E+00  0.00000000000E+00  0.69293224996E+03  0.69293224996E+03  0.00000000000E+00 0. -1.
         21   -1    0    0  506  502 -0.00000000000E+00 -0.00000000000E+00 -0.12690275528E+04  0.12690275528E+04  0.00000000000E+00 0.  1.
         21    1    1    2  503  501  0.77037437467E+02 -0.85720367502E+02 -0.56405518203E+02  0.12831340795E+03  0.00000000000E+00 0. -1.
         21    1    1    2  504  505  0.11943586817E+02 -0.56217751805E+02  0.62115138225E+03  0.62380455637E+03  0.00000000000E+00 0. -1.
         21    1    1    2  505  502 -0.26316519468E+02  0.81301772058E+02 -0.22852499583E+02  0.88457753046E+02  0.00000000000E+00 0. -1.
         21    1    1    2  506  503 -0.62664504816E+02  0.60636347250E+02 -0.11179886673E+04  0.11213840854E+04  0.00000000000E+00 0.  1.
<scales pt_clust_3="88.45164" pt_clust_4="57.47247" pt_clust_5="58.90536" pt_clust_6="14000.00000"></scales>
<clustering>
<clus scale="   57.472">  1  4  2 -1</clus>
<clus scale="   58.905">  1  5  2 -1</clus>
<clus scale="   88.452">  1  3  2 -1</clus>
<clus scale="   57.472">  1  3  2 -1</clus>
</clustering>
</event>
<event>
 6    0  0.8777103E+002  0.1405566E+03  0.7546771E-02  0.1212582E+00
         21   -1    0    0  505  501  0.00000000000E+00  0.00000000000E+00  0.52063195581E+03  0.52063195581E+03  0.00000000000E+00 0. -1.
         21   -1    0    0  506  502 -0.00000000000E+00 -0.00000000000E+00 -0.34576862689E+03  0.34576862689E+03  0.00000000000E+00 0. -1.
         21    1    1    2  503  502  0.12703084649E+03  0.31305729319E+02 -0.36866026452E+02  0.13592640860E+03  0.00000000000E+00 0. -1.
         21    1    1    2  504  503 -0.12280126967E+03 -0.23357551925E+02  0.11544532615E+03  0.17015684058E+03  0.00000000000E+00 0. -1.
         21    1    1    2  505  504 -0.83093990709E+01 -0.10272433329E+03  0.30989853411E+03  0.32658603186E+03  0.00000000000E+00 0. -1.
         21    1    1    2  506  501  0.40798222479E+01  0.94776155894E+02 -0.21361450490E+03  0.23373130166E+03  0.00000000000E+00 0. -1.
<scales pt_clust_3="14000.00000" pt_clust_4="140.55664" pt_clust_5="96.58199" pt_clust_6="94.86393"></scales>
<clustering>
<clus scale="   94.864">  2  6  1 -1</clus>
<clus scale="   96.582">  1  5  2 -1</clus>
<clus scale="  140.557">  1  4  2 -1</clus>
<clus scale="   96.582">  1  3  2 -1</clus>
</clustering>
</event>
<event>
 6    0  0.8777103E+002  0.2682932E+03  0.7546771E-02  0.1102260E+00
         21   -1    0    0  504  501  0.00000000000E+00  0.00000000000E+00  0.24933086201E+03  0.24933086201E+03  0.00000000000E+00 0. -1.
         21   -1    0    0  506  502 -0.00000000000E+00 -0.00000000000E+00 -0.10470220273E+04  0.10470220273E+04  0.00000000000E+00 0.  1.
         21    1    1    2  503  502  0.25118058343E+03  0.55342256198E+02 -0.76790866089E+03  0.80983835565E+03  0.00000000000E+00 0.  1.
         21    1    1    2  504  503  0.61263683276E+02 -0.35961549695E+01  0.24163759331E+01  0.61416692289E+02  0.00000000000E+00 0. -1.
         21    1    1    2  505  501  0.11061606771E+02  0.32429384212E+02  0.67984066442E+02  0.76130528664E+02  0.00000000000E+00 0. -1.
         21    1    1    2  506  505 -0.32350587348E+03 -0.84175485441E+02 -0.10018294680E+03  0.34896731273E+03  0.00000000000E+00 0. -1.
<scales pt_clust_3="268.29317" pt_clust_4="63.29496" pt_clust_5="34.26404" pt_clust_6="14000.00000"></scales>
<clustering>
<clus scale="   34.264">  1  5  2 -1</clus>
<clus scale="   63.295">  1  4  2 -1</clus>
<clus scale="  268.293">  2  3  1 -1</clus>
<clus scale="   34.264">  1  3  2 -1</clus>
</clustering>
</event>
<event>
 6    0  0.8777103E+002  0.1814327E+03  0.7546771E-02  0.1166424E+00
         21   -1    0    0  504  501  0.00000000000E+00  0.00000000000E+00  0.24030205915E+04  0.24030205915E+04  0.00000000000E+00 0. -1.
         21   -1    0    0  503  502 -0.00000000000E+00 -0.00000000000E+00 -0.10185535684E+03  0.10185535684E+03  0.00000000000E+00 0. -1.
         21    1    1    2  503  506  0.24404328049E+02 -0.23047751232E+02  0.69633011035E+02  0.77301528382E+02  0.00000000000E+00 0.  1.
         21    1    1    2  504  505 -0.72711482510E+02 -0.11675966230E+03  0.49814369972E+03  0.51678518168E+03  0.00000000000E+00 0. -1.
         21    1    1    2  505  502  0.13056865951E+03  0.14679975021E+03  0.22318002998E+02  0.19772818405E+03  0.00000000000E+00 0. -1.
         21    1    1    2  506  501 -0.82261505049E+02 -0.69923366764E+01  0.17110705209E+04  0.17130610542E+04  0.00000000000E+00 0. -1.
<scales pt_clust_3="33.56740" pt_clust_4="181.43266" pt_clust_5="14000.00000" pt_clust_6="82.33146"></scales>
<clustering>
<clus scale="   33.567">  2  3  1 -1</clus>
<clus scale="   82.331">  1  6  2 -1</clus>
<clus scale="  181.433">  1  4  2 -1</clus>
<clus scale="   82.331">  1  3  2 -1</clus>
</clustering>
</event>
<event>
 6    0  0.8777103E+002  0.6575809E+02  0.7546771E-02  0.1375142E+00
         21   -1    0    0  504  501  0.00000000000E+00  0.00000000000E+00  0.19718407631E+04  0.19718407631E+04  0.00000000000E+00 0. -1.
         21   -1    0    0  506  502 -0.00000000000E+00 -0.00000000000E+00 -0.14277289103E+02  0.14277289103E+02  0.00000000000E+00 0. -1.
         21    1    1    2  503  502  0.26186164197E+02 -0.95705671027E+02  0.31965972462E+03  0.33470528859E+03  0.00000000000E+00 0. -1.
         21    1    1    2  504  503  0.41645359344E+02  0.64177711228E+02  0.11363717094E+04  0.11389441498E+04  0.00000000000E+00 0. -1.
         21    1    1    2  505  501 -0.29969528517E+02 -0.91306782500E+01  0.34405663262E+03  0.34548011285E+03  0.00000000000E+00 0. -1.
         21    1    1    2  506  505 -0.37861995023E+02  0.40658638049E+02  0.15747540742E+03  0.16698850097E+03  0.00000000000E+00 0. -1.
<scales pt_clust_3="14000.00000" pt_clust_4="65.75809" pt_clust_5="31.32957" pt_clust_6="56.99702"></scales>
<clustering>
<clus scale="   31.330">  1  5  2 -1</clus>
<clus scale="   56.997">  2  6  1 -1</clus>
<clus scale="   65.758">  1  4  2 -1</clus>
<clus scale="   31.330">  1  3  2 -1</clus>
</clustering>
</event>
<event>
 6    0  0.8777103E+002  0.1057744E+03  0.7546771E-02  0.1268601E+00
         21   -1    0    0  505  501  0.00000000000E+00  0.00000000000E+00  0.29937438455E+03  0.29937438455E+03  0.00000000000E+00 0.  1.
         21   -1    0    0  504  502 -0.00000000000E+00 -0.00000000000E+00 -0.42626266078E+03  0.42626266078E+03  0.00000000000E+00 0.  1.
         21    1    1    2  503  506 -0.56062716241E+02 -0.65058128603E+02 -0.11694434070E+03  0.14509158167E+03  0.00000000000E+00 0.  1.
         21    1    1    2  504  501 -0.61018676433E+02  0.12630054340E+01  0.10689174832E+02  0.61960733654E+02  0.00000000000E+00 0.  1.
         21    1    1    2  505  503  0.81345351463E+02  0.70470861664E+02  0.23600374164E+03  0.25938576409E+03  0.00000000000E+00 0.  1.
         21    1    1    2  506  502  0.35736041210E+02 -0.66757384946E+01 -0.25663685199E+03  0.25919896591E+03  0.00000000000E+00 0.  1.
<scales pt_clust_3="14000.00000" pt_clust_4="55.57729" pt_clust_5="105.77444" pt_clust_6="36.35423"></scales>
<clustering>
<clus scale="   36.354">  2  6  1 -1</clus>
<clus scale="   55.577">  2  4  1 -1</clus>
<clus scale="  105.774">  1  5  2 -1</clus>
<clus scale="  105.774">  1  3  2 -1</clus>
</clustering>
</event>
<event>
 6    0  0.8777103E+002  0.8320857E+02  0.7546771E-02  0.1320185E+00
         21   -1    0    0  505  501  0.00000000000E+00  0.00000000000E+00  0.81173290095E+03  0.81173290095E+03  0.00000000000E+00 0.  1.
         21   -1    0    0  503  502 -0.00000000000E+00 -0.00000000000E+00 -0.89794474384E+02  0.89794474384E+02  0.00000000000E+00 0.  1.
         21    1    1    2  503  504  0.43102585023E+01 -0.79288267305E+02 -0.45129652970E+02  0.91333965411E+02  0.00000000000E+00 0.  1.
         21    1    1    2  504  506  0.45954446952E+02  0.13130082650E+03  0.26647116203E+03  0.30059706989E+03  0.00000000000E+00 0.  1.
         21    1    1    2  505  502 -0.31849545062E+02 -0.15950832724E+02  0.86823099821E+02  0.93846008161E+02  0.00000000000E+00 0.  1.
         21    1    1    2  506  501 -0.18415160392E+02 -0.36061726470E+02  0.41377381768E+03  0.41575033187E+03  0.00000000000E+00 0.  1.
<scales pt_clust_3="83.20857" pt_clust_4="14000.00000" pt_clust_5="35.62054" pt_clust_6="58.26525"></scales>
<clustering>
<clus scale="   35.621">  1  5  2 -1</clus>
<clus scale="   58.265">  1  6  2 -1</clus>
<clus scale="   83.209">  2  3  1 -1</clus>
<clus scale="   35.621">  1  3  2 -1</clus>
</clustering>
</event>
<event>
 6    0  0.8777103E+002  0.2482484E+03  0.7546771E-02  0.1114417E+00
         21   -1    0    0  504  501  0.00000000000E+00  0.00000000000E+00  0.91648768859E+03  0.91648768859E+03  0.00000000000E+00 0.  1.
         21   -1    0    0  503  502 -0.00000000000E+00 -0.00000000000E+00 -0.20134516665E+03  0.20134516665E+03  0.00000000000E+00 0. -1.
         21    1    1    2  503  506  0.12539443347E+02  0.45855655293E+02  0.87944712121E+02  0.99971251627E+02  0.00000000000E+00 0.  1.
         21    1    1    2  504  505 -0.10674677018E+03 -0.11689505174E+03  0.13819424696E+03  0.21013561326E+03  0.00000000000E+00 0. -1.
         21    1    1    2  505  502  0.20898322419E+03 -0.11295060981E+03 -0.35471474724E+02  0.24018753875E+03  0.00000000000E+00 0. -1.
         21    1    1    2  506  501 -0.11477589736E+03  0.18399000625E+03  0.52447503758E+03  0.56753845162E+03  0.00000000000E+00 0.  1.
<scales pt_clust_3="39.81155" pt_clust_4="158.30138" pt_clust_5="233.23241" pt_clust_6="39.81155"></scales>
<clustering>
<clus scale="   39.812">  3  6 -1 -1</clus>
<clus scale="  158.301">  1  4  2 -1</clus>
<clus scale="  233.232">  2  5  1 -1</clus>
<clus scale="  158.301">  1  3  2 -1</clus>
</clustering>
</event>
<event>
 6    0  0.8777103E+002  0.9805600E+02  0.7546771E-02  0.1284438E+00
         21   -1    0    0  505  501  0.00000000000E+00  0.00000000000E+00  0.18039679728E+03  0.18039679728E+03  0.00000000000E+00 0. -1.
         21   -1    0    0  501  502 -0.00000000000E+00 -0.00000000000E+00 -0.64563829281E+03  0.64563829281E+03  0.00000000000E+00 0.  1.
         21    1    1    2  503  502 -0.53094456485E+02  0.26090552211E+02 -0.32111821221E+03  0.32652204280E+03  0.00000000000E+00 0.  1.
         21    1    1    2  504  503 -0.50202462976E+02 -0.43157441776E+02 -0.20132533083E+03  0.21193098146E+03  0.00000000000E+00 0.  1.
         21    1    1    2  505  506 -0.22721155035E+02 -0.47786174074E+02  0.12107118038E+03  0.13212872525E+03  0.00000000000E+00 0. -1.
         21    1    1    2  506  504  0.12601807450E+03  0.64853063640E+02 -0.63869132868E+02  0.15545334058E+03  0.00000000000E+00 0.  1.
<scales pt_clust_3="59.18397" pt_clust_4="98.05600" pt_clust_5="52.91285" pt_clust_6="14000.00000"></scales>
<clustering>
<clus scale="   52.913">  1  5  2 -1</clus>
<clus scale="   59.184">  2  3  1 -1</clus>
<clus scale="   98.056">  2  4  1 -1</clus>
<clus scale="   52.913">  1  3  2 -1</clus>
</clustering>
</event>
<event>
 6    0  0.8777103E+002  0.1164421E+03  0.7546771E-02  0.1249085E+00
         21   -1    0    0  506  501  0.00000000000E+00  0.00000000000E+00  0.20104884530E+04  0.20104884530E+04  0.00000000000E+00 0.  1.
         21   -1    0    0  503  502 -0.00000000000E+00 -0.00000000000E+00 -0.22525796495E+03  0.22525796495E+03  0.00000000000E+00 0. -1.
         21    1    1    2  503  504  0.38648526288E+02 -0.14909361939E+03 -0.13954534821E+03  0.20783531974E+03  0.00000000000E+00 0. -1.
         21    1    1    2  504  501 -0.98947467510E+01  0.50138299762E+02  0.17819999233E+04  0.17827325884E+04  0.00000000000E+00 0.  1.
         21    1    1    2  505  502 -0.41251643767E+02  0.70398911624E+02 -0.16189793255E+02  0.83185421060E+02  0.00000000000E+00 0. -1.
         21    1    1    2  506  505  0.12497864229E+02  0.28556408001E+02  0.15896570625E+03  0.16199308878E+03  0.00000000000E+00 0. -1.
<scales pt_clust_3="14000.00000" pt_clust_4="77.68024" pt_clust_5="116.44209" pt_clust_6="31.17154"></scales>
<clustering>
<clus scale="   31.172">  1  6  2 -1</clus>
<clus scale="   77.680">  1  4  2 -1</clus>
<clus scale="  116.442">  2  5  1 -1</clus>
<clus scale="   31.172">  1  3  2 -1</clus>
</clustering>
</event>
<event>
 6    0  0.8777103E+002  0.1111624E+03  0.7546771E-02  0.1258432E+00
         21   -1    0    0  503  501  0.00000000000E+00  0.00000000000E+00  0.19093745103E+04  0.19093745103E+04  0.00000000000E+00 0. -1.
         21   -1    0    0  505  502 -0.00000000000E+00 -0.00000000000E+00 -0.66902859294E+02  0.66902859294E+02  0.00000000000E+00 0. -1.
         21    1    1    2  503  502  0.44579368414E+02 -0.53992439500E+02  0.15023261244E+03  0.16574782488E+03  0.00000000000E+00 0.  1.
         21    1    1    2  504  501  0.62707057188E+02  0.16634501935E+02  0.12927046020E+04  0.12943315146E+04  0.00000000000E+00 0. -1.
         21    1    1    2  505  506 -0.14551355986E+03  0.33945168800E+02  0.40082757701E+02  0.15470325805E+03  0.00000000000E+00 0. -1.
         21    1    1    2  506  504  0.38227134255E+02  0.34127687650E+01  0.35945167882E+03  0.36149477201E+03  0.00000000000E+00 0.  1.
<scales pt_clust_3="70.01788" pt_clust_4="30.28807" pt_clust_5="103.95365" pt_clust_6="30.28807"></scales>
<clustering>
<clus scale="   30.288">  4  6 -1 -1</clus>
<clus scale="   70.018">  2  3  1 -1</clus>
<clus scale="  103.954">  2  5  1 -1</clus>
<clus scale="  111.162">  1  3  2 -1</clus>
</clustering>
</event>
<event>
 6    0  0.8777103E+002  0.1563695E+03  0.7546771E-02  0.1192858E+00
         21   -1    0    0  506  501  0.00000000000E+00  0.00000000000E+00  0.11863446983E+03  0.11863446983E+03  0.00000000000E+00 0.  1.
         21   -1    0    0  503  502 -0.00000000000E+00 -0.00000000000E+00 -0.24168748394E+04  0.24168748394E+04  0.00000000000E+00 0. -1.
         21    1    1    2  503  501  0.96700433197E+02  0.14658734339E+02 -0.20734982471E+04  0.20758036596E+04  0.00000000000E+00 0. -1.
         21    1    1    2  504  505 -0.11650790361E+03  0.28466451587E+02  0.25943679256E+02  0.12270902559E+03  0.00000000000E+00 0.  1.
         21    1    1    2  505  502  0.65304664197E+02  0.62319657218E+01 -0.26096711565E+03  0.26908617952E+03  0.00000000000E+00 0.  1.
         21    1    1    2  506  504 -0.45497193786E+02 -0.49357151648E+02  0.10281313937E+02  0.67910444539E+02  0.00000000000E+00 0.  1.
<scales pt_clust_3="156.36946" pt_clust_4="14000.00000" pt_clust_5="65.60135" pt_clust_6="66.47620"></scales>
<clustering>
<clus scale="   65.601">  2  5  1 -1</clus>
<clus scale="   66.476">  1  6  2 -1</clus>
<clus scale="  156.369">  2  3  1 -1</clus>
<clus scale="   66.476">  1  3  2 -1</clus>
</clustering>
</event>
<event>
 6    0  0.8777103E+002  0.1353614E+03  0.7546771E-02  0.1219710E+00
         21   -1    0    0  503  501  0.00000000000E+00  0.00000000000E+00  0.14403912079E+03  0.14403912079E+03  0.00000000000E+00 0. -1.
         21   -1    0    0  504  502 -0.00000000000E+00 -0.00000000000E+00 -0.15150761932E+04  0.15150761932E+04  0.00000000000E+00 0. -1.
         21    1    1    2  503  506 -0.84779145352E+02 -0.32408527516E+02  0.34089925902E+02  0.96953283546E+02  0.00000000000E+00 0. -1.
         21    1    1    2  504  505  0.11648640602E+03 -0.16006569286E+01 -0.13955631935E+04  0.14004171778E+04  0.00000000000E+00 0. -1.
         21    1    1    2  505  501 -0.15132432053E+02  0.94440262709E+02 -0.21310949616E+02  0.97990358168E+02  0.00000000000E+00 0. -1.
         21    1    1    2  506  502 -0.16574828611E+02 -0.60431078265E+02  0.11747144732E+02  0.63754494532E+02  0.00000000000E+00 0. -1.
<scales pt_clust_3="57.77122" pt_clust_4="116.14033" pt_clust_5="95.64494" pt_clust_6="57.77122"></scales>
<clustering>
<clus scale="   57.771">  3  6 -1 -1</clus>
<clus scale="   95.645">  1  5  2 -1</clus>
<clus scale="  116.140">  2  4  1 -1</clus>
<clus scale="   95.645">  1  3  2 -1</clus>
</clustering>
</event>
<event>
 6    0  0.8777103E+002  0.1027429E+03  0.7546771E-02  0.1274632E+00
         21   -1    0    0  503  501  0.00000000000E+00  0.00000000000E+00  0.69899737068E+03  0.69899737068E+03  0.00000000000E+00 0. -1.
         21   -1    0    0  504  502 -0.00000000000E+00 -0.00000000000E+00 -0.18768292069E+04  0.18768292069E+04  0.00000000000E+00 0. -1.
         21    1    1    2  503  506 -0.50210460367E+02  0.47677451280E+02  0.67579168394E+03  0.67932954431E+03  0.00000000000E+00 0. -1.
         21    1    1    2  504  505  0.14745464820E+02  0.32096340469E+02 -0.89492326142E+03  0.89562003530E+03  0.00000000000E+00 0. -1.
         21    1    1    2  505  501  0.28692194422E+02  0.66477836457E+02 -0.69908167860E+03  0.70282127039E+03  0.00000000000E+00 0. -1.
         21    1    1    2  506  502  0.67728011248E+01 -0.14625162821E+03 -0.25961858010E+03  0.29805572755E+03  0.00000000000E+00 0. -1.
<scales pt_clust_3="69.26096" pt_clust_4="35.32144" pt_clust_5="102.74286" pt_clust_6="14000.00000"></scales>
<clustering>
<clus scale="   35.321">  2  4  1 -1</clus>
<clus scale="   69.261">  1  3  2 -1</clus>
<clus scale="  102.743">  2  5  1 -1</clus>
<clus scale="   69.261">  1  3  2 -1</clus>
</clustering>
</event>
<event>
 6    0  0.8777103E+002  0.8195047E+02  0.7546771E-02  0.1323606E+00
         21   -1    0    0  506  501  0.00000000000E+00  0.00000000000E+00  0.11295750654E+04  0.11295750654E+04  0.00000000000E+00 0. -1.
         21   -1    0    0  505  502 -0.00000000000E+00 -0.00000000000E+00 -0.64020051985E+02  0.64020051985E+02  0.00000000000E+00 0. -1.
         21    1    1    2  503  501 -0.42077418607E+02  0.54495895497E+01  0.16799541875E+03  0.17327050500E+03  0.00000000000E+00 0. -1.
         21    1    1    2  504  503  0.11631597082E+03  0.83766717716E+01  0.10384450377E+03  0.15615138379E+03  0.00000000000E+00 0. -1.
         21    1    1    2  505  504 -0.55692535044E+02 -0.52491840010E+02  0.76205333250E+01  0.76909844984E+02  0.00000000000E+00 0. -1.
         21    1    1    2  506  502 -0.18546017164E+02  0.38665578689E+02  0.78609455757E+03  0.78726338361E+03  0.00000000000E+00 0. -1.
<scales pt_clust_3="42.42885" pt_clust_4="14000.00000" pt_clust_5="81.95047" pt_clust_6="68.38564"></scales>
<clustering>
<clus scale="   42.429">  1  3  2 -1</clus>
<clus scale="   68.386">  1  6  2 -1</clus>
<clus scale="   81.950">  2  5  1 -1</clus>
<clus scale="   42.429">  1  3  2 -1</clus>
</clustering>
</event>
<event>
 6    0  0.8777103E+002  0.1126419E+03  0.7546771E-02  0.1255754E+00
         21   -1    0    0  505  501  0.00000000000E+00  0.00000000000E+00  0.99978715699E+03  0.99978715699E+03  0.00000000000E+00 0.  1.
         21   -1    0    0  503  502 -0.00000000000E+00 -0.00000000000E+00 -0.58543988589E+03  0.58543988589E+03  0.00000000000E+00 0.  1.
         21    1    1    2  503  504  0.35037070196E+02  0.87319218294E+01 -0.47237343016E+03  0.47375151743E+03  0.00000000000E+00 0.  1.
         21    1    1    2  504  501  0.84011691947E+02  0.54547520156E+02  0.52803026607E+03  0.53744707481E+03  0.00000000000E+00 0.  1.
         21    1    1    2  505  506 -0.14530631798E+03 -0.36781667012E+02  0.45057918471E+03  0.47485620852E+03  0.00000000000E+00 0.  1.
         21    1    1    2  506  502  0.26257555836E+02 -0.26497774973E+02 -0.91888749518E+02  0.99172242109E+02  0.00000000000E+00 0. -1.
<scales pt_clust_3="36.10876" pt_clust_4="112.64187" pt_clust_5="14000.00000" pt_clust_6="59.19938"></scales>
<clustering>
<clus scale="   36.109">  2  3  1 -1</clus>
<clus scale="   59.199">  2  6  1 -1</clus>
<clus scale="  112.642">  1  4  2 -1</clus>
<clus scale="  112.642">  1  3  2 -1</clus>
</clustering>
</event>
<event>
 6    0  0.8777103E+002  0.2887443E+03  0.7546771E-02  0.1091007E+00
         21   -1    0    0  506  501  0.00000000000E+00  0.00000000000E+00  0.19040428412E+03  0.19040428412E+03  0.00000000000E+00 0. -1.
         21   -1    0    0  504  502 -0.00000000000E+00 -0.00000000000E+00 -0.11226141245E+04  0.11226141245E+04  0.00000000000E+00 0. -1.
         21    1    1    2  503  505  0.62126865362E+02  0.22174127876E+03 -0.72509560749E+03  0.76078418892E+03  0.00000000000E+00 0. -1.
         21    1    1    2  504  501  0.24002556653E+02 -0.28303656637E+03  0.19663992327E+02  0.28473231855E+03  0.00000000000E+00 0. -1.
         21    1    1    2  505  502 -0.35988010436E+02  0.43754858646E+02 -0.20028016857E+03  0.20813882500E+03  0.00000000000E+00 0. -1.
         21    1    1    2  506  503 -0.50141411579E+02  0.17540428965E+02 -0.26498056626E+02  0.59363076136E+02  0.00000000000E+00 0.  1.
<scales pt_clust_3="52.77270" pt_clust_4="268.42737" pt_clust_5="52.77270" pt_clust_6="53.12088"></scales>
<clustering>
<clus scale="   52.773">  3  5 -1 -1</clus>
<clus scale="   53.121">  1  6  2 -1</clus>
<clus scale="  268.427">  1  4  2 -1</clus>
<clus scale="   53.121">  1  3  2 -1</clus>
</clustering>
</event>
<event>
 6    0  0.8777103E+002  0.7166047E+02  0.7546771E-02  0.1354536E+00
         21   -1    0    0  503  501  0.00000000000E+00  0.00000000000E+00  0.58968366746E+03  0.58968366746E+03  0.00000000000E+00 0.  1.
         21   -1    0    0  504  502 -0.00000000000E+00 -0.00000000000E+00 -0.32599535408E+03  0.32599535408E+03  0.00000000000E+00 0.  1.
         21    1    1    2  503  505  0.98296067119E+02 -0.20028326168E+02 -0.73995211064E+02  0.12465368795E+03  0.00000000000E+00 0.  1.
         21    1    1    2  504  506 -0.28642866137E+02 -0.35165275415E+02 -0.14424284514E+03  0.15120518758E+03  0.00000000000E+00 0.  1.
         21    1    1    2  505  502 -0.50453629924E+02  0.43679390605E+01 -0.69350295983E+02  0.85872645337E+02  0.00000000000E+00 0.  1.
         21    1    1    2  506  501 -0.19199571058E+02  0.50825662523E+02  0.55127666557E+03  0.55394750067E+03  0.00000000000E+00 0.  1.
<scales pt_clust_3="14000.00000" pt_clust_4="45.35428" pt_clust_5="71.66047" pt_clust_6="54.16132"></scales>
<clustering>
<clus scale="   45.354">  2  4  1 -1</clus>
<clus scale="   54.161">  1  6  2 -1</clus>
<clus scale="   71.660">  2  5  1 -1</clus>
<clus scale="   54.161">  1  3  2 -1</clus>
</clustering>
</event>
<event>
 6    0  0.8777103E+002  0.2761159E+03  0.7546771E-02  0.1097829E+00
         21   -1    0    0  505  501  0.00000000000E+00  0.00000000000E+00  0.74838088124E+03  0.74838088124E+03  0.00000000000E+00 0. -1.
         21   -1    0    0  504  502 -0.00000000000E+00 -0.00000000000E+00 -0.10114637716E+04  0.10114637716E+04  0.00000000000E+00 0.  1.
         21    1    1    2  503  501 -0.85376914049E+02  0.27977512535E+02  0.42632582900E+02  0.99445944034E+02  0.00000000000E+00 0. -1.
         21    1    1    2  504  506  0.53227183237E+01 -0.63107144151E+02 -0.33042413387E+03  0.33643862920E+03  0.00000000000E+00 0.  1.
         21    1    1    2  505  502 -0.32233351062E+02  0.20933256720E+03  0.64029741440E+03  0.67441818740E+03  0.00000000000E+00 0. -1.
         21    1    1    2  506  503  0.11228754679E+03 -0.17420293558E+03 -0.61558875375E+03  0.64954189216E+03  0.00000000000E+00 0.  1.
<scales pt_clust_3="89.84408" pt_clust_4="46.47643" pt_clust_5="263.00383" pt_clust_6="46.47643"></scales>
<clustering>
<clus scale="   46.476">  4  6 -1 -1</clus>
<clus scale="   89.844">  1  3  2 -1</clus>
<clus scale="  263.004">  1  5  2 -1</clus>
<clus scale="   89.844">  1  3  2 -1</clus>
</clustering>
</event>
<event>
 6    0  0.8777103E+002  0.8086437E+02  0.7546771E-02  0.1326616E+00
         21   -1    0    0  505  501  0.00000000000E+00  0.00000000000E+00  0.48663064906E+03  0.48663064906E+03  0.00000000000E+00 0.  1.
         21   -1    0    0  506  502 -0.00000000000E+00 -0.00000000000E+00 -0.23700294798E+03  0.23700294798E+03  0.00000000000E+00 0. -1.
         21    1    1    2  503  502 -0.26405082539E+01  0.75848806059E+02 -0.12118572105E+03  0.14298948440E+03  0.00000000000E+00 0. -1.
         21    1    1    2  504  503  0.72170341648E+02  0.69735167191E+01 -0.15695440704E+02  0.74185814061E+02  0.00000000000E+00 0. -1.
         21    1    1    2  505  504 -0.35102752052E+02  0.20756641445E+02  0.39488664633E+03  0.39698678166E+03  0.00000000000E+00 0.  1.
         21    1    1    2  506  501 -0.34427081342E+02 -0.10357896422E+03 -0.83777835019E+01  0.10947151692E+03  0.00000000000E+00 0. -1.
<scales pt_clust_3="80.86437" pt_clust_4="62.36694" pt_clust_5="40.78040" pt_clust_6="14000.00000"></scales>
<clustering>
<clus scale="   40.780">  1  5  2 -1</clus>
<clus scale="   62.367">  1  4  2 -1</clus>
<clus scale="   80.864">  2  3  1 -1</clus>
<clus scale="   40.780">  1  3  2 -1</clus>
</clustering>
</event>
<event>
 6    0  0.8777103E+002  0.9236618E+02  0.7546771E-02  0.1297221E+00
         21   -1    0    0  503  501  0.00000000000E+00  0.00000000000E+00  0.27426581186E+02  0.27426581186E+02  0.00000000000E+00 0. -1.
         21   -1    0    0  505  502 -0.00000000000E+00 -0.00000000000E+00 -0.15126948324E+04  0.15126948324E+04  0.00000000000E+00 0. -1.
         21    1    1    2  503  506 -0.35530003073E+02 -0.51070170977E+02 -0.16705795690E+03  0.17826638619E+03  0.00000000000E+00 0. -1.
         21    1    1    2  504  502 -0.37759731983E+02 -0.11154503606E+02 -0.71365243988E+03  0.71473773180E+03  0.00000000000E+00 0. -1.
         21    1    1    2  505  501  0.64129155956E+02  0.11363931768E+03 -0.19743183339E+03  0.23665538659E+03  0.00000000000E+00 0. -1.
         21    1    1    2  506  504  0.91605790995E+01 -0.51414643097E+02 -0.40712602108E+03  0.41046190904E+03  0.00000000000E+00 0. -1.
<scales pt_clust_3="92.36618" pt_clust_4="39.37284" pt_clust_5="14000.00000" pt_clust_6="58.02355"></scales>
<clustering>
<clus scale="   39.373">  2  4  1 -1</clus>
<clus scale="   58.024">  2  6  1 -1</clus>
<clus scale="   92.366">  1  3  2 -1</clus>
<clus scale="   92.366">  1  3  2 -1</clus>
</clustering>
</event>
<event>
 6    0  0.8777103E+002  0.1128566E+03  0.7546771E-02  0.1255369E+00
         21   -1    0    0  506  501  0.00000000000E+00  0.00000000000E+00  0.16764021010E+03  0.16764021010E+03  0.00000000000E+00 0.  1.
         21   -1    0    0  504  502 -0.00000000000E+00 -0.00000000000E+00 -0.19787660491E+04  0.19787660491E+04  0.00000000000E+00 0.  1.
         21    1    1    2  503  502 -0.44002398082E+02 -0.89878522932E+01 -0.16569536395E+04  0.16575621726E+04  0.00000000000E+00 0.  1.
         21    1    1    2  504  501  0.14558825430E+03  0.50523697887E+02  0.47874278633E+02  0.16137078543E+03  0.00000000000E+00 0.  1.
         21    1    1    2  505  503 -0.73133294406E+02 -0.43769842773E+01 -0.24997172558E+03  0.26048704446E+03  0.00000000000E+00 0.  1.
         21    1    1    2  506  505 -0.28452561807E+02 -0.37158861316E+02  0.47925247444E+02  0.66986256727E+02  0.00000000000E+00 0.  1.
<scales pt_clust_3="44.91094" pt_clust_4="112.85661" pt_clust_5="14000.00000" pt_clust_6="47.81346"></scales>
<clustering>
<clus scale="   44.911">  2  3  1 -1</clus>
<clus scale="   47.813">  1  6  2 -1</clus>
<clus scale="  112.857">  1  4  2 -1</clus>
<clus scale="   47.813">  1  3  2 -1</clus>
</clustering>
</event>
<event>
 6    0  0.8777103E+002  0.1839171E+03  0.7546771E-02  0.1164065E+00
         21   -1    0    0  502  501  0.00000000000E+00  0.00000000000E+00  0.18347343333E+03  0.18347343333E+03  0.00000000000E+00 0.  1.
         21   -1    0    0  505  502 -0.00000000000E+00 -0.00000000000E+00 -0.10167222463E+04  0.10167222463E+04  0.00000000000E+00 0.  1.
         21    1    1    2  503  504 -0.31379285655E+01 -0.46807652334E+02 -0.28839832449E+03  0.29218897392E+03  0.00000000000E+00 0.  1.
         21    1    1    2  504  506  0.87448927655E+01  0.12644072597E+03 -0.20975031962E+03  0.24506922882E+03  0.00000000000E+00 0.  1.
         21    1    1    2  505  503 -0.41015775971E+02 -0.15939367673E+03 -0.47240055789E+03  0.50025086222E+03  0.00000000000E+00 0.  1.
         21    1    1    2  506  501  0.35408811771E+02  0.79760603101E+02  0.13730038904E+03  0.16268661466E+03  0.00000000000E+00 0.  1.
<scales pt_clust_3="36.51334" pt_clust_4="170.72815" pt_clust_5="36.51334" pt_clust_6="87.26705"></scales>
<clustering>
<clus scale="   36.513">  3  5 -1 -1</clus>
<clus scale="   87.267">  1  6  2 -1</clus>
<clus scale="  170.728">  1  4  2 -1</clus>
<clus scale="   87.267">  1  3  2 -1</clus>
</clustering>
</event>
<event>
 6    0  0.8777103E+002  0.8161485E+02  0.7546771E-02  0.1324530E+00
         21   -1    0    0  503  501  0.00000000000E+00  0.00000000000E+00  0.46513010760E+03  0.46513010760E+03  0.00000000000E+00 0.  1.
         21   -1    0    0  505  502 -0.00000000000E+00 -0.00000000000E+00 -0.35647883383E+03  0.35647883383E+03  0.00000000000E+00 0. -1.
         21    1    1    2  503  506 -0.35770600441E+02  0.18171965827E+01  0.54852607719E+02  0.65510660453E+02  0.00000000000E+00 0.  1.
         21    1    1    2  504  501 -0.48830567527E+02  0.29619491886E+00  0.37298014338E+03  0.37616312872E+03  0.00000000000E+00 0.  1.
         21    1    1    2  505  504  0.10001565648E+02 -0.80502985590E+02 -0.65936237834E+02  0.10453874623E+03  0.00000000000E+00 0. -1.
         21    1    1    2  506  502  0.74599602321E+02  0.78389594088E+02 -0.25324523949E+03  0.27539640602E+03  0.00000000000E+00 0. -1.
<scales pt_clust_3="35.81673" pt_clust_4="14000.00000" pt_clust_5="80.84322" pt_clust_6="81.61485"></scales>
<clustering>
<clus scale="   35.817">  1  3  2 -1</clus>
<clus scale="   80.843">  2  5  1 -1</clus>
<clus scale="   81.615">  2  6  1 -1</clus>
<clus scale="   35.817">  1  3  2 -1</clus>
</clustering>
</event>
<event>
 6    0  0.8777103E+002  0.7142248E+02  0.7546771E-02  0.1355322E+00
         21   -1    0    0  506  501  0.00000000000E+00  0.00000000000E+00  0.16252278073E+03  0.16252278073E+03  0.00000000000E+00 0. -1.
         21   -1    0    0  505  502 -0.00000000000E+00 -0.00000000000E+00 -0.27463444537E+04  0.27463444537E+04  0.00000000000E+00 0. -1.
         21    1    1    2  503  501  0.42596242290E+02  0.35117592237E+02 -0.84180677264E+02  0.10066812587E+03  0.00000000000E+00 0. -1.
         21    1    1    2  504  503 -0.85903240597E+02 -0.67288250042E+02 -0.73516501585E+03  0.74321913046E+03  0.00000000000E+00 0. -1.
         21    1    1    2  505  504  0.30091639590E+02  0.60034019782E+02 -0.19125500938E+04  0.19137286776E+04  0.00000000000E+00 0. -1.
         21    1    1    2  506  502  0.13215358717E+02 -0.27863361977E+02  0.14807411399E+03  0.15125130042E+03  0.00000000000E+00 0. -1.
<scales pt_clust_3="53.90446" pt_clust_4="71.42248" pt_clust_5="14000.00000" pt_clust_6="30.83849"></scales>
<clustering>
<clus scale="   30.838">  1  6  2 -1</clus>
<clus scale="   53.904">  1  3  2 -1</clus>
<clus scale="   71.422">  1  4  2 -1</clus>
<clus scale="   30.838">  1  3  2 -1</clus>
</clustering>
</event>
<event>
 6    0  0.8777103E+002  0.7849319E+02  0.7546771E-02  0.1333383E+00
         21   -1    0    0  506  501  0.00000000000E+00  0.00000000000E+00  0.17241761415E+04  0.17241761415E+04  0.00000000000E+00 0.  1.
         21   -1    0    0  503  502 -0.00000000000E+00 -0.00000000000E+00 -0.28223768820E+03  0.28223768820E+03  0.00000000000E+00 0.  1.
         21    1    1    2  503  505 -0.32307149142E+02  0.33535954402E+02 -0.25218822585E+03  0.25645138600E+03  0.00000000000E+00 0.  1.
         21    1    1    2  504  501  0.10423524578E+02 -0.29652121965E+02  0.11606935804E+04  0.11611190661E+04  0.00000000000E+00 0.  1.
         21    1    1    2  505  504  0.52436684344E+02  0.74914147576E+02  0.48049435659E+03  0.48911814737E+03  0.00000000000E+00 0.  1.
         21    1    1    2  506  502 -0.30553059780E+02 -0.78797980013E+02  0.52938742165E+02  0.99725230198E+02  0.00000000000E+00 0. -1.
<scales pt_clust_3="46.45806" pt_clust_4="31.43085" pt_clust_5="14000.00000" pt_clust_6="78.49319"></scales>
<clustering>
<clus scale="   31.431">  1  4  2 -1</clus>
<clus scale="   46.458">  2  3  1 -1</clus>
<clus scale="   78.493">  2  6  1 -1</clus>
<clus scale="   31.431">  1  3  2 -1</clus>
</clustering>
</event>
<event>
 6    0  0.8777103E+002  0.8881560E+02  0.7546771E-02  0.1305746E+00
         21   -1    0    0  503  501  0.00000000000E+00  0.00000000000E+00  0.80062124973E+03  0.80062124973E+03  0.00000000000E+00 0.  1.
         21   -1    0    0  505  502 -0.00000000000E+00 -0.00000000000E+00 -0.70881869745E+02  0.70881869745E+02  0.00000000000E+00 0. -1.
         21    1    1    2  503  506 -0.80277754598E+02 -0.42346113875E+02  0.68969046715E+03  0.69563686772E+03  0.00000000000E+00 0.  1.
         21    1    1    2  504  502 -0.20039876560E+02 -0.27397849721E+02  0.36119751740E+01  0.34136273765E+02  0.00000000000E+00 0. -1.
         21    1    1    2  505  501  0.72373727656E+02  0.12749727236E+02  0.19168880581E+02  0.75947073559E+02  0.00000000000E+00 0. -1.
         21    1    1    2  506  504  0.27943903501E+02  0.56994236360E+02  0.17268057081E+02  0.65782904440E+02  0.00000000000E+00 0. -1.
<scales pt_clust_3="88.81560" pt_clust_4="33.94464" pt_clust_5="14000.00000" pt_clust_6="48.96797"></scales>
<clustering>
<clus scale="   33.945">  2  4  1 -1</clus>
<clus scale="   48.968">  2  6  1 -1</clus>
<clus scale="   88.816">  1  3  2 -1</clus>
<clus scale="   88.816">  1  3  2 -1</clus>
</clustering>
</event>
<event>
 6    0  0.1233579E+003  0.8779771E+02  0.7546771E-02  0.1308274E+00
         21   -1    0    0  506  501  0.00000000000E+00  0.00000000000E+00  0.21897356980E+03  0.21897356980E+03  0.00000000000E+00 0.  1.
         21   -1    0    0  503  502 -0.00000000000E+00 -0.00000000000E+00 -0.77181292830E+03  0.77181292830E+03  0.00000000000E+00 0.  1.
         21    1    1    2  503  504 -0.26951939008E+02 -0.36102919364E+02 -0.69987825148E+02  0.83235349893E+02  0.00000000000E+00 0.  1.
         21    1    1    2  504  501 -0.35601927722E+02 -0.81726649955E+02  0.18345844107E+03  0.20396995409E+03  0.00000000000E+00 0.  1.
         21    1    1    2  505  502  0.11804719805E+01  0.63687453860E+02 -0.58415548712E+03  0.58761817401E+03  0.00000000000E+00 0.  1.
         21    1    1    2  506  505  0.61373394749E+02  0.54142115459E+02 -0.82154487304E+02  0.11596302011E+03  0.00000000000E+00 0.  1.
<scales pt_clust_3="45.05361" pt_clust_4="14000.00000" pt_clust_5="39.62339" pt_clust_6="87.79771"></scales>
<clustering>
<clus scale="   45.054">  2  3  1 -1</clus>
<clus scale="   39.623">  2  5  1 -1</clus>
<clus scale="   87.798">  2  6  1 -1</clus>
<clus scale="   87.798">  1  3  2 -1</clus>
</clustering>
</event>
<event>
 6    0  0.8777103E+002  0.1149248E+03  0.7546771E-02  0.1251712E+00
         21   -1    0    0  504  501  0.00000000000E+00  0.00000000000E+00  0.16811609644E+03  0.16811609644E+03  0.00000000000E+00 0.  1.
         21   -1    0    0  506  502 -0.00000000000E+00 -0.00000000000E+00 -0.45733584159E+03  0.45733584159E+03  0.00000000000E+00 0.  1.
         21    1    1    2  503  501  0.36917802564E+02  0.16590290915E+02  0.56434518623E+02  0.69447943029E+02  0.00000000000E+00 0.  1.
         21    1    1    2  504  505 -0.12184438215E+03 -0.15860270673E+02 -0.21504680103E+03  0.24767464198E+03  0.00000000000E+00 0.  1.
         21    1    1    2  505  502  0.62054347463E+01  0.57296552420E+02 -0.18683481057E+03  0.19552147908E+03  0.00000000000E+00 0.  1.
         21    1    1    2  506  503  0.78721144839E+02 -0.58026572662E+02  0.56227347830E+02  0.11280787394E+03  0.00000000000E+00 0.  1.
<scales pt_clust_3="40.47421" pt_clust_4="14000.00000" pt_clust_5="58.49468" pt_clust_6="114.92482"></scales>
<clustering>
<clus scale="   40.474">  1  3  2 -1</clus>
<clus scale="   58.495">  2  5  1 -1</clus>
<clus scale="  114.925">  1  6  2 -1</clus>
<clus scale="   40.474">  1  3  2 -1</clus>
</clustering>
</event>
<event>
 6    0  0.8777103E+002  0.9717754E+02  0.7546771E-02  0.1286346E+00
         21   -1    0    0  503  501  0.00000000000E+00  0.00000000000E+00  0.28384481196E+03  0.28384481196E+03  0.00000000000E+00 0.  1.
         21   -1    0    0  505  502 -0.00000000000E+00 -0.00000000000E+00 -0.21778361386E+03  0.21778361386E+03  0.00000000000E+00 0. -1.
         21    1    1    2  503  504  0.38040187761E+02 -0.13008330500E+03  0.15072891124E+03  0.20270157081E+03  0.00000000000E+00 0.  1.
         21    1    1    2  504  502  0.31695478868E+02 -0.15228012631E+00 -0.55870801234E+02  0.64235294040E+02  0.00000000000E+00 0. -1.
         21    1    1    2  505  506 -0.47138158931E+02  0.89849574441E+02 -0.10469684474E+03  0.14579568359E+03  0.00000000000E+00 0. -1.
         21    1    1    2  506  501 -0.22597507698E+02  0.40386010686E+02  0.75899932828E+02  0.88895877388E+02  0.00000000000E+00 0.  1.
<scales pt_clust_3="97.17754" pt_clust_4="31.69584" pt_clust_5="14000.00000" pt_clust_6="45.64934"></scales>
<clustering>
<clus scale="   31.696">  2  4  1 -1</clus>
<clus scale="   45.649">  1  6  2 -1</clus>
<clus scale="   97.178">  1  3  2 -1</clus>
<clus scale="   45.649">  1  3  2 -1</clus>
</clustering>
</event>
<event>
 6    0  0.8777103E+002  0.7189465E+02  0.7546771E-02  0.1353766E+00
         21   -1    0    0  505  501  0.00000000000E+00  0.00000000000E+00  0.68767425035E+03  0.68767425035E+03  0.00000000000E+00 0.  1.
         21   -1    0    0  503  502 -0.00000000000E+00 -0.00000000000E+00 -0.34221100290E+02  0.34221100290E+02  0.00000000000E+00 0.  1.
         21    1    1    2  503  504  0.46104702331E+02 -0.21694014358E+02  0.42263863221E+02  0.66200513369E+02  0.00000000000E+00 0.  1.
         21    1    1    2  504  501  0.30385284356E+02 -0.38942938916E+02  0.20914657491E+03  0.21490022754E+03  0.00000000000E+00 0.  1.
         21    1    1    2  505  506 -0.11688754019E+01  0.94641675331E+02  0.25679431740E+03  0.27368181239E+03  0.00000000000E+00 0.  1.
         21    1    1    2  506  502 -0.75321111284E+02 -0.34004722058E+02  0.14524839452E+03  0.16711279735E+03  0.00000000000E+00 0.  1.
<scales pt_clust_3="56.03654" pt_clust_4="49.39451" pt_clust_5="71.89465" pt_clust_6="14000.00000"></scales>
<clustering>
<clus scale="   49.395">  1  4  2 -1</clus>
<clus scale="   56.037">  2  3  1 -1</clus>
<clus scale="   71.895">  1  5  2 -1</clus>
<clus scale="   49.395">  1  3  2 -1</clus>
</clustering>
</event>
<event>
 6    0  0.8777103E+002  0.1076176E+03  0.7546771E-02  0.1265046E+00
         21   -1    0    0  503  501  0.00000000000E+00  0.00000000000E+00  0.54313279410E+03  0.54313279410E+03  0.00000000000E+00 0. -1.
         21   -1    0    0  506  502 -0.00000000000E+00 -0.00000000000E+00 -0.24994329771E+03  0.24994329771E+03  0.00000000000E+00 0. -1.
         21    1    1    2  503  502 -0.82793239633E+02 -0.36545851680E+02  0.55562015792E+02  0.10619537373E+03  0.00000000000E+00 0. -1.
         21    1    1    2  504  505 -0.24361903131E+02  0.45752534068E+02  0.68481281146E+00  0.51838843220E+02  0.00000000000E+00 0.  1.
         21    1    1    2  505  501  0.18985097719E+01 -0.44373953243E+02  0.41925946426E+03  0.42160544403E+03  0.00000000000E+00 0. -1.
         21    1    1    2  506  504  0.10525663299E+03  0.35167270854E+02 -0.18231679647E+03  0.21343643083E+03  0.00000000000E+00 0. -1.
<scales pt_clust_3="14000.00000" pt_clust_4="43.45457" pt_clust_5="44.41455" pt_clust_6="107.61762"></scales>
<clustering>
<clus scale="   44.415">  1  5  2 -1</clus>
<clus scale="   43.455">  1  4  2 -1</clus>
<clus scale="  107.618">  2  6  1 -1</clus>
<clus scale="   44.415">  1  3  2 -1</clus>
</clustering>
</event>
<event>
 6    0  0.8777103E+002  0.1107566E+03  0.7546771E-02  0.1259175E+00
         21   -1    0    0  505  501  0.00000000000E+00  0.00000000000E+00  0.23170517073E+04  0.23170517073E+04  0.00000000000E+00 0.  1.
         21   -1    0    0  506  502 -0.00000000000E+00 -0.00000000000E+00 -0.47671782049E+02  0.47671782049E+02  0.00000000000E+00 0. -1.
         21    1    1    2  503  502  0.11054502657E+03  0.14519014894E+02  0.31121847953E+02  0.11575652946E+03  0.00000000000E+00 0. -1.
         21    1    1    2  504  501 -0.51479971969E+02  0.33988819082E+02  0.58879560077E+03  0.59201831629E+03  0.00000000000E+00 0.  1.
         21    1    1    2  505  503  0.31774818820E+02 -0.85917517229E+01  0.12502214355E+03  0.12928261169E+03  0.00000000000E+00 0.  1.
         21    1    1    2  506  504 -0.90839873420E+02 -0.39916082253E+02  0.15244403330E+04  0.15276660319E+04  0.00000000000E+00 0.  1.
<scales pt_clust_3="110.75655" pt_clust_4="53.33571" pt_clust_5="32.91591" pt_clust_6="14000.00000"></scales>
<clustering>
<clus scale="   32.916">  1  5  2 -1</clus>
<clus scale="   53.336">  1  4  2 -1</clus>
<clus scale="  110.757">  2  3  1 -1</clus>
<clus scale="   32.916">  1  3  2 -1</clus>
</clustering>
</event>
<event>
 6    0  0.8777103E+002  0.9962526E+02  0.7546771E-02  0.1281086E+00
         21   -1    0    0  504  501  0.00000000000E+00  0.00000000000E+00  0.10964325893E+03  0.10964325893E+03  0.00000000000E+00 0.  1.
         21   -1    0    0  505  502 -0.00000000000E+00 -0.00000000000E+00 -0.45958920014E+03  0.45958920014E+03  0.00000000000E+00 0. -1.
         21    1    1    2  503  506 -0.71693502346E+00  0.12709433613E+03 -0.26686098513E+03  0.29558124037E+03  0.00000000000E+00 0. -1.
         21    1    1    2  504  503 -0.42254865029E+02 -0.88458422156E+02  0.58777950778E+02  0.11430316516E+03  0.00000000000E+00 0.  1.
         21    1    1    2  505  501  0.32373511192E+02 -0.41737074122E+01 -0.42112944904E+02  0.53281931167E+02  0.00000000000E+00 0.  1.
         21    1    1    2  506  502  0.10598288861E+02 -0.34462206558E+02 -0.99749961948E+02  0.10606612238E+03  0.00000000000E+00 0.  1.
<scales pt_clust_3="14000.00000" pt_clust_4="99.62526" pt_clust_5="32.64145" pt_clust_6="40.12220"></scales>
<clustering>
<clus scale="   32.641">  2  5  1 -1</clus>
<clus scale="   40.122">  2  6  1 -1</clus>
<clus scale="   99.625">  1  4  2 -1</clus>
<clus scale="   99.625">  1  3  2 -1</clus>
</clustering>
</event>
<event>
 6    0  0.8777103E+002  0.9027434E+02  0.7546771E-02  0.1302189E+00
         21   -1    0    0  505  501  0.00000000000E+00  0.00000000000E+00  0.21524730638E+03  0.21524730638E+03  0.00000000000E+00 0. -1.
         21   -1    0    0  503  502 -0.00000000000E+00 -0.00000000000E+00 -0.21317116695E+04  0.21317116695E+04  0.00000000000E+00 0.  1.
         21    1    1    2  503  504  0.52158945055E+02 -0.32477813258E+02 -0.19912367310E+04  0.19921845002E+04  0.00000000000E+00 0.  1.
         21    1    1    2  504  506 -0.40420694455E+02 -0.66146833659E+02 -0.98447232855E+02  0.12530400552E+03  0.00000000000E+00 0. -1.
         21    1    1    2  505  502 -0.49227582867E+02  0.12597245872E+02  0.93166367843E+02  0.10612265364E+03  0.00000000000E+00 0. -1.
         21    1    1    2  506  501  0.37489332267E+02  0.86027401046E+02  0.80053232842E+02  0.12334781657E+03  0.00000000000E+00 0. -1.
<scales pt_clust_3="61.24543" pt_clust_4="90.27434" pt_clust_5="50.81383" pt_clust_6="14000.00000"></scales>
<clustering>
<clus scale="   50.814">  1  5  2 -1</clus>
<clus scale="   61.245">  2  3  1 -1</clus>
<clus scale="   90.274">  2  4  1 -1</clus>
<clus scale="   50.814">  1  3  2 -1</clus>
</clustering>
</event>
<event>
 6    0  0.8777103E+002  0.1282816E+03  0.7546771E-02  0.1230028E+00
         21   -1    0    0  503  501  0.00000000000E+00  0.00000000000E+00  0.11614054480E+03  0.11614054480E+03  0.00000000000E+00 0.  1.
         21   -1    0    0  504  502 -0.00000000000E+00 -0.00000000000E+00 -0.56947793710E+03  0.56947793710E+03  0.00000000000E+00 0.  1.
         21    1    1    2  503  505  0.16582185741E+02 -0.12744332123E+03 -0.26172388094E+03  0.29157530565E+03  0.00000000000E+00 0.  1.
         21    1    1    2  504  506 -0.10946382350E+03  0.96906859112E+02 -0.12378593674E+03  0.19156259064E+03  0.00000000000E+00 0.  1.
         21    1    1    2  505  502  0.29752393404E+02  0.68608398135E+01 -0.11578389808E+03  0.11974216923E+03  0.00000000000E+00 0.  1.
         21    1    1    2  506  501  0.63129244355E+02  0.23675622302E+02  0.47956323468E+02  0.82738416378E+02  0.00000000000E+00 0.  1.
<scales pt_clust_3="128.28159" pt_clust_4="14000.00000" pt_clust_5="30.53320" pt_clust_6="68.58827"></scales>
<clustering>
<clus scale="   30.533">  2  5  1 -1</clus>
<clus scale="   68.588">  1  6  2 -1</clus>
<clus scale="  128.282">  2  3  1 -1</clus>
<clus scale="   68.588">  1  3  2 -1</clus>
</clustering>
</event>
<event>
 6    0  0.8777103E+002  0.1319170E+03  0.7546771E-02  0.1224639E+00
         21   -1    0    0  503  501  0.00000000000E+00  0.00000000000E+00  0.39704463134E+03  0.39704463134E+03  0.00000000000E+00 0.  1.
         21   -1    0    0  504  502 -0.00000000000E+00 -0.00000000000E+00 -0.30910937403E+03  0.30910937403E+03  0.00000000000E+00 0.  1.
         21    1    1    2  503  506  0.35808720360E+02 -0.15713518749E+01  0.71724001748E+02  0.80181456879E+02  0.00000000000E+00 0.  1.
         21    1    1    2  504  505 -0.13788345451E+03 -0.81907157809E+01 -0.24120620884E+03  0.27795569797E+03  0.00000000000E+00 0.  1.
         21    1    1    2  505  501 -0.67822863392E+01  0.34617645663E+02  0.23046798503E+03  0.23315203821E+03  0.00000000000E+00 0.  1.
         21    1    1    2  506  502  0.10885702049E+03 -0.24855578007E+02  0.26949479373E+02  0.11486481230E+03  0.00000000000E+00 0.  1.
<scales pt_clust_3="35.69846" pt_clust_4="131.91696" pt_clust_5="35.27578" pt_clust_6="14000.00000"></scales>
<clustering>
<clus scale="   35.276">  1  5  2 -1</clus>
<clus scale="   35.698">  1  3  2 -1</clus>
<clus scale="  131.917">  2  4  1 -1</clus>
<clus scale="   35.276">  1  3  2 -1</clus>
</clustering>
</event>
<event>
 6    0  0.8777103E+002  0.1488601E+03  0.7546771E-02  0.1201881E+00
         21   -1    0    0  506  501  0.00000000000E+00  0.00000000000E+00  0.93877319818E+03  0.93877319818E+03  0.00000000000E+00 0. -1.
         21   -1    0    0  505  502 -0.00000000000E+00 -0.00000000000E+00 -0.69735445140E+02  0.69735445140E+02  0.00000000000E+00 0. -1.
         21    1    1    2  503  502 -0.49871653647E+02  0.21163936890E+02  0.28937474031E+02  0.61420448268E+02  0.00000000000E+00 0. -1.
         21    1    1    2  504  501  0.12930595598E+03 -0.74394093951E+02  0.52004074527E+03  0.54101468391E+03  0.00000000000E+00 0. -1.
         21    1    1    2  505  504  0.59276094888E+02 -0.19715960384E+01  0.76170525595E+01  0.59796004095E+02  0.00000000000E+00 0. -1.
         21    1    1    2  506  503 -0.13871039722E+03  0.55201753100E+02  0.31244248119E+03  0.34627750705E+03  0.00000000000E+00 0. -1.
<scales pt_clust_3="54.17651" pt_clust_4="148.86015" pt_clust_5="35.93684" pt_clust_6="14000.00000"></scales>
<clustering>
<clus scale="   54.177">  2  3  1 -1</clus>
<clus scale="   35.937">  2  5  1 -1</clus>
<clus scale="  148.860">  1  4  2 -1</clus>
<clus scale="  148.860">  1  3  2 -1</clus>
</clustering>
</event>
<event>
 6    0  0.8777103E+002  0.7957356E+02  0.7546771E-02  0.1330266E+00
         21   -1    0    0  505  501  0.00000000000E+00  0.00000000000E+00  0.22848291554E+02  0.22848291554E+02  0.00000000000E+00 0. -1.
         21   -1    0    0  503  502 -0.00000000000E+00 -0.00000000000E+00 -0.96664100030E+03  0.96664100030E+03  0.00000000000E+00 0. -1.
         21    1    1    2  503  504 -0.10876868065E+03 -0.27647868714E+02 -0.39350642462E+03  0.40919718566E+03  0.00000000000E+00 0. -1.
         21    1    1    2  504  501  0.31647820860E+02  0.53751359469E+02 -0.88699792121E+02  0.10843636997E+03  0.00000000000E+00 0. -1.
         21    1    1    2  505  506  0.58433049277E+02  0.76173494971E+01 -0.25709834532E+03  0.26376505536E+03  0.00000000000E+00 0. -1.
         21    1    1    2  506  502  0.18687810513E+02 -0.33720840252E+02 -0.20448814668E+03  0.20809068086E+03  0.00000000000E+00 0. -1.
<scales pt_clust_3="79.57356" pt_clust_4="59.99311" pt_clust_5="14000.00000" pt_clust_6="38.55294"></scales>
<clustering>
<clus scale="   38.553">  2  6  1 -1</clus>
<clus scale="   59.993">  1  4  2 -1</clus>
<clus scale="   79.574">  1  3  2 -1</clus>
<clus scale="   59.993">  1  3  2 -1</clus>
</clustering>
</event>
<event>
 6    0  0.8777103E+002  0.8194254E+02  0.7546771E-02  0.1323627E+00
         21   -1    0    0  504  501  0.00000000000E+00  0.00000000000E+00  0.10566623980E+04  0.10566623980E+04  0.00000000000E+00 0.  1.
         21   -1    0    0  505  502 -0.00000000000E+00 -0.00000000000E+00 -0.41832115592E+03  0.41832115592E+03  0.00000000000E+00 0. -1.
         21    1    1    2  503  502 -0.38905535384E+02 -0.10403518393E+02  0.13901638992E+03  0.14473227195E+03  0.00000000000E+00 0.  1.
         21    1    1    2  504  503  0.35642702318E+02 -0.14391715577E+02  0.61282078027E+03  0.61402510733E+03  0.00000000000E+00 0.  1.
         21    1    1    2  505  506  0.18859792775E+02 -0.79415200647E+02 -0.40141580196E+03  0.40963045778E+03  0.00000000000E+00 0. -1.
         21    1    1    2  506  501 -0.15596959709E+02  0.10421043462E+03  0.28791987387E+03  0.30659571687E+03  0.00000000000E+00 0.  1.
<scales pt_clust_3="31.32697" pt_clust_4="38.43857" pt_clust_5="81.94254" pt_clust_6="14000.00000"></scales>
<clustering>
<clus scale="   38.439">  1  4  2 -1</clus>
<clus scale="   31.327">  1  3  2 -1</clus>
<clus scale="   81.943">  2  5  1 -1</clus>
<clus scale="   38.439">  1  3  2 -1</clus>
</clustering>
</event>
<event>
 6    0  0.8777103E+002  0.6804253E+02  0.7546771E-02  0.1366879E+00
         21   -1    0    0  505  501  0.00000000000E+00  0.00000000000E+00  0.34184449673E+03  0.34184449673E+03  0.00000000000E+00 0. -1.
         21   -1    0    0  506  502 -0.00000000000E+00 -0.00000000000E+00 -0.13340574581E+03  0.13340574581E+03  0.00000000000E+00 0. -1.
         21    1    1    2  503  502 -0.52099295525E+02  0.24447408890E+02 -0.73429480510E+01  0.58016646591E+02  0.00000000000E+00 0. -1.
         21    1    1    2  504  501  0.49231355359E+00 -0.10467651030E+03  0.36195763171E+02  0.11075896105E+03  0.00000000000E+00 0. -1.
         21    1    1    2  505  503  0.67625642541E+01  0.43765785262E+02  0.22727069470E+03  0.23154512499E+03  0.00000000000E+00 0. -1.
         21    1    1    2  506  504  0.44844417717E+02  0.36463316145E+02 -0.47684758906E+02  0.74929509918E+02  0.00000000000E+00 0. -1.
<scales pt_clust_3="61.11488" pt_clust_4="68.04253" pt_clust_5="44.28517" pt_clust_6="14000.00000"></scales>
<clustering>
<clus scale="   44.285">  1  5  2 -1</clus>
<clus scale="   61.115">  2  3  1 -1</clus>
<clus scale="   68.043">  1  4  2 -1</clus>
<clus scale="   44.285">  1  3  2 -1</clus>
</clustering>
</event>
<event>
 6    0  0.8777103E+002  0.8819160E+02  0.7546771E-02  0.1307291E+00
         21   -1    0    0  505  501  0.00000000000E+00  0.00000000000E+00  0.34863825317E+03  0.34863825317E+03  0.00000000000E+00 0. -1.
         21   -1    0    0  506  502 -0.00000000000E+00 -0.00000000000E+00 -0.21166848857E+03  0.21166848857E+03  0.00000000000E+00 0.  1.
         21    1    1    2  503  501 -0.24734930009E-01 -0.69594707775E+02  0.27265696393E+03  0.28139872768E+03  0.00000000000E+00 0. -1.
         21    1    1    2  504  502 -0.80354709151E+02  0.77189942142E+02 -0.61406603439E+02  0.12722396550E+03  0.00000000000E+00 0.  1.
         21    1    1    2  505  504  0.24674026719E+02 -0.17067773455E+02  0.23931303596E+02  0.38377386272E+02  0.00000000000E+00 0.  1.
         21    1    1    2  506  503  0.55705417362E+02  0.94725390883E+01 -0.98211899484E+02  0.11330666230E+03  0.00000000000E+00 0.  1.
<scales pt_clust_3="88.19160" pt_clust_4="14000.00000" pt_clust_5="30.00194" pt_clust_6="57.01749"></scales>
<clustering>
<clus scale="   30.002">  1  5  2 -1</clus>
<clus scale="   57.017">  2  6  1 -1</clus>
<clus scale="   88.192">  1  3  2 -1</clus>
<clus scale="   30.002">  1  3  2 -1</clus>
</clustering>
</event>
<event>
 6    0  0.8777103E+002  0.8649106E+02  0.7546771E-02  0.1311579E+00
         21   -1    0    0  506  501  0.00000000000E+00  0.00000000000E+00  0.46927456389E+03  0.46927456389E+03  0.00000000000E+00 0.  1.
         21   -1    0    0  504  502 -0.00000000000E+00 -0.00000000000E+00 -0.13028251937E+04  0.13028251937E+04  0.00000000000E+00 0. -1.
         21    1    1    2  503  502 -0.56153074376E+02  0.96431800414E+01 -0.12491326196E+04  0.12504313096E+04  0.00000000000E+00 0. -1.
         21    1    1    2  504  505  0.40355657241E+02 -0.97901761082E+02  0.32395310327E+02  0.11073748248E+03  0.00000000000E+00 0. -1.
         21    1    1    2  505  501  0.38585163567E+02  0.60475500079E+02  0.36237271954E+03  0.36940504711E+03  0.00000000000E+00 0.  1.
         21    1    1    2  506  503 -0.22787746432E+02  0.27783080962E+02  0.20813959890E+02  0.41525918430E+02  0.00000000000E+00 0.  1.
<scales pt_clust_3="57.01534" pt_clust_4="14000.00000" pt_clust_5="86.49106" pt_clust_6="35.93301"></scales>
<clustering>
<clus scale="   35.933">  1  6  2 -1</clus>
<clus scale="   57.015">  2  3  1 -1</clus>
<clus scale="   86.491">  1  5  2 -1</clus>
<clus scale="   35.933">  1  3  2 -1</clus>
</clustering>
</event>
<event>
 6    0  0.8777103E+002  0.1064976E+03  0.7546771E-02  0.1267197E+00
         21   -1    0    0  504  501  0.00000000000E+00  0.00000000000E+00  0.56078957239E+03  0.56078957239E+03  0.00000000000E+00 0.  1.
         21   -1    0    0  506  502 -0.00000000000E+00 -0.00000000000E+00 -0.20291472484E+03  0.20291472484E+03  0.00000000000E+00 0. -1.
         21    1    1    2  503  501 -0.20215584491E+02  0.51236995077E+02  0.22851274339E+03  0.23505738323E+03  0.00000000000E+00 0.  1.
         21    1    1    2  504  502  0.51668797732E+02 -0.17002426778E+02  0.25615146374E+03  0.26186316953E+03  0.00000000000E+00 0.  1.
         21    1    1    2  505  503  0.50078918211E+02  0.55107499505E+02  0.19494080020E+02  0.76972421728E+02  0.00000000000E+00 0. -1.
         21    1    1    2  506  505 -0.81532131451E+02 -0.89342067804E+02 -0.14628343960E+03  0.18981132274E+03  0.00000000000E+00 0. -1.
<scales pt_clust_3="42.85571" pt_clust_4="54.39437" pt_clust_5="14000.00000" pt_clust_6="106.49762"></scales>
<clustering>
<clus scale="   54.394">  1  4  2 -1</clus>
<clus scale="   42.856">  1  3  2 -1</clus>
<clus scale="  106.498">  2  6  1 -1</clus>
<clus scale="   54.394">  1  3  2 -1</clus>
</clustering>
</event>
<event>
 6    0  0.8777103E+002  0.9265799E+02  0.7546771E-02  0.1296540E+00
         21   -1    0    0  505  501  0.00000000000E+00  0.00000000000E+00  0.11384144248E+04  0.11384144248E+04  0.00000000000E+00 0.  1.
         21   -1    0    0  503  502 -0.00000000000E+00 -0.00000000000E+00 -0.61430814491E+03  0.61430814491E+03  0.00000000000E+00 0. -1.
         21    1    1    2  503  504  0.37750485585E+02  0.53363296217E+02 -0.56957928671E+03  0.57331780401E+03  0.00000000000E+00 0. -1.
         21    1    1    2  504  501  0.41357651664E+02 -0.45126759114E+02  0.47934316105E+03  0.48323570417E+03  0.00000000000E+00 0.  1.
         21    1    1    2  505  506 -0.11684390773E+03 -0.89915094129E+01  0.63992872963E+03  0.65057061494E+03  0.00000000000E+00 0.  1.
         21    1    1    2  506  502  0.37735770477E+02  0.75497230970E+00 -0.25586324043E+02  0.45598446627E+02  0.00000000000E+00 0.  1.
<scales pt_clust_3="14000.00000" pt_clust_4="61.29571" pt_clust_5="92.65799" pt_clust_6="37.74332"></scales>
<clustering>
<clus scale="   37.743">  2  6  1 -1</clus>
<clus scale="   61.296">  1  4  2 -1</clus>
<clus scale="   92.658">  1  5  2 -1</clus>
<clus scale="   61.296">  1  3  2 -1</clus>
</clustering>
</event>
<event>
 6    0  0.8777103E+002  0.8715799E+02  0.7546771E-02  0.1309884E+00
         21   -1    0    0  505  501  0.00000000000E+00  0.00000000000E+00  0.19535809746E+03  0.19535809746E+03  0.00000000000E+00 0.  1.
         21   -1    0    0  506  502 -0.00000000000E+00 -0.00000000000E+00 -0.31733216711E+03  0.31733216711E+03  0.00000000000E+00 0.  1.
         21    1    1    2  503  502  0.35668719671E+01 -0.91746461331E+02 -0.59166830326E+02  0.10922842832E+03  0.00000000000E+00 0.  1.
         21    1    1    2  504  501  0.34738075216E+02  0.62001146810E+02  0.47111689975E+02  0.85266566764E+02  0.00000000000E+00 0.  1.
         21    1    1    2  505  503  0.25141087297E+02  0.25366675629E+02  0.96132589051E+02  0.10255250938E+03  0.00000000000E+00 0.  1.
         21    1    1    2  506  504 -0.63446034480E+02  0.43786388917E+01 -0.20605151835E+03  0.21564276010E+03  0.00000000000E+00 0.  1.
<scales pt_clust_3="14000.00000" pt_clust_4="87.15799" pt_clust_5="35.71474" pt_clust_6="62.44606"></scales>
<clustering>
<clus scale="   35.715">  1  5  2 -1</clus>
<clus scale="   62.446">  2  6  1 -1</clus>
<clus scale="   87.158">  1  4  2 -1</clus>
<clus scale="   35.715">  1  3  2 -1</clus>
</clustering>
</event>
<event>
 6    0  0.8777103E+002  0.8611465E+02  0.7546771E-02  0.1312543E+00
         21   -1    0    0  504  501  0.00000000000E+00  0.00000000000E+00  0.65572842584E+03  0.65572842584E+03  0.00000000000E+00 0. -1.
         21   -1    0    0  506  502 -0.00000000000E+00 -0.00000000000E+00 -0.15497590385E+03  0.15497590385E+03  0.00000000000E+00 0.  1.
         21    1    1    2  503  501  0.93957077265E+02 -0.41655148718E+02  0.51123479188E+03  0.52146341791E+03  0.00000000000E+00 0. -1.
         21    1    1    2  504  505 -0.63211777460E+02 -0.97037555307E+01  0.10276468604E+03  0.12103913573E+03  0.00000000000E+00 0. -1.
         21    1    1    2  505  502 -0.32148353721E+02 -0.14911503621E+02  0.17362319128E+01  0.35480756594E+02  0.00000000000E+00 0.  1.
         21    1    1    2  506  503  0.14030539159E+01  0.66270407870E+02 -0.11498318785E+03  0.13272101947E+03  0.00000000000E+00 0.  1.
<scales pt_clust_3="14000.00000" pt_clust_4="86.11465" pt_clust_5="35.43825" pt_clust_6="59.58564"></scales>
<clustering>
<clus scale="   35.438">  2  5  1 -1</clus>
<clus scale="   59.586">  2  6  1 -1</clus>
<clus scale="   86.115">  2  4  1 -1</clus>
<clus scale="   86.115">  1  3  2 -1</clus>
</clustering>
</event>
<event>
 6    0  0.8777103E+002  0.9754837E+02  0.7546771E-02  0.1285538E+00
         21   -1    0    0  504  501  0.00000000000E+00  0.00000000000E+00  0.38723623277E+02  0.38723623277E+02  0.00000000000E+00 0. -1.
         21   -1    0    0  505  502 -0.00000000000E+00 -0.00000000000E+00 -0.83588820245E+03  0.83588820245E+03  0.00000000000E+00 0.  1.
         21    1    1    2  503  506 -0.49986687599E+02 -0.74535687778E+02 -0.34004327154E+03  0.35168688376E+03  0.00000000000E+00 0.  1.
         21    1    1    2  504  503 -0.22694392972E+02  0.20127166093E+02 -0.39468275827E+02  0.49778339507E+02  0.00000000000E+00 0. -1.
         21    1    1    2  505  501  0.18136863198E+02  0.91778837728E+02 -0.63962581346E+02  0.11332922251E+03  0.00000000000E+00 0. -1.
         21    1    1    2  506  502  0.54544217373E+02 -0.37370316043E+02 -0.35369045046E+03  0.35981737995E+03  0.00000000000E+00 0.  1.
<scales pt_clust_3="97.54837" pt_clust_4="30.33378" pt_clust_5="14000.00000" pt_clust_6="63.37239"></scales>
<clustering>
<clus scale="   30.334">  1  4  2 -1</clus>
<clus scale="   63.372">  2  6  1 -1</clus>
<clus scale="   97.548">  2  3  1 -1</clus>
<clus scale="   30.334">  1  3  2 -1</clus>
</clustering>
</event>
<event>
 6    0  0.8777103E+002  0.1043589E+03  0.7546771E-02  0.1271388E+00
         21   -1    0    0  504  501  0.00000000000E+00  0.00000000000E+00  0.17968246800E+04  0.17968246800E+04  0.00000000000E+00 0.  1.
         21   -1    0    0  503  502 -0.00000000000E+00 -0.00000000000E+00 -0.13935541679E+03  0.13935541679E+03  0.00000000000E+00 0. -1.
         21    1    1    2  503  506  0.27231177421E+02  0.38727561430E+02 -0.82982636322E+02  0.95537840508E+02  0.00000000000E+00 0. -1.
         21    1    1    2  504  505 -0.38825119768E+02  0.23476709582E+02  0.15051188974E+04  0.15058025904E+04  0.00000000000E+00 0.  1.
         21    1    1    2  505  502  0.11173001383E+03  0.94923586829E+01  0.13832065949E+03  0.17806264546E+03  0.00000000000E+00 0. -1.
         21    1    1    2  506  501 -0.10013607149E+03 -0.71696629695E+02  0.97012342624E+02  0.15677702046E+03  0.00000000000E+00 0. -1.
<scales pt_clust_3="47.28569" pt_clust_4="45.37120" pt_clust_5="104.35892" pt_clust_6="14000.00000"></scales>
<clustering>
<clus scale="   45.371">  1  4  2 -1</clus>
<clus scale="   47.286">  2  3  1 -1</clus>
<clus scale="  104.359">  1  5  2 -1</clus>
<clus scale="   45.371">  1  3  2 -1</clus>
</clustering>
</event>
<event>
 6    0  0.8777103E+002  0.9012342E+02  0.7546771E-02  0.1302553E+00
         21   -1    0    0  503  501  0.00000000000E+00  0.00000000000E+00  0.60292810021E+02  0.60292810021E+02  0.00000000000E+00 0. -1.
         21   -1    0    0  505  502 -0.00000000000E+00 -0.00000000000E+00 -0.79436495289E+03  0.79436495289E+03  0.00000000000E+00 0. -1.
         21    1    1    2  503  504  0.35418334481E+02  0.27754062407E+02  0.10371310963E+02  0.46176947589E+02  0.00000000000E+00 0. -1.
         21    1    1    2  504  502 -0.91083204874E+02  0.30032614059E+02 -0.90202497995E+02  0.13166092344E+03  0.00000000000E+00 0. -1.
         21    1    1    2  505  506 -0.94195603717E+01  0.48050206344E+02 -0.19780236104E+03  0.20377272752E+03  0.00000000000E+00 0. -1.
         21    1    1    2  506  501  0.65084430764E+02 -0.10583688281E+03 -0.45643859480E+03  0.47304716437E+03  0.00000000000E+00 0. -1.
<scales pt_clust_3="44.99718" pt_clust_4="14000.00000" pt_clust_5="51.00596" pt_clust_6="90.12342"></scales>
<clustering>
<clus scale="   44.997">  1  3  2 -1</clus>
<clus scale="   51.006">  2  5  1 -1</clus>
<clus scale="   90.123">  2  6  1 -1</clus>
<clus scale="   44.997">  1  3  2 -1</clus>
</clustering>
</event>
<event>
 6    0  0.8777103E+002  0.3250933E+03  0.7546771E-02  0.1073329E+00
         21   -1    0    0  502  501  0.00000000000E+00  0.00000000000E+00  0.81068917021E+03  0.81068917021E+03  0.00000000000E+00 0. -1.
         21   -1    0    0  504  502 -0.00000000000E+00 -0.00000000000E+00 -0.95725865647E+03  0.95725865647E+03  0.00000000000E+00 0. -1.
         21    1    1    2  503  501 -0.31912069870E+03 -0.56686579644E+02  0.49226892898E+03  0.58938958855E+03  0.00000000000E+00 0. -1.
         21    1    1    2  504  506 -0.16792753524E+02 -0.36991617159E+02 -0.70040071462E+03  0.70157789115E+03  0.00000000000E+00 0. -1.
         21    1    1    2  505  503  0.30654519911E+03  0.12980642169E+03  0.15905405105E+03  0.36894153651E+03  0.00000000000E+00 0. -1.
         21    1    1    2  506  505  0.29368253114E+02 -0.36128224885E+02 -0.97491751670E+02  0.10803881047E+03  0.00000000000E+00 0. -1.
<scales pt_clust_3="325.09331" pt_clust_4="40.62482" pt_clust_5="14000.00000" pt_clust_6="55.76236"></scales>
<clustering>
<clus scale="   40.625">  2  4  1 -1</clus>
<clus scale="   55.762">  2  6  1 -1</clus>
<clus scale="  325.093">  1  3  2 -1</clus>
<clus scale="  325.093">  1  3  2 -1</clus>
</clustering>
</event>
<event>
 6    0  0.8777103E+002  0.1013913E+03  0.7546771E-02  0.1277397E+00
         21   -1    0    0  505  501  0.00000000000E+00  0.00000000000E+00  0.28619013184E+03  0.28619013184E+03  0.00000000000E+00 0.  1.
         21   -1    0    0  506  502 -0.00000000000E+00 -0.00000000000E+00 -0.21032476027E+03  0.21032476027E+03  0.00000000000E+00 0.  1.
         21    1    1    2  503  504 -0.21067871610E+01 -0.56198639248E+02  0.10703882089E+02  0.57247695999E+02  0.00000000000E+00 0.  1.
         21    1    1    2  504  501 -0.57348568046E+01 -0.59085317281E+02  0.56412248674E+02  0.81892033198E+02  0.00000000000E+00 0.  1.
         21    1    1    2  505  502  0.72660006805E+02  0.61123322540E+02  0.15889352314E+03  0.18510183371E+03  0.00000000000E+00 0.  1.
         21    1    1    2  506  503 -0.64818362840E+02  0.54160633989E+02 -0.15014428234E+03  0.17227332920E+03  0.00000000000E+00 0.  1.
<scales pt_clust_3="37.73947" pt_clust_4="37.73947" pt_clust_5="93.68448" pt_clust_6="84.46771"></scales>
<clustering>
<clus scale="   37.739">  3  4 -1 -1</clus>
<clus scale="   84.468">  2  6  1 -1</clus>
<clus scale="   93.684">  1  5  2 -1</clus>
<clus scale="   93.684">  1  3  2 -1</clus>
</clustering>
</event>
<event>
 6    0  0.8777103E+002  0.1062721E+03  0.7546771E-02  0.1267633E+00
         21   -1    0    0  505  501  0.00000000000E+00  0.00000000000E+00  0.22472436127E+03  0.22472436127E+03  0.00000000000E+00 0. -1.
         21   -1    0    0  504  502 -0.00000000000E+00 -0.00000000000E+00 -0.42411796316E+03  0.42411796316E+03  0.00000000000E+00 0. -1.
         21    1    1    2  503  502  0.29570524695E+02 -0.36191966052E+02 -0.14492267921E+03  0.15227231294E+03  0.00000000000E+00 0. -1.
         21    1    1    2  504  501  0.49275002260E+02  0.12950447011E+03  0.16118702399E+03  0.21255749888E+03  0.00000000000E+00 0. -1.
         21    1    1    2  505  506  0.59800553182E+01 -0.39088246580E+02  0.65311984712E+01  0.40078780368E+02  0.00000000000E+00 0. -1.
         21    1    1    2  506  503 -0.84825582273E+02 -0.54224257480E+02 -0.22218914514E+03  0.24393373224E+03  0.00000000000E+00 0. -1.
<scales pt_clust_3="47.35893" pt_clust_4="106.27210" pt_clust_5="39.54304" pt_clust_6="14000.00000"></scales>
<clustering>
<clus scale="   39.543">  1  5  2 -1</clus>
<clus scale="   47.359">  2  3  1 -1</clus>
<clus scale="  106.272">  1  4  2 -1</clus>
<clus scale="   39.543">  1  3  2 -1</clus>
</clustering>
</event>
<event>
 6    0  0.8777103E+002  0.7153739E+02  0.7546771E-02  0.1354942E+00
         21   -1    0    0  503  501  0.00000000000E+00  0.00000000000E+00  0.50280362758E+03  0.50280362758E+03  0.00000000000E+00 0. -1.
         21   -1    0    0  504  502 -0.00000000000E+00 -0.00000000000E+00 -0.83796853687E+03  0.83796853687E+03  0.00000000000E+00 0. -1.
         21    1    1    2  503  502 -0.76052103193E+02 -0.43436297171E+02 -0.47420632913E+03  0.48222637516E+03  0.00000000000E+00 0. -1.
         21    1    1    2  504  505  0.26321469515E+02  0.57026699224E+02 -0.27876956406E+03  0.28575747414E+03  0.00000000000E+00 0.  1.
         21    1    1    2  505  506  0.33546258677E+02  0.56953117195E+02 -0.60155014049E+02  0.89373568490E+02  0.00000000000E+00 0. -1.
         21    1    1    2  506  501  0.16184375001E+02 -0.70543519249E+02  0.47796599794E+03  0.48341474666E+03  0.00000000000E+00 0. -1.
<scales pt_clust_3="53.69781" pt_clust_4="62.80815" pt_clust_5="14000.00000" pt_clust_6="71.53739"></scales>
<clustering>
<clus scale="   62.808">  2  4  1 -1</clus>
<clus scale="   53.698">  2  3  1 -1</clus>
<clus scale="   71.537">  1  6  2 -1</clus>
<clus scale="   71.537">  1  3  2 -1</clus>
</clustering>
</event>
<event>
 6    0  0.8777103E+002  0.1662238E+03  0.7546771E-02  0.1181844E+00
         21   -1    0    0  503  501  0.00000000000E+00  0.00000000000E+00  0.12645843229E+04  0.12645843229E+04  0.00000000000E+00 0.  1.
         21   -1    0    0  506  502 -0.00000000000E+00 -0.00000000000E+00 -0.15436789755E+04  0.15436789755E+04  0.00000000000E+00 0.  1.
         21    1    1    2  503  502 -0.31242230677E+02 -0.42945704593E+01 -0.13774371498E+04  0.13777981063E+04  0.00000000000E+00 0.  1.
         21    1    1    2  504  501  0.57094743526E+02 -0.46470125075E+02  0.10869713391E+04  0.10894613230E+04  0.00000000000E+00 0.  1.
         21    1    1    2  505  504  0.41185317534E+02  0.18442647028E+03  0.26040492033E+02  0.19075497516E+03  0.00000000000E+00 0.  1.
         21    1    1    2  506  505 -0.67037830383E+02 -0.13366177475E+03 -0.14669334003E+02  0.15024889381E+03  0.00000000000E+00 0.  1.
<scales pt_clust_3="31.53602" pt_clust_4="73.45464" pt_clust_5="14000.00000" pt_clust_6="166.22383"></scales>
<clustering>
<clus scale="   31.536">  2  3  1 -1</clus>
<clus scale="   73.455">  1  4  2 -1</clus>
<clus scale="  166.224">  2  6  1 -1</clus>
<clus scale="   73.455">  1  3  2 -1</clus>
</clustering>
</event>
<event>
 6    0  0.8777103E+002  0.1600134E+03  0.7546771E-02  0.1188682E+00
         21   -1    0    0  505  501  0.00000000000E+00  0.00000000000E+00  0.91221393007E+03  0.91221393007E+03  0.00000000000E+00 0.  1.
         21   -1    0    0  504  502 -0.00000000000E+00 -0.00000000000E+00 -0.13077063643E+03  0.13077063643E+03  0.00000000000E+00 0. -1.
         21    1    1    2  503  502  0.32004380034E+02 -0.12334295089E+03  0.49953502964E+03  0.51553177372E+03  0.00000000000E+00 0.  1.
         21    1    1    2  504  506  0.53068979632E+02  0.37731095333E+02 -0.12799735335E+02  0.66361023040E+02  0.00000000000E+00 0. -1.
         21    1    1    2  505  503 -0.56854898330E+02 -0.51590291316E+02  0.31075838687E+03  0.32010125372E+03  0.00000000000E+00 0.  1.
         21    1    1    2  506  501 -0.28218461336E+02  0.13720214688E+03 -0.16050387533E+02  0.14099051602E+03  0.00000000000E+00 0. -1.
<scales pt_clust_3="14000.00000" pt_clust_4="65.11491" pt_clust_5="73.46156" pt_clust_6="160.01342"></scales>
<clustering>
<clus scale="   65.115">  2  4  1 -1</clus>
<clus scale="   73.462">  1  5  2 -1</clus>
<clus scale="  160.013">  2  6  1 -1</clus>
<clus scale="   73.462">  1  3  2 -1</clus>
</clustering>
</event>
<event>
 6    0  0.8777103E+002  0.1741893E+03  0.7546771E-02  0.1173548E+00
         21   -1    0    0  505  501  0.00000000000E+00  0.00000000000E+00  0.13001357726E+04  0.13001357726E+04  0.00000000000E+00 0.  1.
         21   -1    0    0  506  502 -0.00000000000E+00 -0.00000000000E+00 -0.23159293915E+04  0.23159293915E+04  0.00000000000E+00 0. -1.
         21    1    1    2  503  504  0.10451073019E+03 -0.11085847905E+03  0.27734996544E+03  0.31644130330E+03  0.00000000000E+00 0.  1.
         21    1    1    2  504  501 -0.37368116748E+02  0.20554599864E+03  0.94613591831E+03  0.96892657597E+03  0.00000000000E+00 0.  1.
         21    1    1    2  505  502 -0.24875122814E+02 -0.26177435246E+02  0.37752651976E+02  0.52242631846E+02  0.00000000000E+00 0. -1.
         21    1    1    2  506  503 -0.42267490630E+02 -0.68510084345E+02 -0.22770321547E+04  0.22784546530E+04  0.00000000000E+00 0. -1.
<scales pt_clust_3="174.18926" pt_clust_4="14000.00000" pt_clust_5="36.11135" pt_clust_6="80.51954"></scales>
<clustering>
<clus scale="   36.111">  1  5  2 -1</clus>
<clus scale="   80.520">  2  6  1 -1</clus>
<clus scale="  174.189">  2  3  1 -1</clus>
<clus scale="   36.111">  1  3  2 -1</clus>
</clustering>
</event>
<event>
 6    0  0.8777103E+002  0.7530603E+02  0.7546771E-02  0.1342926E+00
         21   -1    0    0  504  501  0.00000000000E+00  0.00000000000E+00  0.56116369291E+03  0.56116369291E+03  0.00000000000E+00 0. -1.
         21   -1    0    0  505  502 -0.00000000000E+00 -0.00000000000E+00 -0.82429460847E+03  0.82429460847E+03  0.00000000000E+00 0. -1.
         21    1    1    2  503  501 -0.58418388454E+01 -0.58602815364E+02  0.42047456222E+03  0.42457893792E+03  0.00000000000E+00 0. -1.
         21    1    1    2  504  506 -0.37382271029E+02  0.21647438565E+02  0.53274270378E+02  0.68587124652E+02  0.00000000000E+00 0. -1.
         21    1    1    2  505  503 -0.84877637636E+00  0.97871329247E+02  0.44348823781E+02  0.10745387699E+03  0.00000000000E+00 0. -1.
         21    1    1    2  506  502  0.44072886251E+02 -0.60915952448E+02 -0.78122857194E+03  0.78483836181E+03  0.00000000000E+00 0. -1.
<scales pt_clust_3="55.00537" pt_clust_4="43.19775" pt_clust_5="75.30603" pt_clust_6="14000.00000"></scales>
<clustering>
<clus scale="   43.198">  1  4  2 -1</clus>
<clus scale="   55.005">  1  3  2 -1</clus>
<clus scale="   75.306">  1  5  2 -1</clus>
<clus scale="   43.198">  1  3  2 -1</clus>
</clustering>
</event>
<event>
 6    0  0.8777103E+002  0.8802639E+02  0.7546771E-02  0.1307703E+00
         21   -1    0    0  503  501  0.00000000000E+00  0.00000000000E+00  0.12743852970E+03  0.12743852970E+03  0.00000000000E+00 0.  1.
         21   -1    0    0  504  502 -0.00000000000E+00 -0.00000000000E+00 -0.37166393328E+03  0.37166393328E+03  0.00000000000E+00 0.  1.
         21    1    1    2  503  505  0.39609562192E+02 -0.76788360301E+02  0.70616300168E+02  0.11158867122E+03  0.00000000000E+00 0.  1.
         21    1    1    2  504  501 -0.65331666058E+02  0.78644405225E+02 -0.13610288885E+03  0.17022680581E+03  0.00000000000E+00 0.  1.
         21    1    1    2  505  506  0.20800497636E+02 -0.44828864524E+02 -0.20949342595E+02  0.53676463665E+02  0.00000000000E+00 0.  1.
         21    1    1    2  506  502  0.49216062301E+01  0.42972819599E+02 -0.15778947230E+03  0.16361052228E+03  0.00000000000E+00 0.  1.
<scales pt_clust_3="88.02639" pt_clust_4="14000.00000" pt_clust_5="43.07643" pt_clust_6="43.25373"></scales>
<clustering>
<clus scale="   43.254">  2  6  1 -1</clus>
<clus scale="   43.076">  2  5  1 -1</clus>
<clus scale="   88.026">  1  3  2 -1</clus>
<clus scale="   88.026">  1  3  2 -1</clus>
</clustering>
</event>
<event>
 6    0  0.8777103E+002  0.8026070E+02  0.7546771E-02  0.1328313E+00
         21   -1    0    0  506  501  0.00000000000E+00  0.00000000000E+00  0.50107357258E+02  0.50107357258E+02  0.00000000000E+00 0.  1.
         21   -1    0    0  503  502 -0.00000000000E+00 -0.00000000000E+00 -0.15901687875E+04  0.15901687875E+04  0.00000000000E+00 0.  1.
         21    1    1    2  503  504 -0.10854275213E+03 -0.10808264334E+02 -0.71026162086E+03  0.71858883771E+03  0.00000000000E+00 0.  1.
         21    1    1    2  504  501  0.31313691621E+02  0.10184344955E+02  0.30230597422E+02  0.44700751510E+02  0.00000000000E+00 0.  1.
         21    1    1    2  505  502  0.34866217282E+02 -0.41800289825E+02 -0.74752024894E+03  0.74949945958E+03  0.00000000000E+00 0.  1.
         21    1    1    2  506  505  0.42362843231E+02  0.42424209205E+02 -0.11251015790E+03  0.12748709599E+03  0.00000000000E+00 0.  1.
<scales pt_clust_3="14000.00000" pt_clust_4="32.92823" pt_clust_5="55.44227" pt_clust_6="80.26070"></scales>
<clustering>
<clus scale="   32.928">  1  4  2 -1</clus>
<clus scale="   55.442">  2  5  1 -1</clus>
<clus scale="   80.261">  1  6  2 -1</clus>
<clus scale="   32.928">  1  3  2 -1</clus>
</clustering>
</event>
<event>
 6    0  0.1212907E+003  0.1030502E+03  0.7546771E-02  0.1274009E+00
         21   -1    0    0  505  501  0.00000000000E+00  0.00000000000E+00  0.20330838160E+03  0.20330838160E+03  0.00000000000E+00 0.  1.
         21   -1    0    0  503  502 -0.00000000000E+00 -0.00000000000E+00 -0.10089077312E+04  0.10089077312E+04  0.00000000000E+00 0. -1.
         21    1    1    2  503  501 -0.18384454606E+02 -0.29320032027E+02 -0.12921762498E+03  0.13377162275E+03  0.00000000000E+00 0. -1.
         21    1    1    2  504  502  0.67340472396E+02 -0.73260798576E+02 -0.83413879763E+03  0.84005322304E+03  0.00000000000E+00 0. -1.
         21    1    1    2  505  506 -0.41404687744E+02  0.40143423560E+02  0.16527831509E+03  0.17505074711E+03  0.00000000000E+00 0.  1.
         21    1    1    2  506  504 -0.75513300463E+01  0.62437407043E+02 -0.75212421286E+01  0.63340519945E+02  0.00000000000E+00 0.  1.
<scales pt_clust_3="34.60712" pt_clust_4="14000.00000" pt_clust_5="57.63028" pt_clust_6="103.05023"></scales>
<clustering>
<clus scale="   34.607">  2  3  1 -1</clus>
<clus scale="   57.630">  1  5  2 -1</clus>
<clus scale="  103.050">  1  6  2 -1</clus>
<clus scale="   57.630">  1  3  2 -1</clus>
</clustering>
</event>
<event>
 6    0  0.8777103E+002  0.8134126E+02  0.7546771E-02  0.1325288E+00
         21   -1    0    0  506  501  0.00000000000E+00  0.00000000000E+00  0.12166235264E+03  0.12166235264E+03  0.00000000000E+00 0.  1.
         21   -1    0    0  503  502 -0.00000000000E+00 -0.00000000000E+00 -0.60250614937E+03  0.60250614937E+03  0.00000000000E+00 0. -1.
         21    1    1    2  503  505  0.13342468492E+02  0.80330446390E+02 -0.40918246572E+03  0.41720653439E+03  0.00000000000E+00 0. -1.
         21    1    1    2  504  502  0.40705730437E+02 -0.86109507491E+02 -0.65552921058E+02  0.11562434532E+03  0.00000000000E+00 0. -1.
         21    1    1    2  505  501  0.13095481195E+02  0.56805133010E+02  0.60393885469E+02  0.83938883517E+02  0.00000000000E+00 0.  1.
         21    1    1    2  506  504 -0.67143680124E+02 -0.51026071910E+02 -0.66502295418E+02  0.10739873878E+03  0.00000000000E+00 0. -1.
<scales pt_clust_3="14000.00000" pt_clust_4="81.34126" pt_clust_5="58.29507" pt_clust_6="67.60538"></scales>
<clustering>
<clus scale="   58.295">  1  5  2 -1</clus>
<clus scale="   67.605">  1  6  2 -1</clus>
<clus scale="   81.341">  1  4  2 -1</clus>
<clus scale="   58.295">  1  3  2 -1</clus>
</clustering>
</event>
<event>
 6    0  0.8777103E+002  0.1260624E+03  0.7546771E-02  0.1233418E+00
         21   -1    0    0  504  501  0.00000000000E+00  0.00000000000E+00  0.16687246940E+03  0.16687246940E+03  0.00000000000E+00 0. -1.
         21   -1    0    0  506  502 -0.00000000000E+00 -0.00000000000E+00 -0.41058626115E+03  0.41058626115E+03  0.00000000000E+00 0. -1.
         21    1    1    2  503  505  0.51720886180E+02  0.14972037826E+02  0.66992908525E+02  0.85949181361E+02  0.00000000000E+00 0. -1.
         21    1    1    2  504  502 -0.87280736273E+02  0.20695780154E+01 -0.63195701538E+02  0.10777711617E+03  0.00000000000E+00 0. -1.
         21    1    1    2  505  501  0.69509286977E+02 -0.33375044097E+02  0.44684169223E+02  0.89118513922E+02  0.00000000000E+00 0. -1.
         21    1    1    2  506  503 -0.33949436884E+02  0.16333428256E+02 -0.29219516796E+03  0.29461391909E+03  0.00000000000E+00 0. -1.
<scales pt_clust_3="48.14110" pt_clust_4="112.91693" pt_clust_5="48.14110" pt_clust_6="37.67420"></scales>
<clustering>
<clus scale="   37.674">  2  6  1 -1</clus>
<clus scale="   48.141">  3  5 -1 -1</clus>
<clus scale="  112.917">  2  4  1 -1</clus>
<clus scale="  126.062">  1  3  2 -1</clus>
</clustering>
</event>
<event>
 6    0  0.8777103E+002  0.2137134E+03  0.7546771E-02  0.1138659E+00
         21   -1    0    0  505  501  0.00000000000E+00  0.00000000000E+00  0.70990290869E+03  0.70990290869E+03  0.00000000000E+00 0. -1.
         21   -1    0    0  501  502 -0.00000000000E+00 -0.00000000000E+00 -0.44118911551E+03  0.44118911551E+03  0.00000000000E+00 0.  1.
         21    1    1    2  503  502  0.71223321488E+02  0.23910557875E+03 -0.32567989245E+03  0.41025800621E+03  0.00000000000E+00 0.  1.
         21    1    1    2  504  503 -0.72024716895E+02 -0.11320943770E+03  0.53466115604E+02  0.14443878338E+03  0.00000000000E+00 0.  1.
         21    1    1    2  505  506 -0.74386380215E+02 -0.24744445961E+02  0.39880988277E+03  0.40644180858E+03  0.00000000000E+00 0. -1.
         21    1    1    2  506  504  0.75187775623E+02 -0.10115169509E+03  0.14211768726E+03  0.18995342602E+03  0.00000000000E+00 0. -1.
<scales pt_clust_3="14000.00000" pt_clust_4="213.71340" pt_clust_5="78.39401" pt_clust_6="119.74926"></scales>
<clustering>
<clus scale="   78.394">  1  5  2 -1</clus>
<clus scale="  119.749">  1  6  2 -1</clus>
<clus scale="  213.713">  1  4  2 -1</clus>
<clus scale="   78.394">  1  3  2 -1</clus>
</clustering>
</event>
<event>
 6    0  0.8777103E+002  0.1754382E+03  0.7546771E-02  0.1172292E+00
         21   -1    0    0  504  501  0.00000000000E+00  0.00000000000E+00  0.28251346835E+03  0.28251346835E+03  0.00000000000E+00 0.  1.
         21   -1    0    0  505  502 -0.00000000000E+00 -0.00000000000E+00 -0.26188502953E+03  0.26188502953E+03  0.00000000000E+00 0. -1.
         21    1    1    2  503  506  0.46978289616E+02 -0.27287877853E+02  0.35326145919E+02  0.64803738769E+02  0.00000000000E+00 0.  1.
         21    1    1    2  504  502 -0.15303389312E+03  0.62274062431E+02 -0.13314978040E+03  0.21219400396E+03  0.00000000000E+00 0. -1.
         21    1    1    2  505  503  0.21255049692E+02  0.47686633661E+02 -0.42675028857E+02  0.67431077815E+02  0.00000000000E+00 0.  1.
         21    1    1    2  506  501  0.84800553810E+02 -0.82672818239E+02  0.16112710217E+03  0.19996967734E+03  0.00000000000E+00 0.  1.
<scales pt_clust_3="30.69645" pt_clust_4="169.48306" pt_clust_5="52.20912" pt_clust_6="30.69645"></scales>
<clustering>
<clus scale="   30.696">  3  6 -1 -1</clus>
<clus scale="   52.209">  2  5  1 -1</clus>
<clus scale="  169.483">  2  4  1 -1</clus>
<clus scale="  175.438">  1  3  2 -1</clus>
</clustering>
</event>
<event>
 6    0  0.8777103E+002  0.9473171E+02  0.7546771E-02  0.1291781E+00
         21   -1    0    0  505  501  0.00000000000E+00  0.00000000000E+00  0.75328789688E+03  0.75328789688E+03  0.00000000000E+00 0. -1.
         21   -1    0    0  506  502 -0.00000000000E+00 -0.00000000000E+00 -0.22363925174E+03  0.22363925174E+03  0.00000000000E+00 0.  1.
         21    1    1    2  503  502  0.11272355235E+02  0.33556676434E+02 -0.13146025701E+03  0.13614299724E+03  0.00000000000E+00 0.  1.
         21    1    1    2  504  503 -0.12928325157E+02  0.41381450370E+02 -0.46030953883E+02  0.63233019392E+02  0.00000000000E+00 0. -1.
         21    1    1    2  505  504  0.82294353662E+02  0.39653139984E+02  0.58372499293E+03  0.59082958586E+03  0.00000000000E+00 0. -1.
         21    1    1    2  506  501 -0.80638383739E+02 -0.11459126679E+03  0.12341486310E+03  0.18672154613E+03  0.00000000000E+00 0. -1.
<scales pt_clust_3="35.39939" pt_clust_4="62.08568" pt_clust_5="14000.00000" pt_clust_6="94.73171"></scales>
<clustering>
<clus scale="   35.399">  2  3  1 -1</clus>
<clus scale="   62.086">  2  4  1 -1</clus>
<clus scale="   94.732">  2  6  1 -1</clus>
<clus scale="   94.732">  1  3  2 -1</clus>
</clustering>
</event>
<event>
 6    0  0.8777103E+002  0.2044738E+03  0.7546771E-02  0.1146018E+00
         21   -1    0    0  505  501  0.00000000000E+00  0.00000000000E+00  0.41963612176E+03  0.41963612176E+03  0.00000000000E+00 0. -1.
         21   -1    0    0  503  502 -0.00000000000E+00 -0.00000000000E+00 -0.52731947853E+03  0.52731947853E+03  0.00000000000E+00 0.  1.
         21    1    1    2  503  501 -0.15372616603E+03 -0.12021699502E+03  0.67278477015E+02  0.20642251206E+03  0.00000000000E+00 0. -1.
         21    1    1    2  504  506  0.59307551806E+02  0.18901126526E+03 -0.25662238589E+03  0.32418774350E+03  0.00000000000E+00 0.  1.
         21    1    1    2  505  504 -0.17777064872E+02 -0.24701704033E+02  0.22614055611E+03  0.22817920443E+03  0.00000000000E+00 0. -1.
         21    1    1    2  506  502  0.11219567910E+03 -0.44092566205E+02 -0.14448000400E+03  0.18816614031E+03  0.00000000000E+00 0.  1.
<scales pt_clust_3="14000.00000" pt_clust_4="204.47376" pt_clust_5="30.43350" pt_clust_6="119.74334"></scales>
<clustering>
<clus scale="   30.434">  1  5  2 -1</clus>
<clus scale="  119.743">  2  6  1 -1</clus>
<clus scale="  204.474">  2  4  1 -1</clus>
<clus scale="   30.434">  1  3  2 -1</clus>
</clustering>
</event>
<event>
 6    0  0.8777103E+002  0.1695396E+03  0.7546771E-02  0.1178329E+00
         21   -1    0    0  503  501  0.00000000000E+00  0.00000000000E+00  0.39134171533E+03  0.39134171533E+03  0.00000000000E+00 0.  1.
         21   -1    0    0  504  502 -0.00000000000E+00 -0.00000000000E+00 -0.36156497334E+03  0.36156497334E+03  0.00000000000E+00 0.  1.
         21    1    1    2  503  506 -0.54225591300E+02  0.36691300675E+01  0.23472255536E+03  0.24093267786E+03  0.00000000000E+00 0.  1.
         21    1    1    2  504  505 -0.51003311361E+00 -0.32123951544E+02 -0.99606726802E+02  0.10465996570E+03  0.00000000000E+00 0.  1.
         21    1    1    2  505  501  0.16955994501E+03 -0.43795743050E+02 -0.18110397068E+03  0.25192715268E+03  0.00000000000E+00 0.  1.
         21    1    1    2  506  502 -0.11482432060E+03  0.72250564527E+02  0.75764884109E+02  0.15538689243E+03  0.00000000000E+00 0.  1.
<scales pt_clust_3="54.33108" pt_clust_4="32.12800" pt_clust_5="169.53961" pt_clust_6="14000.00000"></scales>
<clustering>
<clus scale="   32.128">  2  4  1 -1</clus>
<clus scale="   54.331">  1  3  2 -1</clus>
<clus scale="  169.540">  2  5  1 -1</clus>
<clus scale="   54.331">  1  3  2 -1</clus>
</clustering>
</event>
<event>
 6    0  0.8777103E+002  0.9826000E+02  0.7546771E-02  0.1283998E+00
         21   -1    0    0  504  501  0.00000000000E+00  0.00000000000E+00  0.53454797765E+03  0.53454797765E+03  0.00000000000E+00 0.  1.
         21   -1    0    0  505  502 -0.00000000000E+00 -0.00000000000E+00 -0.29651204206E+04  0.29651204206E+04  0.00000000000E+00 0. -1.
         21    1    1    2  503  502  0.12423804781E+03 -0.64029555234E+02 -0.11546589195E+03  0.18129326703E+03  0.00000000000E+00 0. -1.
         21    1    1    2  504  503 -0.40107435507E+02  0.22295841804E+01  0.49835767737E+03  0.49997395135E+03  0.00000000000E+00 0.  1.
         21    1    1    2  505  506 -0.30975188415E+02  0.35601817364E+02 -0.24235421621E+04  0.24240015601E+04  0.00000000000E+00 0. -1.
         21    1    1    2  506  501 -0.53155423891E+02  0.26198153689E+02 -0.38992206629E+03  0.39439961984E+03  0.00000000000E+00 0. -1.
<scales pt_clust_3="14000.00000" pt_clust_4="40.16936" pt_clust_5="47.37278" pt_clust_6="98.26000"></scales>
<clustering>
<clus scale="   40.169">  1  4  2 -1</clus>
<clus scale="   47.373">  2  5  1 -1</clus>
<clus scale="   98.260">  2  6  1 -1</clus>
<clus scale="   40.169">  1  3  2 -1</clus>
</clustering>
</event>
<event>
 6    0  0.8777103E+002  0.7344871E+02  0.7546771E-02  0.1348743E+00
         21   -1    0    0  503  501  0.00000000000E+00  0.00000000000E+00  0.94382231650E+03  0.94382231650E+03  0.00000000000E+00 0. -1.
         21   -1    0    0  505  502 -0.00000000000E+00 -0.00000000000E+00 -0.73420610163E+03  0.73420610163E+03  0.00000000000E+00 0. -1.
         21    1    1    2  503  504 -0.25631900043E+02 -0.29207906887E+02  0.55241540116E+03  0.55378052653E+03  0.00000000000E+00 0. -1.
         21    1    1    2  504  506  0.56476093909E+02  0.21828996492E+02  0.36781880753E+03  0.37276900280E+03  0.00000000000E+00 0. -1.
         21    1    1    2  505  501 -0.10018098756E+03 -0.51887203074E+01 -0.11883379933E+03  0.15551406673E+03  0.00000000000E+00 0. -1.
         21    1    1    2  506  502  0.69336793697E+02  0.12567630702E+02 -0.59178419449E+03  0.59596482208E+03  0.00000000000E+00 0. -1.
<scales pt_clust_3="38.85996" pt_clust_4="32.71209" pt_clust_5="73.44871" pt_clust_6="14000.00000"></scales>
<clustering>
<clus scale="   38.860">  1  3  2 -1</clus>
<clus scale="   32.712">  1  4  2 -1</clus>
<clus scale="   73.449">  1  5  2 -1</clus>
<clus scale="   38.860">  1  3  2 -1</clus>
</clustering>
</event>
<event>
 6    0  0.8777103E+002  0.1141200E+03  0.7546771E-02  0.1253125E+00
         21   -1    0    0  503  501  0.00000000000E+00  0.00000000000E+00  0.20682726717E+04  0.20682726717E+04  0.00000000000E+00 0. -1.
         21   -1    0    0  506  502 -0.00000000000E+00 -0.00000000000E+00 -0.42518042772E+02  0.42518042772E+02  0.00000000000E+00 0.  1.
         21    1    1    2  503  504  0.12184492657E+02  0.78019594908E+02  0.28824791675E+03  0.29886850045E+03  0.00000000000E+00 0. -1.
         21    1    1    2  504  505  0.85473380493E+01  0.64533861693E+02  0.87404202367E+02  0.10898243383E+03  0.00000000000E+00 0. -1.
         21    1    1    2  505  502 -0.29635643031E+02 -0.10621705794E+02 -0.13382134340E+02  0.34207798691E+02  0.00000000000E+00 0.  1.
         21    1    1    2  506  501  0.89038123241E+01 -0.13193175081E+03  0.16634846442E+04  0.16687319815E+04  0.00000000000E+00 0. -1.
<scales pt_clust_3="114.11995" pt_clust_4="59.03268" pt_clust_5="31.48161" pt_clust_6="14000.00000"></scales>
<clustering>
<clus scale="   31.482">  2  5  1 -1</clus>
<clus scale="   59.033">  2  4  1 -1</clus>
<clus scale="  114.120">  2  3  1 -1</clus>
<clus scale="  114.120">  1  3  2 -1</clus>
</clustering>
</event>
<event>
 6    0  0.8777103E+002  0.1685903E+03  0.7546771E-02  0.1179326E+00
         21   -1    0    0  506  501  0.00000000000E+00  0.00000000000E+00  0.69831437865E+03  0.69831437865E+03  0.00000000000E+00 0.  1.
         21   -1    0    0  504  502 -0.00000000000E+00 -0.00000000000E+00 -0.10365804973E+03  0.10365804973E+03  0.00000000000E+00 0.  1.
         21    1    1    2  503  501 -0.98901728094E+02  0.94154826224E+02  0.35752974985E+03  0.38271948624E+03  0.00000000000E+00 0.  1.
         21    1    1    2  504  503 -0.65730239086E+02  0.73042782872E+02  0.44524220675E+02  0.10788011256E+03  0.00000000000E+00 0.  1.
         21    1    1    2  505  502  0.66453734194E+02 -0.23284629873E+02  0.57672278728E+02  0.91018484443E+02  0.00000000000E+00 0.  1.
         21    1    1    2  506  505  0.98178232986E+02 -0.14391297922E+03  0.13493007966E+03  0.22035434513E+03  0.00000000000E+00 0.  1.
<scales pt_clust_3="153.70119" pt_clust_4="98.26348" pt_clust_5="44.04053" pt_clust_6="44.04053"></scales>
<clustering>
<clus scale="   44.041">  5  6 -1 -1</clus>
<clus scale="   98.263">  2  4  1 -1</clus>
<clus scale="  153.701">  1  3  2 -1</clus>
<clus scale="  153.701">  1  3  2 -1</clus>
</clustering>
</event>
<event>
 6    0  0.8777103E+002  0.1960894E+03  0.7546771E-02  0.1153081E+00
         21   -1    0    0  506  501  0.00000000000E+00  0.00000000000E+00  0.13866297642E+03  0.13866297642E+03  0.00000000000E+00 0.  1.
         21   -1    0    0  503  502 -0.00000000000E+00 -0.00000000000E+00 -0.78856676305E+03  0.78856676305E+03  0.00000000000E+00 0. -1.
         21    1    1    2  503  501  0.19162795798E+03 -0.13533708160E+03 -0.48448960572E+03  0.53830063903E+03  0.00000000000E+00 0. -1.
         21    1    1    2  504  502 -0.10010524090E+03  0.12577721971E+03 -0.20852994772E+03  0.26329775417E+03  0.00000000000E+00 0. -1.
         21    1    1    2  505  504 -0.53326848576E+02  0.36507665322E+02  0.41222204981E+01  0.64757664475E+02  0.00000000000E+00 0.  1.
         21    1    1    2  506  505 -0.38195868499E+02 -0.26947803432E+02  0.38993546320E+02  0.60873681791E+02  0.00000000000E+00 0. -1.
<scales pt_clust_3="196.08935" pt_clust_4="14000.00000" pt_clust_5="72.96060" pt_clust_6="46.74514"></scales>
<clustering>
<clus scale="   46.745">  1  6  2 -1</clus>
<clus scale="   72.961">  1  5  2 -1</clus>
<clus scale="  196.089">  2  3  1 -1</clus>
<clus scale="   46.745">  1  3  2 -1</clus>
</clustering>
</event>
<event>
 6    0  0.8777103E+002  0.1162444E+03  0.7546771E-02  0.1249424E+00
         21   -1    0    0  502  501  0.00000000000E+00  0.00000000000E+00  0.24341073270E+02  0.24341073270E+02  0.00000000000E+00 0.  1.
         21   -1    0    0  504  502 -0.00000000000E+00 -0.00000000000E+00 -0.11035532698E+04  0.11035532698E+04  0.00000000000E+00 0.  1.
         21    1    1    2  503  506 -0.98306800072E+02 -0.48407726357E+02 -0.52282498649E+03  0.53418489441E+03  0.00000000000E+00 0.  1.
         21    1    1    2  504  503 -0.30134328252E+02  0.23624700167E+02 -0.17505642674E+03  0.17919530334E+03  0.00000000000E+00 0. -1.
         21    1    1    2  505  501  0.23140741279E+02 -0.29892949889E+02 -0.50723979234E+02  0.63261397624E+02  0.00000000000E+00 0. -1.
         21    1    1    2  506  505  0.10530038705E+03  0.54675976079E+02 -0.33060680409E+03  0.35125274772E+03  0.00000000000E+00 0.  1.
<scales pt_clust_3="14000.00000" pt_clust_4="34.11023" pt_clust_5="37.80321" pt_clust_6="116.24443"></scales>
<clustering>
<clus scale="   37.803">  1  5  2 -1</clus>
<clus scale="   34.110">  2  4  1 -1</clus>
<clus scale="  116.244">  1  6  2 -1</clus>
<clus scale="   37.803">  1  3  2 -1</clus>
</clustering>
</event>
<event>
 6    0  0.1715092E+003  0.4224659E+03  0.7546771E-02  0.1036267E+00
         21   -1    0    0  505  501  0.00000000000E+00  0.00000000000E+00  0.24025581665E+03  0.24025581665E+03  0.00000000000E+00 0. -1.
         21   -1    0    0  506  502 -0.00000000000E+00 -0.00000000000E+00 -0.10936924750E+04  0.10936924750E+04  0.00000000000E+00 0. -1.
         21    1    1    2  503  501  0.18463975665E+01  0.35972707714E+02 -0.22418805495E+02  0.42426969301E+02  0.00000000000E+00 0. -1.
         21    1    1    2  504  502  0.34218169635E+01 -0.77233676669E+02 -0.13445426383E+03  0.15509577268E+03  0.00000000000E+00 0. -1.
         21    1    1    2  505  504  0.41583570249E+03  0.93939849971E+02 -0.53082851403E+03  0.68082518916E+03  0.00000000000E+00 0. -1.
         21    1    1    2  506  503 -0.42110391702E+03 -0.52678881016E+02 -0.16573507502E+03  0.45560036054E+03  0.00000000000E+00 0. -1.
<scales pt_clust_3="36.02006" pt_clust_4="75.70241" pt_clust_5="14000.00000" pt_clust_6="422.46591"></scales>
<clustering>
<clus scale="   36.020">  1  3  2 -1</clus>
<clus scale="   75.702">  2  4  1 -1</clus>
<clus scale="  422.466">  1  6  2 -1</clus>
<clus scale="   36.020">  1  3  2 -1</clus>
</clustering>
</event>
<event>
 6    0  0.8777103E+002  0.1058862E+03  0.7546771E-02  0.1268383E+00
         21   -1    0    0  504  501  0.00000000000E+00  0.00000000000E+00  0.33874678165E+03  0.33874678165E+03  0.00000000000E+00 0.  1.
         21   -1    0    0  503  502 -0.00000000000E+00 -0.00000000000E+00 -0.24283798275E+03  0.24283798275E+03  0.00000000000E+00 0. -1.
         21    1    1    2  503  501 -0.16501131690E+02 -0.90452099562E+02  0.11056719212E+03  0.14380185546E+03  0.00000000000E+00 0.  1.
         21    1    1    2  504  505  0.87739593218E+02  0.10226414834E+03  0.17009526725E+03  0.21699906036E+03  0.00000000000E+00 0.  1.
         21    1    1    2  505  506 -0.30866077945E+02 -0.38902904972E+02 -0.28755915125E+02  0.57385132549E+02  0.00000000000E+00 0. -1.
         21    1    1    2  506  502 -0.40372383583E+02  0.27090856198E+02 -0.15599774535E+03  0.16339871603E+03  0.00000000000E+00 0. -1.
<scales pt_clust_3="105.88621" pt_clust_4="14000.00000" pt_clust_5="57.44312" pt_clust_6="48.61938"></scales>
<clustering>
<clus scale="   48.619">  2  6  1 -1</clus>
<clus scale="   57.443">  2  5  1 -1</clus>
<clus scale="  105.886">  1  3  2 -1</clus>
<clus scale="  105.886">  1  3  2 -1</clus>
</clustering>
</event>
<event>
 6    0  0.8777103E+002  0.9858487E+02  0.7546771E-02  0.1283300E+00
         21   -1    0    0  502  501  0.00000000000E+00  0.00000000000E+00  0.26448392811E+03  0.26448392811E+03  0.00000000000E+00 0. -1.
         21   -1    0    0  504  502 -0.00000000000E+00 -0.00000000000E+00 -0.41311554315E+03  0.41311554315E+03  0.00000000000E+00 0. -1.
         21    1    1    2  503  505 -0.49318247574E+02  0.13311616995E+03  0.14657059708E+03  0.20404691660E+03  0.00000000000E+00 0. -1.
         21    1    1    2  504  506 -0.56336094934E+02 -0.52944767620E+02 -0.17584207263E+03  0.19208679944E+03  0.00000000000E+00 0. -1.
         21    1    1    2  505  501  0.31416011834E+02 -0.35676183174E+02  0.63402858764E+02  0.79244421538E+02  0.00000000000E+00 0. -1.
         21    1    1    2  506  503  0.74238330674E+02 -0.44495219159E+02 -0.18276299824E+03  0.20222133368E+03  0.00000000000E+00 0. -1.
<scales pt_clust_3="14000.00000" pt_clust_4="77.40096" pt_clust_5="47.53689" pt_clust_6="98.58487"></scales>
<clustering>
<clus scale="   47.537">  1  5  2 -1</clus>
<clus scale="   77.401">  2  4  1 -1</clus>
<clus scale="   98.585">  2  6  1 -1</clus>
<clus scale="   47.537">  1  3  2 -1</clus>
</clustering>
</event>
<event>
 6    0  0.8777103E+002  0.1310171E+03  0.7546771E-02  0.1225954E+00
         21   -1    0    0  503  501  0.00000000000E+00  0.00000000000E+00  0.64596819353E+02  0.64596819353E+02  0.00000000000E+00 0. -1.
         21   -1    0    0  505  502 -0.00000000000E+00 -0.00000000000E+00 -0.75664569209E+03  0.75664569209E+03  0.00000000000E+00 0. -1.
         21    1    1    2  503  506  0.89659959498E+01 -0.28837476656E+02  0.36752786317E+01  0.30421979165E+02  0.00000000000E+00 0. -1.
         21    1    1    2  504  502  0.53355066170E+02 -0.11877215428E+03 -0.51623588444E+03  0.53240311429E+03  0.00000000000E+00 0. -1.
         21    1    1    2  505  501 -0.19875994860E+02  0.13611576900E+03 -0.15794602507E+03  0.20945048240E+03  0.00000000000E+00 0. -1.
         21    1    1    2  506  504 -0.42445067260E+02  0.11493861928E+02 -0.21542241859E+02  0.48966935590E+02  0.00000000000E+00 0. -1.
<scales pt_clust_3="30.19916" pt_clust_4="131.01713" pt_clust_5="14000.00000" pt_clust_6="39.98583"></scales>
<clustering>
<clus scale="   30.199">  1  3  2 -1</clus>
<clus scale="   39.986">  1  6  2 -1</clus>
<clus scale="  131.017">  2  4  1 -1</clus>
<clus scale="   30.199">  1  3  2 -1</clus>
</clustering>
</event>
<event>
 6    0  0.8777103E+002  0.7390799E+02  0.7546771E-02  0.1347286E+00
         21   -1    0    0  506  501  0.00000000000E+00  0.00000000000E+00  0.23961143448E+04  0.23961143448E+04  0.00000000000E+00 0.  1.
         21   -1    0    0  504  502 -0.00000000000E+00 -0.00000000000E+00 -0.39048603215E+03  0.39048603215E+03  0.00000000000E+00 0.  1.
         21    1    1    2  503  505 -0.42079168178E+02  0.63268149493E+02  0.35020463098E+02  0.83665691717E+02  0.00000000000E+00 0.  1.
         21    1    1    2  504  501 -0.53619811770E+02 -0.55910207457E+01 -0.16827727173E+03  0.17670196351E+03  0.00000000000E+00 0.  1.
         21    1    1    2  505  502  0.64626273168E+02 -0.67099991790E+02 -0.18235061477E+03  0.20476989717E+03  0.00000000000E+00 0.  1.
         21    1    1    2  506  503  0.31072706781E+02  0.94228630426E+01  0.23212357360E+04  0.23214628245E+04  0.00000000000E+00 0.  1.
<scales pt_clust_3="14000.00000" pt_clust_4="52.11538" pt_clust_5="73.90799" pt_clust_6="32.47004"></scales>
<clustering>
<clus scale="   32.470">  1  6  2 -1</clus>
<clus scale="   52.115">  2  4  1 -1</clus>
<clus scale="   73.908">  2  5  1 -1</clus>
<clus scale="   32.470">  1  3  2 -1</clus>
</clustering>
</event>
<event>
 6    0  0.8777103E+002  0.9334846E+02  0.7546771E-02  0.1294940E+00
         21   -1    0    0  506  501  0.00000000000E+00  0.00000000000E+00  0.37065151981E+02  0.37065151981E+02  0.00000000000E+00 0. -1.
         21   -1    0    0  505  502 -0.00000000000E+00 -0.00000000000E+00 -0.10942674169E+04  0.10942674169E+04  0.00000000000E+00 0. -1.
         21    1    1    2  503  502 -0.54048623513E+01 -0.10403662573E+03 -0.77509375206E+03  0.78206339674E+03  0.00000000000E+00 0. -1.
         21    1    1    2  504  503  0.17126153382E+02  0.61162036816E+02 -0.90714940165E+02  0.11073978619E+03  0.00000000000E+00 0. -1.
         21    1    1    2  505  501 -0.43578443237E+02  0.42008959985E+02 -0.19707228923E+03  0.20615848422E+03  0.00000000000E+00 0. -1.
         21    1    1    2  506  504  0.31857152206E+02  0.86562893368E+00  0.56787164988E+01  0.32370901767E+02  0.00000000000E+00 0. -1.
<scales pt_clust_3="93.34846" pt_clust_4="14000.00000" pt_clust_5="55.20267" pt_clust_6="31.86891"></scales>
<clustering>
<clus scale="   31.869">  1  6  2 -1</clus>
<clus scale="   55.203">  1  5  2 -1</clus>
<clus scale="   93.348">  2  3  1 -1</clus>
<clus scale="   31.869">  1  3  2 -1</clus>
</clustering>
</event>
<event>
 6    0  0.8777103E+002  0.1137451E+03  0.7546771E-02  0.1253788E+00
         21   -1    0    0  502  501  0.00000000000E+00  0.00000000000E+00  0.54511053298E+03  0.54511053298E+03  0.00000000000E+00 0.  1.
         21   -1    0    0  506  502 -0.00000000000E+00 -0.00000000000E+00 -0.80451662551E+03  0.80451662551E+03  0.00000000000E+00 0.  1.
         21    1    1    2  503  505 -0.26759657554E+02  0.12073590536E+03  0.28983233807E+03  0.31511271365E+03  0.00000000000E+00 0.  1.
         21    1    1    2  504  503  0.15561844910E+02 -0.75767393928E+02 -0.12502313696E+03  0.14701582832E+03  0.00000000000E+00 0. -1.
         21    1    1    2  505  501  0.59336583268E+02 -0.54411528887E+01  0.22629743965E+03  0.23401061397E+03  0.00000000000E+00 0. -1.
         21    1    1    2  506  504 -0.48138770623E+02 -0.39527358547E+02 -0.65051273328E+03  0.65348800255E+03  0.00000000000E+00 0.  1.
<scales pt_clust_3="113.74510" pt_clust_4="14000.00000" pt_clust_5="59.58554" pt_clust_6="62.08769"></scales>
<clustering>
<clus scale="   59.586">  1  5  2 -1</clus>
<clus scale="   62.088">  2  6  1 -1</clus>
<clus scale="  113.745">  1  3  2 -1</clus>
<clus scale="   59.586">  1  3  2 -1</clus>
</clustering>
</event>
<event>
 6    0  0.8777103E+002  0.2590092E+03  0.7546771E-02  0.1107740E+00
         21   -1    0    0  506  501  0.00000000000E+00  0.00000000000E+00  0.15550926023E+03  0.15550926023E+03  0.00000000000E+00 0. -1.
         21   -1    0    0  504  502 -0.00000000000E+00 -0.00000000000E+00 -0.21628748394E+04  0.21628748394E+04  0.00000000000E+00 0. -1.
         21    1    1    2  503  505  0.22120549591E+03 -0.72477760947E+02 -0.35427730410E+03  0.42390718967E+03  0.00000000000E+00 0. -1.
         21    1    1    2  504  503 -0.21329795266E+02 -0.21343140917E+02 -0.85499994011E+03  0.85553222465E+03  0.00000000000E+00 0. -1.
         21    1    1    2  505  501  0.36332700163E+02 -0.42052216508E+02  0.92328515774E+02  0.10776367124E+03  0.00000000000E+00 0. -1.
         21    1    1    2  506  502 -0.23620840081E+03  0.13587311837E+03 -0.89041685076E+03  0.93118101410E+03  0.00000000000E+00 0. -1.
<scales pt_clust_3="14000.00000" pt_clust_4="30.17432" pt_clust_5="55.58716" pt_clust_6="259.00915"></scales>
<clustering>
<clus scale="   30.174">  2  4  1 -1</clus>
<clus scale="   55.587">  1  5  2 -1</clus>
<clus scale="  259.009">  2  6  1 -1</clus>
<clus scale="   55.587">  1  3  2 -1</clus>
</clustering>
</event>
<event>
 6    0  0.8777103E+002  0.1573818E+03  0.7546771E-02  0.1191685E+00
         21   -1    0    0  506  501  0.00000000000E+00  0.00000000000E+00  0.13287895531E+04  0.13287895531E+04  0.00000000000E+00 0. -1.
         21   -1    0    0  505  502 -0.00000000000E+00 -0.00000000000E+00 -0.27757564097E+03  0.27757564097E+03  0.00000000000E+00 0.  1.
         21    1    1    2  503  501  0.20630975205E+02  0.22316990794E+02  0.65201253478E+02  0.71936699056E+02  0.00000000000E+00 0. -1.
         21    1    1    2  504  502 -0.14305262395E+03 -0.65998031807E+02 -0.13681032258E+03  0.20865487721E+03  0.00000000000E+00 0.  1.
         21    1    1    2  505  503  0.15899349718E+03  0.25140020994E+02 -0.37048733858E+02  0.16517736371E+03  0.00000000000E+00 0.  1.
         21    1    1    2  506  504 -0.36571848440E+02  0.18541020019E+02  0.11598717150E+04  0.11605962540E+04  0.00000000000E+00 0. -1.
<scales pt_clust_3="30.39219" pt_clust_4="14000.00000" pt_clust_5="157.38182" pt_clust_6="42.85790"></scales>
<clustering>
<clus scale="   30.392">  1  3  2 -1</clus>
<clus scale="   42.858">  1  6  2 -1</clus>
<clus scale="  157.382">  1  5  2 -1</clus>
<clus scale="   30.392">  1  3  2 -1</clus>
</clustering>
</event>
<event>
 6    0  0.8777103E+002  0.1392001E+03  0.7546771E-02  0.1214409E+00
         21   -1    0    0  505  501  0.00000000000E+00  0.00000000000E+00  0.40399906812E+03  0.40399906812E+03  0.00000000000E+00 0.  1.
         21   -1    0    0  504  502 -0.00000000000E+00 -0.00000000000E+00 -0.76674134669E+02  0.76674134669E+02  0.00000000000E+00 0.  1.
         21    1    1    2  503  501  0.33885454323E+02  0.89034578708E+00  0.14887040507E+03  0.15268075922E+03  0.00000000000E+00 0.  1.
         21    1    1    2  504  503  0.21162755828E+02  0.12805432215E+03  0.89168749038E+02  0.15747011608E+03  0.00000000000E+00 0.  1.
         21    1    1    2  505  506 -0.36675799361E+02 -0.46238053232E+02  0.49007889285E+02  0.76712743646E+02  0.00000000000E+00 0.  1.
         21    1    1    2  506  502 -0.18372410790E+02 -0.82706614701E+02  0.40277890067E+02  0.93809583848E+02  0.00000000000E+00 0.  1.
<scales pt_clust_3="33.89715" pt_clust_4="133.89470" pt_clust_5="31.76926" pt_clust_6="31.76926"></scales>
<clustering>
<clus scale="   31.769">  5  6 -1 -1</clus>
<clus scale="   33.897">  1  3  2 -1</clus>
<clus scale="  133.895">  2  4  1 -1</clus>
<clus scale="   33.897">  1  3  2 -1</clus>
</clustering>
</event>
<event>
 6    0  0.8777103E+002  0.1503382E+03  0.7546771E-02  0.1200058E+00
         21   -1    0    0  502  501  0.00000000000E+00  0.00000000000E+00  0.36474834042E+03  0.36474834042E+03  0.00000000000E+00 0. -1.
         21   -1    0    0  503  502 -0.00000000000E+00 -0.00000000000E+00 -0.36230610159E+03  0.36230610159E+03  0.00000000000E+00 0.  1.
         21    1    1    2  503  506 -0.77181263778E+01 -0.83651047579E+02 -0.12905487234E+03  0.15398775052E+03  0.00000000000E+00 0.  1.
         21    1    1    2  504  505  0.15500464215E+02  0.97438759889E+02  0.88610846412E+02  0.13261394505E+03  0.00000000000E+00 0. -1.
         21    1    1    2  505  501 -0.96298808177E+01  0.54735388318E+02  0.23238434415E+03  0.23893760847E+03  0.00000000000E+00 0. -1.
         21    1    1    2  506  504  0.18475429810E+01 -0.68523100628E+02 -0.18949807939E+03  0.20151513796E+03  0.00000000000E+00 0.  1.
<scales pt_clust_3="37.40752" pt_clust_4="144.52233" pt_clust_5="55.57605" pt_clust_6="37.40752"></scales>
<clustering>
<clus scale="   37.408">  3  6 -1 -1</clus>
<clus scale="   55.576">  1  5  2 -1</clus>
<clus scale="  144.522">  1  4  2 -1</clus>
<clus scale="   55.576">  1  3  2 -1</clus>
</clustering>
</event>
<event>
 6    0  0.8777103E+002  0.8618311E+02  0.7546771E-02  0.1312367E+00
         21   -1    0    0  506  501  0.00000000000E+00  0.00000000000E+00  0.11677859242E+03  0.11677859242E+03  0.00000000000E+00 0. -1.
         21   -1    0    0  504  502 -0.00000000000E+00 -0.00000000000E+00 -0.43082286439E+03  0.43082286439E+03  0.00000000000E+00 0. -1.
         21    1    1    2  503  502 -0.85835512035E+02  0.13827491623E+02 -0.32038005750E+03  0.33196734161E+03  0.00000000000E+00 0. -1.
         21    1    1    2  504  501  0.85077940387E+02  0.19172108353E+02 -0.24611766896E+02  0.90617684527E+02  0.00000000000E+00 0. -1.
         21    1    1    2  505  503 -0.16950095788E+02 -0.61379869241E+02 -0.17595580056E+02  0.66063594610E+02  0.00000000000E+00 0.  1.
         21    1    1    2  506  505  0.17707667435E+02  0.28380269265E+02  0.48543132478E+02  0.58952836067E+02  0.00000000000E+00 0. -1.
<scales pt_clust_3="14000.00000" pt_clust_4="86.18311" pt_clust_5="51.47717" pt_clust_6="33.45147"></scales>
<clustering>
<clus scale="   33.451">  1  6  2 -1</clus>
<clus scale="   51.477">  1  5  2 -1</clus>
<clus scale="   86.183">  1  4  2 -1</clus>
<clus scale="   33.451">  1  3  2 -1</clus>
</clustering>
</event>
<event>
 6    0  0.8777103E+002  0.7217776E+02  0.7546771E-02  0.1352840E+00
         21   -1    0    0  504  501  0.00000000000E+00  0.00000000000E+00  0.10370733036E+04  0.10370733036E+04  0.00000000000E+00 0. -1.
         21   -1    0    0  505  502 -0.00000000000E+00 -0.00000000000E+00 -0.53940625571E+02  0.53940625571E+02  0.00000000000E+00 0. -1.
         21    1    1    2  503  501  0.65091267323E+02  0.27268829273E+02  0.76477033286E+03  0.76801961183E+03  0.00000000000E+00 0. -1.
         21    1    1    2  504  502 -0.10949658707E+03 -0.15459225301E+02  0.50796644087E+02  0.12169136895E+03  0.00000000000E+00 0. -1.
         21    1    1    2  505  506  0.23426530937E+02  0.45128247544E+02  0.78695682884E+02  0.93692964425E+02  0.00000000000E+00 0. -1.
         21    1    1    2  506  503  0.20978788811E+02 -0.56937851515E+02  0.88870018225E+02  0.10760998399E+03  0.00000000000E+00 0. -1.
<scales pt_clust_3="72.17776" pt_clust_4="14000.00000" pt_clust_5="50.84645" pt_clust_6="54.30238"></scales>
<clustering>
<clus scale="   50.846">  2  5  1 -1</clus>
<clus scale="   54.302">  2  6  1 -1</clus>
<clus scale="   72.178">  1  3  2 -1</clus>
<clus scale="   72.178">  1  3  2 -1</clus>
</clustering>
</event>
<event>
 6    0  0.8777103E+002  0.1068723E+03  0.7546771E-02  0.1266474E+00
         21   -1    0    0  504  501  0.00000000000E+00  0.00000000000E+00  0.46581890302E+02  0.46581890302E+02  0.00000000000E+00 0.  1.
         21   -1    0    0  505  502 -0.00000000000E+00 -0.00000000000E+00 -0.12639599528E+04  0.12639599528E+04  0.00000000000E+00 0.  1.
         21    1    1    2  503  501  0.68068540816E+02 -0.83736408716E+02 -0.45806962227E+02  0.11723220625E+03  0.00000000000E+00 0.  1.
         21    1    1    2  504  502  0.34945209894E+02 -0.15335265160E+02 -0.11053789896E+03  0.11694000667E+03  0.00000000000E+00 0.  1.
         21    1    1    2  505  506  0.25264545012E+01  0.62424340901E+02 -0.25051589558E+03  0.25818868148E+03  0.00000000000E+00 0.  1.
         21    1    1    2  506  503 -0.10554020521E+03  0.36647332975E+02 -0.81051730573E+03  0.81818094870E+03  0.00000000000E+00 0.  1.
<scales pt_clust_3="106.87231" pt_clust_4="38.16200" pt_clust_5="59.91714" pt_clust_6="14000.00000"></scales>
<clustering>
<clus scale="   38.162">  2  4  1 -1</clus>
<clus scale="   59.917">  2  5  1 -1</clus>
<clus scale="  106.872">  1  3  2 -1</clus>
<clus scale="  106.872">  1  3  2 -1</clus>
</clustering>
</event>
<event>
 6    0  0.8777103E+002  0.1243614E+03  0.7546771E-02  0.1236071E+00
         21   -1    0    0  505  501  0.00000000000E+00  0.00000000000E+00  0.16495890916E+03  0.16495890916E+03  0.00000000000E+00 0.  1.
         21   -1    0    0  504  502 -0.00000000000E+00 -0.00000000000E+00 -0.75587730017E+03  0.75587730017E+03  0.00000000000E+00 0. -1.
         21    1    1    2  503  501 -0.58911924140E+02 -0.11377809922E+02  0.10290306418E+03  0.11911805061E+03  0.00000000000E+00 0.  1.
         21    1    1    2  504  506  0.11809288957E+03  0.11446577608E+03 -0.52248579881E+03  0.54775884696E+03  0.00000000000E+00 0. -1.
         21    1    1    2  505  502 -0.25386240451E+02 -0.22290762962E+02 -0.16245445230E+03  0.16593007079E+03  0.00000000000E+00 0. -1.
         21    1    1    2  506  503 -0.33794724976E+02 -0.80797203192E+02 -0.88812040697E+01  0.88029240969E+02  0.00000000000E+00 0.  1.
<scales pt_clust_3="60.40049" pt_clust_4="124.36139" pt_clust_5="33.78371" pt_clust_6="14000.00000"></scales>
<clustering>
<clus scale="   33.784">  2  5  1 -1</clus>
<clus scale="   60.400">  1  3  2 -1</clus>
<clus scale="  124.361">  2  4  1 -1</clus>
<clus scale="   60.400">  1  3  2 -1</clus>
</clustering>
</event>
<event>
 6    0  0.8777103E+002  0.1382737E+03  0.7546771E-02  0.1215671E+00
         21   -1    0    0  505  501  0.00000000000E+00  0.00000000000E+00  0.47125320833E+02  0.47125320833E+02  0.00000000000E+00 0. -1.
         21   -1    0    0  503  502 -0.00000000000E+00 -0.00000000000E+00 -0.89510442455E+03  0.89510442455E+03  0.00000000000E+00 0. -1.
         21    1    1    2  503  506  0.36491104879E+02  0.41331104679E+01 -0.34884648161E+02  0.50651969506E+02  0.00000000000E+00 0. -1.
         21    1    1    2  504  502 -0.40804422690E+02 -0.46522210083E+02 -0.55531056638E+03  0.55874783406E+03  0.00000000000E+00 0. -1.
         21    1    1    2  505  504 -0.47130717658E+02 -0.41300652044E+02 -0.21802528916E+03  0.22685254048E+03  0.00000000000E+00 0. -1.
         21    1    1    2  506  501  0.51444035469E+02  0.83689751659E+02 -0.39758600011E+02  0.10597740133E+03  0.00000000000E+00 0. -1.
<scales pt_clust_3="36.25321" pt_clust_4="60.23414" pt_clust_5="60.23414" pt_clust_6="137.69947"></scales>
<clustering>
<clus scale="   36.253">  3  6 -1 -1</clus>
<clus scale="   60.234">  4  5 -1 -1</clus>
<clus scale="  137.699">  1  3  2 -1</clus>
<clus scale="  137.699">  1  3  2 -1</clus>
</clustering>
</event>
<event>
 6    0  0.8777103E+002  0.7230267E+02  0.7546771E-02  0.1352433E+00
         21   -1    0    0  506  501  0.00000000000E+00  0.00000000000E+00  0.24819158522E+03  0.24819158522E+03  0.00000000000E+00 0. -1.
         21   -1    0    0  503  502 -0.00000000000E+00 -0.00000000000E+00 -0.91184229238E+03  0.91184229238E+03  0.00000000000E+00 0.  1.
         21    1    1    2  503  501  0.41181863858E+02 -0.52604974355E+02 -0.74812551286E+03  0.75110253110E+03  0.00000000000E+00 0.  1.
         21    1    1    2  504  505 -0.85427407247E+02 -0.37270748462E+02 -0.18528572160E+02  0.95027672738E+02  0.00000000000E+00 0.  1.
         21    1    1    2  505  502 -0.71705227746E+01  0.41539731758E+02 -0.94875061947E+02  0.10381831770E+03  0.00000000000E+00 0. -1.
         21    1    1    2  506  504  0.51416066163E+02  0.48335991059E+02  0.19787843980E+03  0.21008535606E+03  0.00000000000E+00 0. -1.
<scales pt_clust_3="37.39987" pt_clust_4="14000.00000" pt_clust_5="42.15407" pt_clust_6="72.30267"></scales>
<clustering>
<clus scale="   42.154">  2  5  1 -1</clus>
<clus scale="   37.400">  2  3  1 -1</clus>
<clus scale="   72.303">  1  6  2 -1</clus>
<clus scale="   72.303">  1  3  2 -1</clus>
</clustering>
</event>
<event>
 6    0  0.8777103E+002  0.1135876E+03  0.7546771E-02  0.1254067E+00
         21   -1    0    0  504  501  0.00000000000E+00  0.00000000000E+00  0.99699483021E+02  0.99699483021E+02  0.00000000000E+00 0. -1.
         21   -1    0    0  503  502 -0.00000000000E+00 -0.00000000000E+00 -0.43429652781E+03  0.43429652781E+03  0.00000000000E+00 0. -1.
         21    1    1    2  503  505 -0.67413195390E+01 -0.95760702287E+02 -0.79167548779E+02  0.12443093776E+03  0.00000000000E+00 0. -1.
         21    1    1    2  504  502 -0.72379939898E+02  0.12428738499E+02 -0.27402477659E+03  0.28369509588E+03  0.00000000000E+00 0. -1.
         21    1    1    2  505  506  0.66023059408E+02  0.42299972120E+02 -0.13071044690E+01  0.78422194161E+02  0.00000000000E+00 0. -1.
         21    1    1    2  506  501  0.13098200029E+02  0.41031991669E+02  0.19902385048E+02  0.47447783035E+02  0.00000000000E+00 0. -1.
<scales pt_clust_3="103.00028" pt_clust_4="73.43929" pt_clust_5="35.49089" pt_clust_6="35.49089"></scales>
<clustering>
<clus scale="   35.491">  5  6 -1 -1</clus>
<clus scale="   73.439">  2  4  1 -1</clus>
<clus scale="  103.000">  2  3  1 -1</clus>
<clus scale="  113.588">  1  3  2 -1</clus>
</clustering>
</event>
<event>
 6    0  0.8777103E+002  0.2090113E+03  0.7546771E-02  0.1142351E+00
         21   -1    0    0  505  501  0.00000000000E+00  0.00000000000E+00  0.87692634812E+03  0.87692634812E+03  0.00000000000E+00 0. -1.
         21   -1    0    0  506  502 -0.00000000000E+00 -0.00000000000E+00 -0.50989113078E+03  0.50989113078E+03  0.00000000000E+00 0.  1.
         21    1    1    2  503  501 -0.17710237109E+02  0.34937615284E+02  0.10691507986E+03  0.11386449737E+03  0.00000000000E+00 0.  1.
         21    1    1    2  504  502 -0.51862653917E+02  0.47751119624E+02 -0.42752708279E+03  0.43330048559E+03  0.00000000000E+00 0.  1.
         21    1    1    2  505  504  0.20992023239E+03 -0.15084572684E+03  0.61585506698E+03  0.66790598200E+03  0.00000000000E+00 0. -1.
         21    1    1    2  506  503 -0.14034734137E+03  0.68156991934E+02  0.71792153291E+02  0.17174651394E+03  0.00000000000E+00 0.  1.
<scales pt_clust_3="39.17001" pt_clust_4="70.63575" pt_clust_5="209.01128" pt_clust_6="14000.00000"></scales>
<clustering>
<clus scale="   39.170">  1  3  2 -1</clus>
<clus scale="   70.636">  2  4  1 -1</clus>
<clus scale="  209.011">  1  5  2 -1</clus>
<clus scale="   39.170">  1  3  2 -1</clus>
</clustering>
</event>
<event>
 6    0  0.8777103E+002  0.8986268E+02  0.7546771E-02  0.1303185E+00
         21   -1    0    0  506  501  0.00000000000E+00  0.00000000000E+00  0.10378335925E+03  0.10378335925E+03  0.00000000000E+00 0. -1.
         21   -1    0    0  505  502 -0.00000000000E+00 -0.00000000000E+00 -0.95485797214E+03  0.95485797214E+03  0.00000000000E+00 0. -1.
         21    1    1    2  503  501  0.68185200589E+02 -0.18580699051E+02  0.60123739022E+02  0.92786464263E+02  0.00000000000E+00 0. -1.
         21    1    1    2  504  502 -0.52839139777E+02 -0.47650319613E+00 -0.62318529711E+03  0.62542155086E+03  0.00000000000E+00 0. -1.
         21    1    1    2  505  503 -0.35454973481E+02  0.93236708655E+02 -0.20063486037E+03  0.22406357621E+03  0.00000000000E+00 0. -1.
         21    1    1    2  506  504  0.20108912669E+02 -0.74179506408E+02 -0.87378194424E+02  0.11636974005E+03  0.00000000000E+00 0. -1.
<scales pt_clust_3="68.16267" pt_clust_4="52.84129" pt_clust_5="14000.00000" pt_clust_6="89.86268"></scales>
<clustering>
<clus scale="   52.841">  2  4  1 -1</clus>
<clus scale="   68.163">  1  3  2 -1</clus>
<clus scale="   89.863">  2  6  1 -1</clus>
<clus scale="   68.163">  1  3  2 -1</clus>
</clustering>
</event>
<event>
 6    0  0.8777103E+002  0.1005868E+03  0.7546771E-02  0.1279067E+00
         21   -1    0    0  504  501  0.00000000000E+00  0.00000000000E+00  0.11436314478E+04  0.11436314478E+04  0.00000000000E+00 0.  1.
         21   -1    0    0  506  502 -0.00000000000E+00 -0.00000000000E+00 -0.26710222336E+03  0.26710222336E+03  0.00000000000E+00 0. -1.
         21    1    1    2  503  505 -0.17159474297E+02  0.13097919915E+03  0.54827310311E+03  0.56396222725E+03  0.00000000000E+00 0.  1.
         21    1    1    2  504  502 -0.27327494663E+02 -0.26114626686E+02 -0.13965598487E+03  0.14468088955E+03  0.00000000000E+00 0. -1.
         21    1    1    2  505  501 -0.70664166576E+01 -0.33535213492E+02  0.56787355214E+03  0.56890677268E+03  0.00000000000E+00 0.  1.
         21    1    1    2  506  503  0.51553385618E+02 -0.71329358975E+02 -0.99961445949E+02  0.13318378166E+03  0.00000000000E+00 0. -1.
<scales pt_clust_3="14000.00000" pt_clust_4="37.92262" pt_clust_5="34.27163" pt_clust_6="100.58676"></scales>
<clustering>
<clus scale="   34.272">  1  5  2 -1</clus>
<clus scale="   37.923">  2  4  1 -1</clus>
<clus scale="  100.587">  2  6  1 -1</clus>
<clus scale="   34.272">  1  3  2 -1</clus>
</clustering>
</event>
<event>
 6    0  0.8777103E+002  0.1826976E+03  0.7546771E-02  0.1165218E+00
         21   -1    0    0  503  501  0.00000000000E+00  0.00000000000E+00  0.18239461120E+04  0.18239461120E+04  0.00000000000E+00 0. -1.
         21   -1    0    0  504  502 -0.00000000000E+00 -0.00000000000E+00 -0.13027277377E+04  0.13027277377E+04  0.00000000000E+00 0.  1.
         21    1    1    2  503  502 -0.20075129388E+03 -0.25970599118E+03 -0.68735420993E+03  0.76171129292E+03  0.00000000000E+00 0.  1.
         21    1    1    2  504  506  0.93869383487E+01  0.35719948533E+02 -0.35514865213E+03  0.35706385206E+03  0.00000000000E+00 0.  1.
         21    1    1    2  505  501  0.13706133439E+03  0.11943759008E+03  0.17651823738E+04  0.17745196421E+04  0.00000000000E+00 0. -1.
         21    1    1    2  506  505  0.54303021143E+02  0.10454845257E+03 -0.20146113741E+03  0.23337906274E+03  0.00000000000E+00 0. -1.
<scales pt_clust_3="182.69762" pt_clust_4="36.93277" pt_clust_5="14000.00000" pt_clust_6="126.09826"></scales>
<clustering>
<clus scale="   36.933">  2  4  1 -1</clus>
<clus scale="  126.098">  2  6  1 -1</clus>
<clus scale="  182.698">  2  3  1 -1</clus>
<clus scale="  182.698">  1  3  2 -1</clus>
</clustering>
</event>
<event>
 6    0  0.8777103E+002  0.7433919E+02  0.7546771E-02  0.1345930E+00
         21   -1    0    0  505  501  0.00000000000E+00  0.00000000000E+00  0.55479299671E+03  0.55479299671E+03  0.00000000000E+00 0. -1.
         21   -1    0    0  504  502 -0.00000000000E+00 -0.00000000000E+00 -0.75285634187E+02  0.75285634187E+02  0.00000000000E+00 0. -1.
         21    1    1    2  503  502  0.31020524493E+02  0.93130521190E+01  0.22284531806E+01  0.32464933131E+02  0.00000000000E+00 0. -1.
         21    1    1    2  504  501 -0.72765615200E+02  0.98118519731E+01 -0.33833295002E+01  0.73502068768E+02  0.00000000000E+00 0. -1.
         21    1    1    2  505  506 -0.41281939021E+02  0.53849062658E+02  0.33196988030E+03  0.33883317645E+03  0.00000000000E+00 0. -1.
         21    1    1    2  506  503  0.83027029728E+02 -0.72973966750E+02  0.14869235854E+03  0.18527845255E+03  0.00000000000E+00 0. -1.
<scales pt_clust_3="32.38836" pt_clust_4="55.24215" pt_clust_5="74.33919" pt_clust_6="14000.00000"></scales>
<clustering>
<clus scale="   32.388">  2  3  1 -1</clus>
<clus scale="   55.242">  2  4  1 -1</clus>
<clus scale="   74.339">  1  5  2 -1</clus>
<clus scale="   74.339">  1  3  2 -1</clus>
</clustering>
</event>
<event>
 6    0  0.8777103E+002  0.1327261E+03  0.7546771E-02  0.1223466E+00
         21   -1    0    0  504  501  0.00000000000E+00  0.00000000000E+00  0.18545690514E+03  0.18545690514E+03  0.00000000000E+00 0.  1.
         21   -1    0    0  506  502 -0.00000000000E+00 -0.00000000000E+00 -0.44482061937E+03  0.44482061937E+03  0.00000000000E+00 0.  1.
         21    1    1    2  503  501  0.22423520284E+02 -0.24352398650E+02  0.10963675527E+03  0.11452541940E+03  0.00000000000E+00 0.  1.
         21    1    1    2  504  502  0.55708023459E+02 -0.76602656198E+02  0.25385958195E+02  0.98060173810E+02  0.00000000000E+00 0.  1.
         21    1    1    2  505  503 -0.38906416564E+02  0.18218951557E+02 -0.88177087955E+02  0.98085871999E+02  0.00000000000E+00 0. -1.
         21    1    1    2  506  505 -0.39225127178E+02  0.82736103291E+02 -0.30620933975E+03  0.31960605930E+03  0.00000000000E+00 0.  1.
<scales pt_clust_3="33.10368" pt_clust_4="122.42048" pt_clust_5="34.82415" pt_clust_6="34.82415"></scales>
<clustering>
<clus scale="   33.104">  1  3  2 -1</clus>
<clus scale="   34.824">  5  6 -1 -1</clus>
<clus scale="  122.420">  1  4  2 -1</clus>
<clus scale="   33.104">  1  3  2 -1</clus>
</clustering>
</event>
<event>
 6    0  0.8777103E+002  0.1010524E+03  0.7546771E-02  0.1278098E+00
         21   -1    0    0  506  501  0.00000000000E+00  0.00000000000E+00  0.92606722886E+03  0.92606722886E+03  0.00000000000E+00 0.  1.
         21   -1    0    0  503  502 -0.00000000000E+00 -0.00000000000E+00 -0.80670797615E+02  0.80670797615E+02  0.00000000000E+00 0. -1.
         21    1    1    2  503  504 -0.64069309031E+01  0.30312511280E+02 -0.29648314687E+02  0.42882626640E+02  0.00000000000E+00 0. -1.
         21    1    1    2  504  501  0.36623001693E+02  0.44727875813E+02  0.12830489757E+03  0.14072659261E+03  0.00000000000E+00 0.  1.
         21    1    1    2  505  502  0.84614322295E+02  0.30198025387E+02  0.38123346705E+02  0.97595562597E+02  0.00000000000E+00 0. -1.
         21    1    1    2  506  505 -0.11483039308E+03 -0.10523841248E+03  0.70861650166E+03  0.72553324463E+03  0.00000000000E+00 0.  1.
<scales pt_clust_3="30.98221" pt_clust_4="60.61548" pt_clust_5="101.05236" pt_clust_6="14000.00000"></scales>
<clustering>
<clus scale="   30.982">  2  3  1 -1</clus>
<clus scale="   60.615">  1  4  2 -1</clus>
<clus scale="  101.052">  2  5  1 -1</clus>
<clus scale="   60.615">  1  3  2 -1</clus>
</clustering>
</event>
<event>
 6    0  0.8777103E+002  0.8772663E+02  0.7546771E-02  0.1308452E+00
         21   -1    0    0  505  501  0.00000000000E+00  0.00000000000E+00  0.23711121926E+03  0.23711121926E+03  0.00000000000E+00 0. -1.
         21   -1    0    0  506  502 -0.00000000000E+00 -0.00000000000E+00 -0.37491838482E+03  0.37491838482E+03  0.00000000000E+00 0.  1.
         21    1    1    2  503  501 -0.97795898005E+02  0.10295487607E+03  0.15056218353E+03  0.20696066120E+03  0.00000000000E+00 0. -1.
         21    1    1    2  504  502  0.83980227351E+02 -0.45949730689E+02 -0.17753892849E+03  0.20170306756E+03  0.00000000000E+00 0.  1.
         21    1    1    2  505  504  0.50246787699E+02 -0.35664760229E+02  0.20875698644E+02  0.65057740432E+02  0.00000000000E+00 0. -1.
         21    1    1    2  506  503 -0.36431117046E+02 -0.21340385153E+02 -0.13170611925E+03  0.13830813489E+03  0.00000000000E+00 0.  1.
<scales pt_clust_3="87.72663" pt_clust_4="14000.00000" pt_clust_5="60.12387" pt_clust_6="42.22130"></scales>
<clustering>
<clus scale="   42.221">  2  6  1 -1</clus>
<clus scale="   60.124">  1  5  2 -1</clus>
<clus scale="   87.727">  1  3  2 -1</clus>
<clus scale="   60.124">  1  3  2 -1</clus>
</clustering>
</event>
<event>
 6    0  0.8777103E+002  0.9720158E+02  0.7546771E-02  0.1286293E+00
         21   -1    0    0  503  501  0.00000000000E+00  0.00000000000E+00  0.11583372956E+04  0.11583372956E+04  0.00000000000E+00 0.  1.
         21   -1    0    0  505  502 -0.00000000000E+00 -0.00000000000E+00 -0.13477874020E+03  0.13477874020E+03  0.00000000000E+00 0. -1.
         21    1    1    2  503  504 -0.14336133704E+03  0.32283535742E+01  0.52727924786E+03  0.54643050834E+03  0.00000000000E+00 0. -1.
         21    1    1    2  504  502  0.11324180117E+03  0.27715604673E+01 -0.23809930064E+02  0.11575102527E+03  0.00000000000E+00 0. -1.
         21    1    1    2  505  506 -0.24617148601E+02  0.19513598868E+02 -0.49242408723E+02  0.58408897977E+02  0.00000000000E+00 0.  1.
         21    1    1    2  506  501  0.54736684467E+02 -0.25513512909E+02  0.56933164633E+03  0.57252560422E+03  0.00000000000E+00 0.  1.
<scales pt_clust_3="97.20158" pt_clust_4="14000.00000" pt_clust_5="31.41313" pt_clust_6="59.78814"></scales>
<clustering>
<clus scale="   31.413">  2  5  1 -1</clus>
<clus scale="   59.788">  1  6  2 -1</clus>
<clus scale="   97.202">  1  3  2 -1</clus>
<clus scale="   59.788">  1  3  2 -1</clus>
</clustering>
</event>
<event>
 6    0  0.8777103E+002  0.1194770E+03  0.7546771E-02  0.1243962E+00
         21   -1    0    0  504  501  0.00000000000E+00  0.00000000000E+00  0.17793731875E+04  0.17793731875E+04  0.00000000000E+00 0. -1.
         21   -1    0    0  506  502 -0.00000000000E+00 -0.00000000000E+00 -0.65975783667E+03  0.65975783667E+03  0.00000000000E+00 0. -1.
         21    1    1    2  503  501 -0.28630931292E+02 -0.11691229110E+03  0.15581133831E+04  0.15627557482E+04  0.00000000000E+00 0. -1.
         21    1    1    2  504  502  0.45067856620E+02  0.94916010695E+02  0.21307051732E+02  0.10721077950E+03  0.00000000000E+00 0. -1.
         21    1    1    2  505  503 -0.36838749669E+02  0.49308242207E+02  0.14806017313E+03  0.16034403978E+03  0.00000000000E+00 0.  1.
         21    1    1    2  506  505  0.20401824341E+02 -0.27311961798E+02 -0.60786525710E+03  0.60882045669E+03  0.00000000000E+00 0. -1.
<scales pt_clust_3="119.47700" pt_clust_4="14000.00000" pt_clust_5="57.47754" pt_clust_6="34.09073"></scales>
<clustering>
<clus scale="   34.091">  2  6  1 -1</clus>
<clus scale="   57.478">  2  5  1 -1</clus>
<clus scale="  119.477">  1  3  2 -1</clus>
<clus scale="  119.477">  1  3  2 -1</clus>
</clustering>
</event>
<event>
 6    0  0.8777103E+002  0.9164354E+02  0.7546771E-02  0.1298920E+00
         21   -1    0    0  506  501  0.00000000000E+00  0.00000000000E+00  0.13913195737E+02  0.13913195737E+02  0.00000000000E+00 0. -1.
         21   -1    0    0  503  502 -0.00000000000E+00 -0.00000000000E+00 -0.23053611794E+04  0.23053611794E+04  0.00000000000E+00 0. -1.
         21    1    1    2  503  505  0.58439500677E+01 -0.95593511759E+02 -0.11189671834E+04  0.11230582482E+04  0.00000000000E+00 0. -1.
         21    1    1    2  504  502  0.63697398713E+02  0.21892264668E+02 -0.77871495421E+03  0.78162242149E+03  0.00000000000E+00 0. -1.
         21    1    1    2  505  501 -0.32873363985E+02  0.78561764959E+02 -0.20077050996E+03  0.21808577817E+03  0.00000000000E+00 0. -1.
         21    1    1    2  506  504 -0.36667984795E+02 -0.48605178677E+01 -0.19299533605E+03  0.19650792727E+03  0.00000000000E+00 0.  1.
<scales pt_clust_3="91.64354" pt_clust_4="63.02496" pt_clust_5="14000.00000" pt_clust_6="36.98872"></scales>
<clustering>
<clus scale="   36.989">  1  6  2 -1</clus>
<clus scale="   63.025">  2  4  1 -1</clus>
<clus scale="   91.644">  2  3  1 -1</clus>
<clus scale="   36.989">  1  3  2 -1</clus>
</clustering>
</event>
<event>
 6    0  0.8777103E+002  0.1122916E+03  0.7546771E-02  0.1256384E+00
         21   -1    0    0  506  501  0.00000000000E+00  0.00000000000E+00  0.31236174923E+03  0.31236174923E+03  0.00000000000E+00 0. -1.
         21   -1    0    0  505  502 -0.00000000000E+00 -0.00000000000E+00 -0.11777587758E+04  0.11777587758E+04  0.00000000000E+00 0.  1.
         21    1    1    2  503  502 -0.45248826056E+02  0.94810784373E+02 -0.10999022777E+03  0.15209993852E+03  0.00000000000E+00 0. -1.
         21    1    1    2  504  501 -0.26117381093E+02 -0.17323633207E+03  0.13807829167E+03  0.22306626588E+03  0.00000000000E+00 0. -1.
         21    1    1    2  505  504  0.36588411231E+02  0.12204027624E+02 -0.99117062647E+03  0.99192079366E+03  0.00000000000E+00 0.  1.
         21    1    1    2  506  503  0.34777795917E+02  0.66221520075E+02  0.97685536007E+02  0.12303352695E+03  0.00000000000E+00 0. -1.
<scales pt_clust_3="14000.00000" pt_clust_4="112.29163" pt_clust_5="38.57007" pt_clust_6="76.71310"></scales>
<clustering>
<clus scale="   38.570">  2  5  1 -1</clus>
<clus scale="   76.713">  1  6  2 -1</clus>
<clus scale="  112.292">  1  4  2 -1</clus>
<clus scale="   76.713">  1  3  2 -1</clus>
</clustering>
</event>
<event>
 6    0  0.8777103E+002  0.2228611E+03  0.7546771E-02  0.1131768E+00
         21   -1    0    0  502  501  0.00000000000E+00  0.00000000000E+00  0.12623223244E+04  0.12623223244E+04  0.00000000000E+00 0.  1.
         21   -1    0    0  504  502 -0.00000000000E+00 -0.00000000000E+00 -0.10249037951E+03  0.10249037951E+03  0.00000000000E+00 0. -1.
         21    1    1    2  503  501  0.36079717972E+01 -0.39714681158E+02  0.14778479818E+03  0.15307063707E+03  0.00000000000E+00 0.  1.
         21    1    1    2  504  506 -0.10161744921E+03  0.59861991250E+01  0.52666328280E+02  0.11461100601E+03  0.00000000000E+00 0.  1.
         21    1    1    2  505  503 -0.12389651292E+03 -0.12018350831E+03  0.70607554300E+03  0.72686800315E+03  0.00000000000E+00 0.  1.
         21    1    1    2  506  505  0.22190599034E+03  0.15391199034E+03  0.25330527545E+03  0.37026305769E+03  0.00000000000E+00 0. -1.
<scales pt_clust_3="34.58640" pt_clust_4="101.79362" pt_clust_5="34.58640" pt_clust_6="210.92490"></scales>
<clustering>
<clus scale="   34.586">  3  5 -1 -1</clus>
<clus scale="  101.794">  2  4  1 -1</clus>
<clus scale="  210.925">  2  6  1 -1</clus>
<clus scale="  222.861">  1  3  2 -1</clus>
</clustering>
</event>
<event>
 6    0  0.8777103E+002  0.1249820E+03  0.7546771E-02  0.1235097E+00
         21   -1    0    0  503  501  0.00000000000E+00  0.00000000000E+00  0.25394308564E+04  0.25394308564E+04  0.00000000000E+00 0. -1.
         21   -1    0    0  504  502 -0.00000000000E+00 -0.00000000000E+00 -0.15286559099E+04  0.15286559099E+04  0.00000000000E+00 0. -1.
         21    1    1    2  503  506  0.10543233753E+03 -0.44533712379E+02  0.50037058046E+03  0.51329323698E+03  0.00000000000E+00 0.  1.
         21    1    1    2  504  505 -0.69245453207E+02 -0.10410391164E+03 -0.15039754816E+04  0.15091636116E+04  0.00000000000E+00 0. -1.
         21    1    1    2  505  501 -0.31237525887E+02  0.39569122614E+02  0.30862568056E+02  0.59110038023E+02  0.00000000000E+00 0.  1.
         21    1    1    2  506  502 -0.49493584326E+01  0.10906850141E+03  0.19835172796E+04  0.19865198797E+04  0.00000000000E+00 0. -1.
<scales pt_clust_3="105.59220" pt_clust_4="14000.00000" pt_clust_5="50.41328" pt_clust_6="124.98202"></scales>
<clustering>
<clus scale="   50.413">  1  5  2 -1</clus>
<clus scale="  105.592">  1  3  2 -1</clus>
<clus scale="  124.982">  1  6  2 -1</clus>
<clus scale="   50.413">  1  3  2 -1</clus>
</clustering>
</event>
<event>
 6    0  0.8777103E+002  0.7205257E+02  0.7546771E-02  0.1353249E+00
         21   -1    0    0  504  501  0.00000000000E+00  0.00000000000E+00  0.10553609234E+04  0.10553609234E+04  0.00000000000E+00 0.  1.
         21   -1    0    0  506  502 -0.00000000000E+00 -0.00000000000E+00 -0.48175970632E+03  0.48175970632E+03  0.00000000000E+00 0. -1.
         21    1    1    2  503  505  0.92066434475E+02  0.83035337358E+02  0.31217843699E+02  0.12785010509E+03  0.00000000000E+00 0. -1.
         21    1    1    2  504  502 -0.16458036153E+02 -0.28324775093E+02  0.19724266996E+03  0.19994456905E+03  0.00000000000E+00 0. -1.
         21    1    1    2  505  501 -0.28527552379E+02 -0.27787469027E+02  0.77501819292E+03  0.77604069741E+03  0.00000000000E+00 0.  1.
         21    1    1    2  506  503 -0.47080845943E+02 -0.26923093238E+02 -0.42987748948E+03  0.43328525819E+03  0.00000000000E+00 0. -1.
<scales pt_clust_3="14000.00000" pt_clust_4="32.75912" pt_clust_5="72.05257" pt_clust_6="54.29161"></scales>
<clustering>
<clus scale="   32.759">  1  4  2 -1</clus>
<clus scale="   54.292">  2  6  1 -1</clus>
<clus scale="   72.053">  1  5  2 -1</clus>
<clus scale="   32.759">  1  3  2 -1</clus>
</clustering>
</event>
<event>
 6    0  0.8777103E+002  0.1409041E+03  0.7546771E-02  0.1212118E+00
         21   -1    0    0  504  501  0.00000000000E+00  0.00000000000E+00  0.38198871418E+03  0.38198871418E+03  0.00000000000E+00 0. -1.
         21   -1    0    0  503  502 -0.00000000000E+00 -0.00000000000E+00 -0.97685246701E+02  0.97685246701E+02  0.00000000000E+00 0.  1.
         21    1    1    2  503  501 -0.28954382446E+02  0.12463483023E+03  0.23170600617E+03  0.26468825147E+03  0.00000000000E+00 0. -1.
         21    1    1    2  504  505  0.16628202283E+02 -0.92801726217E+02  0.21820506613E+02  0.96771855459E+02  0.00000000000E+00 0.  1.
         21    1    1    2  505  506  0.73429387362E+01 -0.61974378705E+02  0.51819976093E+02  0.81117521457E+02  0.00000000000E+00 0. -1.
         21    1    1    2  506  502  0.49832414262E+01  0.30141274694E+02 -0.21043021398E+02  0.37096332499E+02  0.00000000000E+00 0.  1.
<scales pt_clust_3="134.76835" pt_clust_4="34.73401" pt_clust_5="34.73401" pt_clust_6="30.55044"></scales>
<clustering>
<clus scale="   30.550">  2  6  1 -1</clus>
<clus scale="   34.734">  4  5 -1 -1</clus>
<clus scale="  134.768">  1  3  2 -1</clus>
<clus scale="  134.768">  1  3  2 -1</clus>
</clustering>
</event>
<event>
 6    0  0.8777103E+002  0.1022761E+03  0.7546771E-02  0.1275581E+00
         21   -1    0    0  506  501  0.00000000000E+00  0.00000000000E+00  0.29430014887E+03  0.29430014887E+03  0.00000000000E+00 0. -1.
         21   -1    0    0  503  502 -0.00000000000E+00 -0.00000000000E+00 -0.70545579100E+03  0.70545579100E+03  0.00000000000E+00 0. -1.
         21    1    1    2  503  505 -0.74253077947E+02  0.16706252042E+02 -0.38082744098E+03  0.38835828592E+03  0.00000000000E+00 0. -1.
         21    1    1    2  504  502  0.20162066698E+02 -0.25395607115E+02 -0.36882570660E+02  0.49109773088E+02  0.00000000000E+00 0.  1.
         21    1    1    2  505  501 -0.19585588063E+02  0.81220398198E+02 -0.26174602042E+03  0.27475685169E+03  0.00000000000E+00 0. -1.
         21    1    1    2  506  504  0.73676599312E+02 -0.72531043126E+02  0.26830038993E+03  0.28753102918E+03  0.00000000000E+00 0. -1.
<scales pt_clust_3="62.57872" pt_clust_4="32.42600" pt_clust_5="102.27607" pt_clust_6="14000.00000"></scales>
<clustering>
<clus scale="   32.426">  2  4  1 -1</clus>
<clus scale="   62.579">  2  3  1 -1</clus>
<clus scale="  102.276">  2  5  1 -1</clus>
<clus scale="  102.276">  1  3  2 -1</clus>
</clustering>
</event>
<event>
 6    0  0.8777103E+002  0.1053498E+03  0.7546771E-02  0.1269432E+00
         21   -1    0    0  505  501  0.00000000000E+00  0.00000000000E+00  0.59692774987E+03  0.59692774987E+03  0.00000000000E+00 0. -1.
         21   -1    0    0  504  502 -0.00000000000E+00 -0.00000000000E+00 -0.65819383873E+03  0.65819383873E+03  0.00000000000E+00 0.  1.
         21    1    1    2  503  502  0.35960737410E+02  0.70280519113E+01 -0.22620615255E+03  0.22915451469E+03  0.00000000000E+00 0.  1.
         21    1    1    2  504  506 -0.10117108762E+03  0.11539493391E+02 -0.39869213125E+03  0.41149017534E+03  0.00000000000E+00 0.  1.
         21    1    1    2  505  503 -0.37711802663E+02  0.41456116850E+01 -0.30640972408E+01  0.38062512374E+02  0.00000000000E+00 0. -1.
         21    1    1    2  506  501  0.10292215288E+03 -0.22713156987E+02  0.56669629218E+03  0.57641438620E+03  0.00000000000E+00 0. -1.
<scales pt_clust_3="36.64107" pt_clust_4="105.34983" pt_clust_5="36.27204" pt_clust_6="14000.00000"></scales>
<clustering>
<clus scale="   36.641">  2  3  1 -1</clus>
<clus scale="   36.272">  2  5  1 -1</clus>
<clus scale="  105.350">  2  4  1 -1</clus>
<clus scale="  105.350">  1  3  2 -1</clus>
</clustering>
</event>
<event>
 6    0  0.8777103E+002  0.1040882E+03  0.7546771E-02  0.1271927E+00
         21   -1    0    0  504  501  0.00000000000E+00  0.00000000000E+00  0.10522901214E+03  0.10522901214E+03  0.00000000000E+00 0.  1.
         21   -1    0    0  503  502 -0.00000000000E+00 -0.00000000000E+00 -0.47357089114E+03  0.47357089114E+03  0.00000000000E+00 0.  1.
         21    1    1    2  503  505 -0.39885537633E+02 -0.17215055913E+02 -0.24455728594E+03  0.24838574912E+03  0.00000000000E+00 0.  1.
         21    1    1    2  504  506 -0.63147617643E+02 -0.11497344729E+02 -0.76527885960E+02  0.99881569268E+02  0.00000000000E+00 0.  1.
         21    1    1    2  505  501  0.10404940482E+03  0.76037336047E+02  0.36835564049E+02  0.13403288364E+03  0.00000000000E+00 0.  1.
         21    1    1    2  506  502 -0.10162495474E+01 -0.47324935405E+02 -0.84092271156E+02  0.96499701256E+02  0.00000000000E+00 0.  1.
<scales pt_clust_3="43.44208" pt_clust_4="14000.00000" pt_clust_5="104.08821" pt_clust_6="56.73733"></scales>
<clustering>
<clus scale="   43.442">  2  3  1 -1</clus>
<clus scale="   56.737">  2  6  1 -1</clus>
<clus scale="  104.088">  1  5  2 -1</clus>
<clus scale="  104.088">  1  3  2 -1</clus>
</clustering>
</event>
<event>
 6    0  0.8777103E+002  0.1569521E+03  0.7546771E-02  0.1192181E+00
         21   -1    0    0  506  501  0.00000000000E+00  0.00000000000E+00  0.48869804960E+03  0.48869804960E+03  0.00000000000E+00 0.  1.
         21   -1    0    0  503  502 -0.00000000000E+00 -0.00000000000E+00 -0.11231380632E+04  0.11231380632E+04  0.00000000000E+00 0.  1.
         21    1    1    2  503  501  0.98811755169E+02 -0.12624933100E+03  0.24031799640E+03  0.28888647585E+03  0.00000000000E+00 0.  1.
         21    1    1    2  504  505 -0.39548178740E+02  0.15057991711E+03  0.85476528339E+01  0.15592123732E+03  0.00000000000E+00 0.  1.
         21    1    1    2  505  502 -0.29491154690E+02 -0.70222868883E+01 -0.10228491156E+04  0.10232982723E+04  0.00000000000E+00 0.  1.
         21    1    1    2  506  504 -0.29772421739E+02 -0.17308299225E+02  0.13954345274E+03  0.14373012740E+03  0.00000000000E+00 0.  1.
<scales pt_clust_3="14000.00000" pt_clust_4="156.95214" pt_clust_5="30.31568" pt_clust_6="35.04566"></scales>
<clustering>
<clus scale="   30.316">  2  5  1 -1</clus>
<clus scale="   35.046">  1  6  2 -1</clus>
<clus scale="  156.952">  2  4  1 -1</clus>
<clus scale="   35.046">  1  3  2 -1</clus>
</clustering>
</event>
<event>
 6    0  0.8777103E+002  0.1145624E+03  0.7546771E-02  0.1252347E+00
         21   -1    0    0  503  501  0.00000000000E+00  0.00000000000E+00  0.17219135137E+04  0.17219135137E+04  0.00000000000E+00 0. -1.
         21   -1    0    0  506  502 -0.00000000000E+00 -0.00000000000E+00 -0.30351055677E+02  0.30351055677E+02  0.00000000000E+00 0. -1.
         21    1    1    2  503  505  0.86538160195E+01 -0.62561011609E+02  0.10293639066E+04  0.10312995786E+04  0.00000000000E+00 0.  1.
         21    1    1    2  504  501 -0.51899466993E+02  0.44902337475E+02  0.91699245577E+02  0.11453613502E+03  0.00000000000E+00 0. -1.
         21    1    1    2  505  502  0.61636548930E+02 -0.28960360081E+02  0.54674286010E+03  0.55096780459E+03  0.00000000000E+00 0. -1.
         21    1    1    2  506  504 -0.18390897956E+02  0.46619034215E+02  0.23756445758E+02  0.55461051142E+02  0.00000000000E+00 0. -1.
<scales pt_clust_3="63.15670" pt_clust_4="40.55389" pt_clust_5="104.27091" pt_clust_6="40.55389"></scales>
<clustering>
<clus scale="   40.554">  4  6 -1 -1</clus>
<clus scale="   63.157">  1  3  2 -1</clus>
<clus scale="  104.271">  1  5  2 -1</clus>
<clus scale="   63.157">  1  3  2 -1</clus>
</clustering>
</event>
<event>
 6    0  0.8777103E+002  0.1463662E+03  0.7546771E-02  0.1205011E+00
         21   -1    0    0  504  501  0.00000000000E+00  0.00000000000E+00  0.97441033207E+02  0.97441033207E+02  0.00000000000E+00 0.  1.
         21   -1    0    0  506  502 -0.00000000000E+00 -0.00000000000E+00 -0.40537104496E+03  0.40537104496E+03  0.00000000000E+00 0.  1.
         21    1    1    2  503  502 -0.11305385118E+02  0.36047169347E+02 -0.27181526881E+02  0.46540794516E+02  0.00000000000E+00 0.  1.
         21    1    1    2  504  503  0.12484263433E+02  0.92213679034E+02  0.13041530495E+02  0.93964360010E+02  0.00000000000E+00 0.  1.
         21    1    1    2  505  501  0.36453180311E+02 -0.15339874114E+03 -0.17693006478E+03  0.23698999126E+03  0.00000000000E+00 0.  1.
         21    1    1    2  506  505 -0.37632058626E+02  0.25137892755E+02 -0.11685995059E+03  0.12531693238E+03  0.00000000000E+00 0.  1.
<scales pt_clust_3="35.41588" pt_clust_4="35.41588" pt_clust_5="135.40139" pt_clust_6="45.25578"></scales>
<clustering>
<clus scale="   35.416">  3  4 -1 -1</clus>
<clus scale="   45.256">  2  6  1 -1</clus>
<clus scale="  135.401">  2  5  1 -1</clus>
<clus scale="  146.366">  1  3  2 -1</clus>
</clustering>
</event>
<event>
 6    0  0.8777103E+002  0.1043895E+03  0.7546771E-02  0.1271327E+00
         21   -1    0    0  505  501  0.00000000000E+00  0.00000000000E+00  0.21969350379E+04  0.21969350379E+04  0.00000000000E+00 0.  1.
         21   -1    0    0  506  502 -0.00000000000E+00 -0.00000000000E+00 -0.45348671215E+02  0.45348671215E+02  0.00000000000E+00 0.  1.
         21    1    1    2  503  504 -0.54366789896E+02  0.53871384861E+02  0.76773967696E+03  0.77154525826E+03  0.00000000000E+00 0.  1.
         21    1    1    2  504  502  0.68264937718E+02  0.79330997553E+01  0.43599978390E+02  0.81387922378E+02  0.00000000000E+00 0. -1.
         21    1    1    2  505  503 -0.31751637718E+02  0.26120470546E+02  0.12813886088E+04  0.12820480538E+04  0.00000000000E+00 0.  1.
         21    1    1    2  506  501  0.17853489895E+02 -0.87924955162E+02  0.58858102544E+02  0.10730247470E+03  0.00000000000E+00 0.  1.
<scales pt_clust_3="14000.00000" pt_clust_4="66.80723" pt_clust_5="41.11503" pt_clust_6="104.38948"></scales>
<clustering>
<clus scale="   41.115">  1  5  2 -1</clus>
<clus scale="   66.807">  2  4  1 -1</clus>
<clus scale="  104.389">  2  6  1 -1</clus>
<clus scale="   41.115">  1  3  2 -1</clus>
</clustering>
</event>
<event>
 6    0  0.8777103E+002  0.1296984E+03  0.7546771E-02  0.1227904E+00
         21   -1    0    0  504  501  0.00000000000E+00  0.00000000000E+00  0.78681015664E+03  0.78681015664E+03  0.00000000000E+00 0.  1.
         21   -1    0    0  505  502 -0.00000000000E+00 -0.00000000000E+00 -0.19516915864E+03  0.19516915864E+03  0.00000000000E+00 0.  1.
         21    1    1    2  503  501  0.11013513649E+03  0.13291623078E+03  0.91158428195E+02  0.19520843149E+03  0.00000000000E+00 0.  1.
         21    1    1    2  504  506 -0.20430759372E+02 -0.47233833749E+02  0.60010729720E+03  0.60230990290E+03  0.00000000000E+00 0.  1.
         21    1    1    2  505  503 -0.49018666411E+02 -0.95317043156E+02 -0.93441691586E+02  0.14219535189E+03  0.00000000000E+00 0.  1.
         21    1    1    2  506  502 -0.40685710711E+02  0.96346461253E+01 -0.61830358157E+01  0.42265628990E+02  0.00000000000E+00 0.  1.
<scales pt_clust_3="14000.00000" pt_clust_4="51.51088" pt_clust_5="129.69843" pt_clust_6="41.81093"></scales>
<clustering>
<clus scale="   41.811">  2  6  1 -1</clus>
<clus scale="   51.511">  1  4  2 -1</clus>
<clus scale="  129.698">  2  5  1 -1</clus>
<clus scale="   51.511">  1  3  2 -1</clus>
</clustering>
</event>
<event>
 6    0  0.8777103E+002  0.1574453E+03  0.7546771E-02  0.1191612E+00
         21   -1    0    0  504  501  0.00000000000E+00  0.00000000000E+00  0.21740611854E+03  0.21740611854E+03  0.00000000000E+00 0. -1.
         21   -1    0    0  505  502 -0.00000000000E+00 -0.00000000000E+00 -0.34189367199E+03  0.34189367199E+03  0.00000000000E+00 0. -1.
         21    1    1    2  503  506 -0.28501896027E+02  0.20224372735E+03 -0.48165175184E+01  0.20429900188E+03  0.00000000000E+00 0. -1.
         21    1    1    2  504  502  0.29883474443E+01 -0.12947328765E+03 -0.11619483264E+03  0.17399282045E+03  0.00000000000E+00 0. -1.
         21    1    1    2  505  503  0.30706458867E+02 -0.19651504390E+02 -0.79881522367E+02  0.87807322340E+02  0.00000000000E+00 0. -1.
         21    1    1    2  506  501 -0.51929102843E+01 -0.53118935308E+02  0.76405319079E+02  0.93200645862E+02  0.00000000000E+00 0. -1.
<scales pt_clust_3="14000.00000" pt_clust_4="157.44526" pt_clust_5="36.45639" pt_clust_6="53.92177"></scales>
<clustering>
<clus scale="   36.456">  2  5  1 -1</clus>
<clus scale="   53.922">  1  6  2 -1</clus>
<clus scale="  157.445">  2  4  1 -1</clus>
<clus scale="   53.922">  1  3  2 -1</clus>
</clustering>
</event>
<event>
 6    0  0.8777103E+002  0.1219834E+03  0.7546771E-02  0.1239860E+00
         21   -1    0    0  504  501  0.00000000000E+00  0.00000000000E+00  0.46030466644E+03  0.46030466644E+03  0.00000000000E+00 0. -1.
         21   -1    0    0  506  502 -0.00000000000E+00 -0.00000000000E+00 -0.26359118494E+03  0.26359118494E+03  0.00000000000E+00 0.  1.
         21    1    1    2  503  502 -0.55998498879E+02  0.44985996452E+02 -0.65245373748E+02  0.97038809499E+02  0.00000000000E+00 0.  1.
         21    1    1    2  504  503  0.62437377163E+02 -0.36678544882E+02  0.27275388029E+03  0.28220280108E+03  0.00000000000E+00 0. -1.
         21    1    1    2  505  501 -0.82503429694E+02 -0.93067155057E+02  0.11889411295E+03  0.17205848237E+03  0.00000000000E+00 0.  1.
         21    1    1    2  506  505  0.76064551410E+02  0.84759703487E+02 -0.12968913799E+03  0.17259575843E+03  0.00000000000E+00 0. -1.
<scales pt_clust_3="71.83016" pt_clust_4="70.57387" pt_clust_5="14000.00000" pt_clust_6="121.98339"></scales>
<clustering>
<clus scale="   71.830">  2  3  1 -1</clus>
<clus scale="   70.574">  1  4  2 -1</clus>
<clus scale="  121.983">  2  6  1 -1</clus>
<clus scale="   70.574">  1  3  2 -1</clus>
</clustering>
</event>
<event>
 6    0  0.8777103E+002  0.1011475E+03  0.7546771E-02  0.1277901E+00
         21   -1    0    0  503  501  0.00000000000E+00  0.00000000000E+00  0.42933771015E+03  0.42933771015E+03  0.00000000000E+00 0. -1.
         21   -1    0    0  504  502 -0.00000000000E+00 -0.00000000000E+00 -0.25945510742E+03  0.25945510742E+03  0.00000000000E+00 0.  1.
         21    1    1    2  503  505 -0.29273894472E+02  0.96938558213E+02  0.35315200398E+03  0.36738315541E+03  0.00000000000E+00 0. -1.
         21    1    1    2  504  501 -0.46333538040E+02 -0.54132298768E+02  0.11316489262E+02  0.72146832546E+02  0.00000000000E+00 0. -1.
         21    1    1    2  505  506  0.94928110824E+02 -0.73078818496E+02 -0.15282917073E+03  0.19418706281E+03  0.00000000000E+00 0.  1.
         21    1    1    2  506  502 -0.19320678313E+02  0.30272559051E+02 -0.41756719780E+02  0.55075766801E+02  0.00000000000E+00 0. -1.
<scales pt_clust_3="101.14748" pt_clust_4="69.92550" pt_clust_5="14000.00000" pt_clust_6="35.91262"></scales>
<clustering>
<clus scale="   35.913">  2  6  1 -1</clus>
<clus scale="   69.925">  2  4  1 -1</clus>
<clus scale="  101.147">  1  3  2 -1</clus>
<clus scale="  101.147">  1  3  2 -1</clus>
</clustering>
</event>
<event>
 6    0  0.8777103E+002  0.1079187E+03  0.7546771E-02  0.1264473E+00
         21   -1    0    0  502  501  0.00000000000E+00  0.00000000000E+00  0.19264463330E+02  0.19264463330E+02  0.00000000000E+00 0.  1.
         21   -1    0    0  503  502 -0.00000000000E+00 -0.00000000000E+00 -0.27413923658E+04  0.27413923658E+04  0.00000000000E+00 0. -1.
         21    1    1    2  503  505  0.17311119724E+02 -0.26614149419E+02 -0.15877035528E+04  0.15880209569E+04  0.00000000000E+00 0. -1.
         21    1    1    2  504  501 -0.28036713958E+02  0.32029612979E+02 -0.52108479533E+02  0.67284820550E+02  0.00000000000E+00 0.  1.
         21    1    1    2  505  506  0.10511395389E+03  0.22810223526E+02 -0.78015979448E+03  0.78753955743E+03  0.00000000000E+00 0. -1.
         21    1    1    2  506  504 -0.94388359655E+02 -0.28225687086E+02 -0.30215607559E+03  0.31781149423E+03  0.00000000000E+00 0. -1.
<scales pt_clust_3="31.74882" pt_clust_4="40.94128" pt_clust_5="107.91868" pt_clust_6="14000.00000"></scales>
<clustering>
<clus scale="   31.749">  2  3  1 -1</clus>
<clus scale="   40.941">  1  4  2 -1</clus>
<clus scale="  107.919">  2  5  1 -1</clus>
<clus scale="   40.941">  1  3  2 -1</clus>
</clustering>
</event>
<event>
 6    0  0.8777103E+002  0.1276217E+03  0.7546771E-02  0.1231028E+00
         21   -1    0    0  502  501  0.00000000000E+00  0.00000000000E+00  0.70075896857E+03  0.70075896857E+03  0.00000000000E+00 0.  1.
         21   -1    0    0  504  502 -0.00000000000E+00 -0.00000000000E+00 -0.47594948042E+03  0.47594948042E+03  0.00000000000E+00 0. -1.
         21    1    1    2  503  506 -0.61922361067E+02 -0.98914835239E+02  0.16980009380E+03  0.20603542241E+03  0.00000000000E+00 0.  1.
         21    1    1    2  504  505  0.58734054911E+01  0.62620835690E+02 -0.31014674330E+03  0.31645990004E+03  0.00000000000E+00 0. -1.
         21    1    1    2  505  503  0.19202282038E+02  0.54513241987E+02 -0.13787833186E+03  0.14950202535E+03  0.00000000000E+00 0. -1.
         21    1    1    2  506  501  0.36846673538E+02 -0.18219242439E+02  0.50303446951E+03  0.50471110118E+03  0.00000000000E+00 0.  1.
<scales pt_clust_3="119.34170" pt_clust_4="43.37860" pt_clust_5="43.37860" pt_clust_6="41.10496"></scales>
<clustering>
<clus scale="   41.105">  1  6  2 -1</clus>
<clus scale="   43.379">  4  5 -1 -1</clus>
<clus scale="  119.342">  1  3  2 -1</clus>
<clus scale="   41.105">  1  3  2 -1</clus>
</clustering>
</event>
<event>
 6    0  0.8777103E+002  0.1192624E+03  0.7546771E-02  0.1244319E+00
         21   -1    0    0  506  501  0.00000000000E+00  0.00000000000E+00  0.74316802855E+03  0.74316802855E+03  0.00000000000E+00 0. -1.
         21   -1    0    0  503  502 -0.00000000000E+00 -0.00000000000E+00 -0.67421310259E+03  0.67421310259E+03  0.00000000000E+00 0. -1.
         21    1    1    2  503  505 -0.60041451000E+02  0.54656303782E+02 -0.24216272049E+02  0.84727299103E+02  0.00000000000E+00 0. -1.
         21    1    1    2  504  502 -0.62085969625E+02 -0.22505523248E+02 -0.56877236840E+03  0.57259337514E+03  0.00000000000E+00 0. -1.
         21    1    1    2  505  501 -0.45368877737E+02  0.46180655559E+02  0.52746401058E+03  0.53142193262E+03  0.00000000000E+00 0. -1.
         21    1    1    2  506  504  0.16749629836E+03 -0.78331436093E+02  0.13447955582E+03  0.22863852427E+03  0.00000000000E+00 0. -1.
<scales pt_clust_3="119.26242" pt_clust_4="66.28181" pt_clust_5="64.73784" pt_clust_6="14000.00000"></scales>
<clustering>
<clus scale="   64.738">  1  5  2 -1</clus>
<clus scale="   66.282">  2  4  1 -1</clus>
<clus scale="  119.262">  2  3  1 -1</clus>
<clus scale="   64.738">  1  3  2 -1</clus>
</clustering>
</event>
<event>
 6    0  0.8777103E+002  0.1010073E+03  0.7546771E-02  0.1278192E+00
         21   -1    0    0  506  501  0.00000000000E+00  0.00000000000E+00  0.14632440547E+04  0.14632440547E+04  0.00000000000E+00 0.  1.
         21   -1    0    0  503  502 -0.00000000000E+00 -0.00000000000E+00 -0.61932578705E+02  0.61932578705E+02  0.00000000000E+00 0. -1.
         21    1    1    2  503  504 -0.76236882487E+01 -0.76591345171E+02  0.21240070331E+03  0.22591682882E+03  0.00000000000E+00 0. -1.
         21    1    1    2  504  501  0.41842668997E+02  0.11471411486E+02  0.21231097511E+03  0.21669875954E+03  0.00000000000E+00 0. -1.
         21    1    1    2  505  502 -0.96767109286E+02  0.37494379246E+02  0.20744813827E+00  0.10377738168E+03  0.00000000000E+00 0. -1.
         21    1    1    2  506  505  0.62548128537E+02  0.27625554438E+02  0.97639234945E+03  0.97878366338E+03  0.00000000000E+00 0.  1.
<scales pt_clust_3="74.57859" pt_clust_4="43.38666" pt_clust_5="101.00730" pt_clust_6="14000.00000"></scales>
<clustering>
<clus scale="   43.387">  1  4  2 -1</clus>
<clus scale="   74.579">  1  3  2 -1</clus>
<clus scale="  101.007">  2  5  1 -1</clus>
<clus scale="   43.387">  1  3  2 -1</clus>
</clustering>
</event>
<event>
 6    0  0.8777103E+002  0.9998084E+02  0.7546771E-02  0.1280336E+00
         21   -1    0    0  503  501  0.00000000000E+00  0.00000000000E+00  0.39302385359E+02  0.39302385359E+02  0.00000000000E+00 0.  1.
         21   -1    0    0  505  502 -0.00000000000E+00 -0.00000000000E+00 -0.16307672334E+04  0.16307672334E+04  0.00000000000E+00 0. -1.
         21    1    1    2  503  502  0.14094443179E+02  0.44194986988E+02 -0.20620416245E+03  0.21135753314E+03  0.00000000000E+00 0. -1.
         21    1    1    2  504  506 -0.11122395530E+03 -0.53608560192E+02 -0.10864033813E+03  0.16446084344E+03  0.00000000000E+00 0.  1.
         21    1    1    2  505  504  0.60972712031E+02  0.25572605078E+02 -0.12351131018E+04  0.12368815642E+04  0.00000000000E+00 0. -1.
         21    1    1    2  506  501  0.36156800085E+02 -0.16159031874E+02 -0.41507245680E+02  0.57369677944E+02  0.00000000000E+00 0.  1.
<scales pt_clust_3="46.13926" pt_clust_4="14000.00000" pt_clust_5="99.98084" pt_clust_6="39.60339"></scales>
<clustering>
<clus scale="   39.603">  1  6  2 -1</clus>
<clus scale="   46.139">  2  3  1 -1</clus>
<clus scale="   99.981">  2  5  1 -1</clus>
<clus scale="   39.603">  1  3  2 -1</clus>
</clustering>
</event>
<event>
 6    0  0.8777103E+002  0.1100313E+03  0.7546771E-02  0.1260512E+00
         21   -1    0    0  503  501  0.00000000000E+00  0.00000000000E+00  0.14640574830E+04  0.14640574830E+04  0.00000000000E+00 0. -1.
         21   -1    0    0  506  502 -0.00000000000E+00 -0.00000000000E+00 -0.15304982075E+03  0.15304982075E+03  0.00000000000E+00 0.  1.
         21    1    1    2  503  504 -0.31405144753E+02  0.10366439149E+03  0.12954751190E+04  0.12999955281E+04  0.00000000000E+00 0. -1.
         21    1    1    2  504  505  0.94656219846E+02 -0.13082881447E+03  0.57876363848E+02  0.17153906885E+03  0.00000000000E+00 0.  1.
         21    1    1    2  505  502 -0.28494431587E+02 -0.17735410452E+02 -0.73503922467E+02  0.80804109013E+02  0.00000000000E+00 0.  1.
         21    1    1    2  506  501 -0.34756643507E+02  0.44899833430E+02  0.31160101888E+02  0.64768597789E+02  0.00000000000E+00 0. -1.
<scales pt_clust_3="110.03135" pt_clust_4="14000.00000" pt_clust_5="33.56304" pt_clust_6="58.01013"></scales>
<clustering>
<clus scale="   33.563">  2  5  1 -1</clus>
<clus scale="   58.010">  2  6  1 -1</clus>
<clus scale="  110.031">  1  3  2 -1</clus>
<clus scale="  110.031">  1  3  2 -1</clus>
</clustering>
</event>
<event>
 6    0  0.8777103E+002  0.6269448E+02  0.7546771E-02  0.1386860E+00
         21   -1    0    0  505  501  0.00000000000E+00  0.00000000000E+00  0.12428450973E+04  0.12428450973E+04  0.00000000000E+00 0. -1.
         21   -1    0    0  504  502 -0.00000000000E+00 -0.00000000000E+00 -0.94351943633E+02  0.94351943633E+02  0.00000000000E+00 0.  1.
         21    1    1    2  503  501  0.17721381263E+02 -0.26993703167E+02  0.19388360979E+03  0.19655422028E+03  0.00000000000E+00 0.  1.
         21    1    1    2  504  503 -0.13957509378E+02  0.59463524510E+02 -0.11538716205E+02  0.62159993459E+02  0.00000000000E+00 0.  1.
         21    1    1    2  505  506 -0.65196812235E+02  0.60921617577E+02  0.96251106644E+03  0.96663830921E+03  0.00000000000E+00 0. -1.
         21    1    1    2  506  502  0.61432940350E+02 -0.93391438920E+02  0.36371936326E+01  0.11184451798E+03  0.00000000000E+00 0.  1.
<scales pt_clust_3="32.29098" pt_clust_4="60.34749" pt_clust_5="14000.00000" pt_clust_6="62.69448"></scales>
<clustering>
<clus scale="   32.291">  1  3  2 -1</clus>
<clus scale="   60.347">  2  4  1 -1</clus>
<clus scale="   62.694">  2  6  1 -1</clus>
<clus scale="   32.291">  1  3  2 -1</clus>
</clustering>
</event>
<event>
 6    0  0.8777103E+002  0.9890370E+02  0.7546771E-02  0.1282618E+00
         21   -1    0    0  504  501  0.00000000000E+00  0.00000000000E+00  0.48502433082E+03  0.48502433082E+03  0.00000000000E+00 0. -1.
         21   -1    0    0  503  502 -0.00000000000E+00 -0.00000000000E+00 -0.16574668686E+04  0.16574668686E+04  0.00000000000E+00 0. -1.
         21    1    1    2  503  505  0.20254011704E+02  0.23705603438E+02 -0.15296895307E+04  0.15300072683E+04  0.00000000000E+00 0. -1.
         21    1    1    2  504  506 -0.10397579952E+03 -0.72407502464E+02  0.18241305120E+03  0.22209983014E+03  0.00000000000E+00 0. -1.
         21    1    1    2  505  501  0.90522457418E+02  0.14083154310E+02  0.27199889101E+03  0.28701227717E+03  0.00000000000E+00 0. -1.
         21    1    1    2  506  502 -0.68006695991E+01  0.34618744717E+02 -0.97164949299E+02  0.10337182384E+03  0.00000000000E+00 0.  1.
<scales pt_clust_3="31.17981" pt_clust_4="14000.00000" pt_clust_5="98.90370" pt_clust_6="54.01816"></scales>
<clustering>
<clus scale="   31.180">  2  3  1 -1</clus>
<clus scale="   54.018">  2  6  1 -1</clus>
<clus scale="   98.904">  1  5  2 -1</clus>
<clus scale="   98.904">  1  3  2 -1</clus>
</clustering>
</event>
<event>
 6    0  0.8777103E+002  0.1034058E+03  0.7546771E-02  0.1273293E+00
         21   -1    0    0  505  501  0.00000000000E+00  0.00000000000E+00  0.62052968566E+03  0.62052968566E+03  0.00000000000E+00 0.  1.
         21   -1    0    0  503  502 -0.00000000000E+00 -0.00000000000E+00 -0.86774441148E+03  0.86774441148E+03  0.00000000000E+00 0.  1.
         21    1    1    2  503  504 -0.15554109790E+02  0.45533639225E+02 -0.90786817482E+02  0.10274964166E+03  0.00000000000E+00 0.  1.
         21    1    1    2  504  506  0.98553881313E+02 -0.41096356718E+02  0.23150388946E+03  0.25494279533E+03  0.00000000000E+00 0.  1.
         21    1    1    2  505  502 -0.20064636635E+02  0.54042984924E+02 -0.75317126078E+03  0.75537419994E+03  0.00000000000E+00 0.  1.
         21    1    1    2  506  501 -0.62935134888E+02 -0.58480267431E+02  0.36523946298E+03  0.37520746022E+03  0.00000000000E+00 0.  1.
<scales pt_clust_3="48.11697" pt_clust_4="14000.00000" pt_clust_5="103.40577" pt_clust_6="85.78519"></scales>
<clustering>
<clus scale="   48.117">  2  3  1 -1</clus>
<clus scale="   85.785">  1  6  2 -1</clus>
<clus scale="  103.406">  2  5  1 -1</clus>
<clus scale="   85.785">  1  3  2 -1</clus>
</clustering>
</event>
<event>
 6    0  0.8777103E+002  0.1167911E+03  0.7546771E-02  0.1248487E+00
         21   -1    0    0  504  501  0.00000000000E+00  0.00000000000E+00  0.76308464130E+03  0.76308464130E+03  0.00000000000E+00 0. -1.
         21   -1    0    0  505  502 -0.00000000000E+00 -0.00000000000E+00 -0.64338074274E+03  0.64338074274E+03  0.00000000000E+00 0. -1.
         21    1    1    2  503  506  0.12743569150E+03  0.54535453934E+02  0.45243858444E+03  0.47319620021E+03  0.00000000000E+00 0. -1.
         21    1    1    2  504  502 -0.11244566367E+03 -0.71468243861E+02 -0.58467120724E+03  0.59966003513E+03  0.00000000000E+00 0. -1.
         21    1    1    2  505  503  0.48909833247E+02 -0.26314482616E+02 -0.13524125166E+02  0.57162275541E+02  0.00000000000E+00 0. -1.
         21    1    1    2  506  501 -0.63899861080E+02  0.43247272543E+02  0.26546064652E+03  0.27644687316E+03  0.00000000000E+00 0.  1.
<scales pt_clust_3="14000.00000" pt_clust_4="116.79113" pt_clust_5="55.53939" pt_clust_6="76.65989"></scales>
<clustering>
<clus scale="   55.539">  2  5  1 -1</clus>
<clus scale="   76.660">  1  6  2 -1</clus>
<clus scale="  116.791">  2  4  1 -1</clus>
<clus scale="   76.660">  1  3  2 -1</clus>
</clustering>
</event>
<event>
 6    0  0.8777103E+002  0.1310380E+03  0.7546771E-02  0.1225924E+00
         21   -1    0    0  504  501  0.00000000000E+00  0.00000000000E+00  0.40285503667E+03  0.40285503667E+03  0.00000000000E+00 0. -1.
         21   -1    0    0  505  502 -0.00000000000E+00 -0.00000000000E+00 -0.54035383051E+03  0.54035383051E+03  0.00000000000E+00 0. -1.
         21    1    1    2  503  506  0.45603585800E+02  0.62464984148E+01 -0.38245233568E+02  0.59844829943E+02  0.00000000000E+00 0. -1.
         21    1    1    2  504  502  0.21730333002E+01  0.78301259114E+02 -0.16311134326E+03  0.18094507330E+03  0.00000000000E+00 0.  1.
         21    1    1    2  505  503  0.13397793764E+02  0.36029491455E+02 -0.30611242524E+03  0.30851651822E+03  0.00000000000E+00 0. -1.
         21    1    1    2  506  501 -0.61174412864E+02 -0.12057724898E+03  0.36997020823E+03  0.39390244571E+03  0.00000000000E+00 0. -1.
<scales pt_clust_3="50.35930" pt_clust_4="14000.00000" pt_clust_5="38.43989" pt_clust_6="131.03799"></scales>
<clustering>
<clus scale="   38.440">  2  5  1 -1</clus>
<clus scale="   50.359">  2  3  1 -1</clus>
<clus scale="  131.038">  1  6  2 -1</clus>
<clus scale="  131.038">  1  3  2 -1</clus>
</clustering>
</event>
<event>
 6    0  0.8777103E+002  0.1014423E+03  0.7546771E-02  0.1277292E+00
         21   -1    0    0  504  501  0.00000000000E+00  0.00000000000E+00  0.11209416629E+04  0.11209416629E+04  0.00000000000E+00 0. -1.
         21   -1    0    0  505  502 -0.00000000000E+00 -0.00000000000E+00 -0.16963347654E+03  0.16963347654E+03  0.00000000000E+00 0.  1.
         21    1    1    2  503  501  0.19335086199E+02 -0.24037205844E+02  0.15146537714E+03  0.15457487925E+03  0.00000000000E+00 0. -1.
         21    1    1    2  504  506  0.68971816761E+02 -0.28260967529E+02  0.88624325377E+03  0.88937219354E+03  0.00000000000E+00 0. -1.
         21    1    1    2  505  503 -0.80192304954E+02  0.12849376829E+03 -0.75472344644E+02  0.16922626590E+03  0.00000000000E+00 0.  1.
         21    1    1    2  506  502 -0.81145980060E+01 -0.76195594922E+02 -0.10928099931E+02  0.77401800718E+02  0.00000000000E+00 0. -1.
<scales pt_clust_3="30.84855" pt_clust_4="101.44228" pt_clust_5="14000.00000" pt_clust_6="77.38053"></scales>
<clustering>
<clus scale="   30.849">  1  3  2 -1</clus>
<clus scale="   77.381">  2  6  1 -1</clus>
<clus scale="  101.442">  1  4  2 -1</clus>
<clus scale="   30.849">  1  3  2 -1</clus>
</clustering>
</event>
<event>
 6    0  0.8777103E+002  0.1151512E+03  0.7546771E-02  0.1251317E+00
         21   -1    0    0  504  501  0.00000000000E+00  0.00000000000E+00  0.63453108910E+02  0.63453108910E+02  0.00000000000E+00 0.  1.
         21   -1    0    0  505  502 -0.00000000000E+00 -0.00000000000E+00 -0.77204922225E+03  0.77204922225E+03  0.00000000000E+00 0.  1.
         21    1    1    2  503  502  0.42710861673E+02  0.61023862485E+01 -0.28801209645E+03  0.29122572778E+03  0.00000000000E+00 0.  1.
         21    1    1    2  504  506 -0.29926290274E+01 -0.80364842035E+02 -0.37936276493E+02  0.88919203427E+02  0.00000000000E+00 0.  1.
         21    1    1    2  505  501 -0.13528159189E+03  0.65613022859E+02 -0.24800626818E+03  0.29002290759E+03  0.00000000000E+00 0.  1.
         21    1    1    2  506  503  0.95563359248E+02  0.86494329277E+01 -0.13464147222E+03  0.16533449236E+03  0.00000000000E+00 0.  1.
<scales pt_clust_3="43.14460" pt_clust_4="79.60575" pt_clust_5="14000.00000" pt_clust_6="115.15117"></scales>
<clustering>
<clus scale="   43.145">  2  3  1 -1</clus>
<clus scale="   79.606">  1  4  2 -1</clus>
<clus scale="  115.151">  1  6  2 -1</clus>
<clus scale="   79.606">  1  3  2 -1</clus>
</clustering>
</event>
<event>
 6    0  0.8777103E+002  0.8041427E+02  0.7546771E-02  0.1327880E+00
         21   -1    0    0  505  501  0.00000000000E+00  0.00000000000E+00  0.83153539165E+02  0.83153539165E+02  0.00000000000E+00 0. -1.
         21   -1    0    0  504  502 -0.00000000000E+00 -0.00000000000E+00 -0.61385398436E+03  0.61385398436E+03  0.00000000000E+00 0.  1.
         21    1    1    2  503  506  0.10238927342E+03  0.38358417160E+02 -0.16748734787E+03  0.20001735719E+03  0.00000000000E+00 0.  1.
         21    1    1    2  504  501 -0.45539982465E+02  0.16789765556E+02 -0.24589448231E+03  0.25063894881E+03  0.00000000000E+00 0.  1.
         21    1    1    2  505  503 -0.76734751189E+02 -0.63707615184E+01  0.35441861975E+02  0.84763991308E+02  0.00000000000E+00 0. -1.
         21    1    1    2  506  502  0.19885460230E+02 -0.48777421198E+02 -0.15276047699E+03  0.16158722622E+03  0.00000000000E+00 0.  1.
<scales pt_clust_3="14000.00000" pt_clust_4="48.53644" pt_clust_5="80.41427" pt_clust_6="41.56027"></scales>
<clustering>
<clus scale="   48.536">  2  4  1 -1</clus>
<clus scale="   41.560">  2  6  1 -1</clus>
<clus scale="   80.414">  1  5  2 -1</clus>
<clus scale="   80.414">  1  3  2 -1</clus>
</clustering>
</event>
<event>
 6    0  0.8777103E+002  0.1978582E+03  0.7546771E-02  0.1151559E+00
         21   -1    0    0  506  501  0.00000000000E+00  0.00000000000E+00  0.11690781728E+04  0.11690781728E+04  0.00000000000E+00 0.  1.
         21   -1    0    0  503  502 -0.00000000000E+00 -0.00000000000E+00 -0.22053477642E+03  0.22053477642E+03  0.00000000000E+00 0. -1.
         21    1    1    2  503  505 -0.38473141803E+02  0.20363028643E+02 -0.71327624679E+02  0.83561148976E+02  0.00000000000E+00 0. -1.
         21    1    1    2  504  502 -0.15352254801E+03 -0.10498294568E+03 -0.61234863936E+02  0.19580679302E+03  0.00000000000E+00 0. -1.
         21    1    1    2  505  501  0.92841239203E+02 -0.31181380194E+02  0.49803544476E+03  0.50757371722E+03  0.00000000000E+00 0.  1.
         21    1    1    2  506  504  0.99154450607E+02  0.11580129724E+03  0.58307044019E+03  0.60267128996E+03  0.00000000000E+00 0.  1.
<scales pt_clust_3="43.52971" pt_clust_4="197.85815" pt_clust_5="96.50624" pt_clust_6="14000.00000"></scales>
<clustering>
<clus scale="   43.530">  2  3  1 -1</clus>
<clus scale="   96.506">  1  5  2 -1</clus>
<clus scale="  197.858">  2  4  1 -1</clus>
<clus scale="   96.506">  1  3  2 -1</clus>
</clustering>
</event>
<event>
 6    0  0.8777103E+002  0.8308869E+02  0.7546771E-02  0.1320508E+00
         21   -1    0    0  504  501  0.00000000000E+00  0.00000000000E+00  0.11589821068E+04  0.11589821068E+04  0.00000000000E+00 0.  1.
         21   -1    0    0  503  502 -0.00000000000E+00 -0.00000000000E+00 -0.36735141665E+03  0.36735141665E+03  0.00000000000E+00 0.  1.
         21    1    1    2  503  506  0.93402869878E+02  0.62599943875E+02  0.18104713916E+02  0.11388867257E+03  0.00000000000E+00 0.  1.
         21    1    1    2  504  505 -0.57013940752E+02  0.31604245332E+02 -0.24575428739E+03  0.25425299907E+03  0.00000000000E+00 0.  1.
         21    1    1    2  505  502 -0.28788970867E+02 -0.34501591344E+02 -0.61261902408E+02  0.75974899378E+02  0.00000000000E+00 0. -1.
         21    1    1    2  506  501 -0.75999582585E+01 -0.59702597862E+02  0.10805421660E+04  0.10822169524E+04  0.00000000000E+00 0.  1.
<scales pt_clust_3="83.08869" pt_clust_4="14000.00000" pt_clust_5="44.93512" pt_clust_6="60.29055"></scales>
<clustering>
<clus scale="   44.935">  2  5  1 -1</clus>
<clus scale="   60.291">  1  6  2 -1</clus>
<clus scale="   83.089">  1  3  2 -1</clus>
<clus scale="   60.291">  1  3  2 -1</clus>
</clustering>
</event>
<event>
 6    0  0.8777103E+002  0.6901709E+02  0.7546771E-02  0.1363468E+00
         21   -1    0    0  503  501  0.00000000000E+00  0.00000000000E+00  0.90695410814E+03  0.90695410814E+03  0.00000000000E+00 0. -1.
         21   -1    0    0  506  502 -0.00000000000E+00 -0.00000000000E+00 -0.16725604390E+03  0.16725604390E+03  0.00000000000E+00 0. -1.
         21    1    1    2  503  505 -0.38940724979E+02  0.46971362382E+02  0.70144908132E+03  0.70409765134E+03  0.00000000000E+00 0. -1.
         21    1    1    2  504  501  0.62129058876E+02 -0.10213772409E+03  0.15756602162E+03  0.19778570678E+03  0.00000000000E+00 0. -1.
         21    1    1    2  505  502  0.22977559117E+01  0.82688081214E+02 -0.60171590779E+02  0.10228987630E+03  0.00000000000E+00 0. -1.
         21    1    1    2  506  504 -0.25486089809E+02 -0.27521719510E+02 -0.59145447916E+02  0.70036917606E+02  0.00000000000E+00 0.  1.
<scales pt_clust_3="60.95225" pt_clust_4="69.01709" pt_clust_5="14000.00000" pt_clust_6="37.50981"></scales>
<clustering>
<clus scale="   37.510">  2  6  1 -1</clus>
<clus scale="   60.952">  1  3  2 -1</clus>
<clus scale="   69.017">  1  4  2 -1</clus>
<clus scale="   60.952">  1  3  2 -1</clus>
</clustering>
</event>
<event>
 6    0  0.8777103E+002  0.1511216E+03  0.7546771E-02  0.1199102E+00
         21   -1    0    0  503  501  0.00000000000E+00  0.00000000000E+00  0.38952556100E+03  0.38952556100E+03  0.00000000000E+00 0.  1.
         21   -1    0    0  504  502 -0.00000000000E+00 -0.00000000000E+00 -0.10654127714E+04  0.10654127714E+04  0.00000000000E+00 0.  1.
         21    1    1    2  503  505 -0.19119350207E+02 -0.15377889781E+03  0.34126872810E+03  0.37480374031E+03  0.00000000000E+00 0.  1.
         21    1    1    2  504  501 -0.87473841046E+02  0.64282257071E+02 -0.17284054579E+03  0.20410226777E+03  0.00000000000E+00 0.  1.
         21    1    1    2  505  506  0.12411452454E+03  0.62243221638E+02 -0.29802407171E+03  0.32878105353E+03  0.00000000000E+00 0.  1.
         21    1    1    2  506  502 -0.17521333283E+02  0.27253419104E+02 -0.54629132104E+03  0.54725127082E+03  0.00000000000E+00 0.  1.
<scales pt_clust_3="14000.00000" pt_clust_4="119.62314" pt_clust_5="151.12155" pt_clust_6="32.39978"></scales>
<clustering>
<clus scale="   32.400">  2  6  1 -1</clus>
<clus scale="  119.623">  2  4  1 -1</clus>
<clus scale="  151.122">  2  5  1 -1</clus>
<clus scale="  151.122">  1  3  2 -1</clus>
</clustering>
</event>
<event>
 6    0  0.8777103E+002  0.1500082E+03  0.7546771E-02  0.1200463E+00
         21   -1    0    0  504  501  0.00000000000E+00  0.00000000000E+00  0.12145256860E+04  0.12145256860E+04  0.00000000000E+00 0.  1.
         21   -1    0    0  505  502 -0.00000000000E+00 -0.00000000000E+00 -0.17097725490E+03  0.17097725490E+03  0.00000000000E+00 0.  1.
         21    1    1    2  503  501  0.25729798771E+01  0.39334071278E+02  0.14845901917E+03  0.15360296143E+03  0.00000000000E+00 0.  1.
         21    1    1    2  504  502 -0.27212023948E+02  0.75166393080E+02  0.82948745822E+03  0.83333062121E+03  0.00000000000E+00 0.  1.
         21    1    1    2  505  506  0.13897381851E+03  0.44460163859E+02 -0.68551106158E+02  0.16121315876E+03  0.00000000000E+00 0.  1.
         21    1    1    2  506  503 -0.11433477444E+03 -0.15896062822E+03  0.13415305988E+03  0.23735619951E+03  0.00000000000E+00 0. -1.
<scales pt_clust_3="39.41814" pt_clust_4="108.87331" pt_clust_5="150.00822" pt_clust_6="14000.00000"></scales>
<clustering>
<clus scale="   39.418">  1  3  2 -1</clus>
<clus scale="  108.873">  1  4  2 -1</clus>
<clus scale="  150.008">  2  5  1 -1</clus>
<clus scale="   39.418">  1  3  2 -1</clus>
</clustering>
</event>
<event>
 6    0  0.8777103E+002  0.7982864E+02  0.7546771E-02  0.1329538E+00
         21   -1    0    0  503  501  0.00000000000E+00  0.00000000000E+00  0.72632302504E+03  0.72632302504E+03  0.00000000000E+00 0. -1.
         21   -1    0    0  506  502 -0.00000000000E+00 -0.00000000000E+00 -0.74289149294E+03  0.74289149294E+03  0.00000000000E+00 0.  1.
         21    1    1    2  503  504 -0.78362751035E+02 -0.97445575536E+02  0.59882595717E+03  0.61174250132E+03  0.00000000000E+00 0. -1.
         21    1    1    2  504  505  0.67392043121E+02  0.19609789725E+02 -0.57499061930E+03  0.57925852917E+03  0.00000000000E+00 0.  1.
         21    1    1    2  505  502 -0.47588978172E+01  0.29850848140E+02 -0.15239501523E+03  0.15536396271E+03  0.00000000000E+00 0. -1.
         21    1    1    2  506  501  0.15729605731E+02  0.47984937670E+02  0.11199120946E+03  0.12284952477E+03  0.00000000000E+00 0. -1.
<scales pt_clust_3="79.82864" pt_clust_4="14000.00000" pt_clust_5="30.22781" pt_clust_6="50.74523"></scales>
<clustering>
<clus scale="   30.228">  2  5  1 -1</clus>
<clus scale="   50.745">  1  6  2 -1</clus>
<clus scale="   79.829">  1  3  2 -1</clus>
<clus scale="   50.745">  1  3  2 -1</clus>
</clustering>
</event>
<event>
 6    0  0.8777103E+002  0.5593549E+02  0.7546771E-02  0.1415726E+00
         21   -1    0    0  506  501  0.00000000000E+00  0.00000000000E+00  0.30867623917E+03  0.30867623917E+03  0.00000000000E+00 0.  1.
         21   -1    0    0  505  502 -0.00000000000E+00 -0.00000000000E+00 -0.22341650681E+03  0.22341650681E+03  0.00000000000E+00 0.  1.
         21    1    1    2  503  502 -0.20741954618E+02  0.33942569153E+02  0.32672899557E+01  0.39912427460E+02  0.00000000000E+00 0.  1.
         21    1    1    2  504  501 -0.47181375971E+02  0.24873208858E+02  0.22932674383E+03  0.23544747650E+03  0.00000000000E+00 0. -1.
         21    1    1    2  505  504 -0.21871489727E+02  0.30419848089E+02 -0.12200671604E+03  0.12762980835E+03  0.00000000000E+00 0.  1.
         21    1    1    2  506  503  0.89794820316E+02 -0.89235626101E+02 -0.25327585388E+02  0.12910303367E+03  0.00000000000E+00 0.  1.
<scales pt_clust_3="46.72429" pt_clust_4="55.93549" pt_clust_5="37.46637" pt_clust_6="14000.00000"></scales>
<clustering>
<clus scale="   37.466">  2  5  1 -1</clus>
<clus scale="   46.724">  2  3  1 -1</clus>
<clus scale="   55.935">  1  4  2 -1</clus>
<clus scale="   55.935">  1  3  2 -1</clus>
</clustering>
</event>
<event>
 6    0  0.8777103E+002  0.7703157E+02  0.7546771E-02  0.1337693E+00
         21   -1    0    0  504  501  0.00000000000E+00  0.00000000000E+00  0.30496630681E+03  0.30496630681E+03  0.00000000000E+00 0. -1.
         21   -1    0    0  505  502 -0.00000000000E+00 -0.00000000000E+00 -0.15148468776E+03  0.15148468776E+03  0.00000000000E+00 0.  1.
         21    1    1    2  503  501  0.55874487209E+02 -0.88693336153E+01  0.10467237981E+03  0.11898290001E+03  0.00000000000E+00 0. -1.
         21    1    1    2  504  506  0.30968543620E+02 -0.12670192720E+02  0.13884264377E+02  0.36226472017E+02  0.00000000000E+00 0.  1.
         21    1    1    2  505  503 -0.38921032998E+02  0.85014426790E+02  0.14067985121E+03  0.16891749498E+03  0.00000000000E+00 0. -1.
         21    1    1    2  506  502 -0.47921997831E+02 -0.63474900455E+02 -0.10575487636E+03  0.13232412757E+03  0.00000000000E+00 0.  1.
<scales pt_clust_3="69.65416" pt_clust_4="33.46019" pt_clust_5="77.03157" pt_clust_6="14000.00000"></scales>
<clustering>
<clus scale="   33.460">  1  4  2 -1</clus>
<clus scale="   69.654">  1  3  2 -1</clus>
<clus scale="   77.032">  1  5  2 -1</clus>
<clus scale="   33.460">  1  3  2 -1</clus>
</clustering>
</event>
<event>
 6    0  0.8777103E+002  0.2101695E+03  0.7546771E-02  0.1141432E+00
         21   -1    0    0  502  501  0.00000000000E+00  0.00000000000E+00  0.63246392244E+03  0.63246392244E+03  0.00000000000E+00 0.  1.
         21   -1    0    0  503  502 -0.00000000000E+00 -0.00000000000E+00 -0.39035080830E+03  0.39035080830E+03  0.00000000000E+00 0.  1.
         21    1    1    2  503  506 -0.93274628273E+01  0.28952105639E+02 -0.27254061445E+03  0.27423277067E+03  0.00000000000E+00 0.  1.
         21    1    1    2  504  505  0.49889247196E+02  0.86910033432E+02  0.19700365874E+02  0.10212930683E+03  0.00000000000E+00 0.  1.
         21    1    1    2  505  501 -0.11015216551E+03 -0.17614301929E+03  0.51224889559E+03  0.55277372753E+03  0.00000000000E+00 0.  1.
         21    1    1    2  506  504  0.69590381142E+02  0.60280880220E+02 -0.17295532870E+02  0.93678925724E+02  0.00000000000E+00 0. -1.
<scales pt_clust_3="30.41753" pt_clust_4="46.82128" pt_clust_5="204.39349" pt_clust_6="46.82128"></scales>
<clustering>
<clus scale="   30.418">  2  3  1 -1</clus>
<clus scale="   46.821">  4  6 -1 -1</clus>
<clus scale="  204.393">  1  5  2 -1</clus>
<clus scale="  204.393">  1  3  2 -1</clus>
</clustering>
</event>
<event>
 6    0  0.8777103E+002  0.2039991E+03  0.7546771E-02  0.1146408E+00
         21   -1    0    0  506  501  0.00000000000E+00  0.00000000000E+00  0.61096107052E+03  0.61096107052E+03  0.00000000000E+00 0.  1.
         21   -1    0    0  503  502 -0.00000000000E+00 -0.00000000000E+00 -0.77280365497E+03  0.77280365497E+03  0.00000000000E+00 0.  1.
         21    1    1    2  503  501 -0.10632580200E+03 -0.11651514953E+03 -0.36448752741E+03  0.39715502499E+03  0.00000000000E+00 0.  1.
         21    1    1    2  504  505  0.25066450259E+03  0.10865527062E+01 -0.17932938827E+03  0.30820918701E+03  0.00000000000E+00 0.  1.
         21    1    1    2  505  502  0.29555595607E+02  0.10817944146E+02 -0.12679966121E+03  0.13064729324E+03  0.00000000000E+00 0.  1.
         21    1    1    2  506  504 -0.17389429621E+03  0.10461065267E+03  0.50877399244E+03  0.54775322025E+03  0.00000000000E+00 0.  1.
<scales pt_clust_3="141.49420" pt_clust_4="203.99911" pt_clust_5="31.47318" pt_clust_6="14000.00000"></scales>
<clustering>
<clus scale="   31.473">  2  5  1 -1</clus>
<clus scale="  141.494">  2  3  1 -1</clus>
<clus scale="  203.999">  2  4  1 -1</clus>
<clus scale="  203.999">  1  3  2 -1</clus>
</clustering>
</event>
<event>
 6    0  0.8777103E+002  0.1230210E+03  0.7546771E-02  0.1238195E+00
         21   -1    0    0  505  501  0.00000000000E+00  0.00000000000E+00  0.44413340916E+03  0.44413340916E+03  0.00000000000E+00 0.  1.
         21   -1    0    0  504  502 -0.00000000000E+00 -0.00000000000E+00 -0.12421546503E+04  0.12421546503E+04  0.00000000000E+00 0. -1.
         21    1    1    2  503  506 -0.98415970131E+02 -0.20422172459E+01  0.24483287680E+03  0.26388067642E+03  0.00000000000E+00 0.  1.
         21    1    1    2  504  503  0.99621894545E+01 -0.13014410347E+03 -0.98803012791E+00  0.13052857576E+03  0.00000000000E+00 0.  1.
         21    1    1    2  505  502  0.64631599269E+02  0.10563364545E+03 -0.11609656196E+04  0.11675516607E+04  0.00000000000E+00 0. -1.
         21    1    1    2  506  501  0.23822181407E+02  0.26552675272E+02  0.11909953178E+03  0.12432714652E+03  0.00000000000E+00 0.  1.
<scales pt_clust_3="81.83628" pt_clust_4="14000.00000" pt_clust_5="123.02100" pt_clust_6="35.67269"></scales>
<clustering>
<clus scale="   35.673">  1  6  2 -1</clus>
<clus scale="   81.836">  1  3  2 -1</clus>
<clus scale="  123.021">  2  5  1 -1</clus>
<clus scale="   35.673">  1  3  2 -1</clus>
</clustering>
</event>
<event>
 6    0  0.8777103E+002  0.1138051E+03  0.7546771E-02  0.1253681E+00
         21   -1    0    0  504  501  0.00000000000E+00  0.00000000000E+00  0.21666319115E+03  0.21666319115E+03  0.00000000000E+00 0.  1.
         21   -1    0    0  505  502 -0.00000000000E+00 -0.00000000000E+00 -0.24399078459E+03  0.24399078459E+03  0.00000000000E+00 0.  1.
         21    1    1    2  503  502  0.90120231338E+02  0.13977989638E+03  0.51148860760E+02  0.17400080886E+03  0.00000000000E+00 0.  1.
         21    1    1    2  504  503 -0.37027692107E+02 -0.27651527738E+01  0.85634210117E+01  0.38105488214E+02  0.00000000000E+00 0. -1.
         21    1    1    2  505  506 -0.35507745698E+02 -0.10009069759E+03 -0.14368977925E+03  0.17867764384E+03  0.00000000000E+00 0.  1.
         21    1    1    2  506  501 -0.17584793533E+02 -0.36924046012E+02  0.56649904043E+02  0.69870034819E+02  0.00000000000E+00 0.  1.
<scales pt_clust_3="14000.00000" pt_clust_4="37.13080" pt_clust_5="113.80514" pt_clust_6="48.09531"></scales>
<clustering>
<clus scale="   37.131">  1  4  2 -1</clus>
<clus scale="   48.095">  1  6  2 -1</clus>
<clus scale="  113.805">  2  5  1 -1</clus>
<clus scale="   37.131">  1  3  2 -1</clus>
</clustering>
</event>
<event>
 6    0  0.8777103E+002  0.1069502E+03  0.7546771E-02  0.1266324E+00
         21   -1    0    0  506  501  0.00000000000E+00  0.00000000000E+00  0.37767428876E+03  0.37767428876E+03  0.00000000000E+00 0.  1.
         21   -1    0    0  505  502 -0.00000000000E+00 -0.00000000000E+00 -0.23109461571E+03  0.23109461571E+03  0.00000000000E+00 0. -1.
         21    1    1    2  503  501  0.11059353786E+03  0.26456544769E+02  0.29954246407E+03  0.32040063539E+03  0.00000000000E+00 0.  1.
         21    1    1    2  504  502 -0.38988350779E+01 -0.37957015511E+02 -0.15630194457E+03  0.16089199426E+03  0.00000000000E+00 0. -1.
         21    1    1    2  505  503 -0.21445848420E+02 -0.26441054508E+02  0.28515076654E+01  0.34164087488E+02  0.00000000000E+00 0.  1.
         21    1    1    2  506  504 -0.85248854361E+02  0.37941525250E+02  0.48764588243E+00  0.93312187343E+02  0.00000000000E+00 0. -1.
<scales pt_clust_3="106.95025" pt_clust_4="60.70274" pt_clust_5="34.04488" pt_clust_6="14000.00000"></scales>
<clustering>
<clus scale="   34.045">  2  5  1 -1</clus>
<clus scale="   60.703">  2  4  1 -1</clus>
<clus scale="  106.950">  1  3  2 -1</clus>
<clus scale="  106.950">  1  3  2 -1</clus>
</clustering>
</event>
<event>
 6    0  0.8777103E+002  0.1234837E+03  0.7546771E-02  0.1237458E+00
         21   -1    0    0  504  501  0.00000000000E+00  0.00000000000E+00  0.11414512493E+04  0.11414512493E+04  0.00000000000E+00 0.  1.
         21   -1    0    0  501  502 -0.00000000000E+00 -0.00000000000E+00 -0.50060654535E+03  0.50060654535E+03  0.00000000000E+00 0.  1.
         21    1    1    2  503  502  0.13350318744E+02 -0.44434105140E+02 -0.24904656716E+03  0.25333142980E+03  0.00000000000E+00 0.  1.
         21    1    1    2  504  505  0.46557004065E+02 -0.47289893070E+01  0.66609056571E+03  0.66773240126E+03  0.00000000000E+00 0.  1.
         21    1    1    2  505  506 -0.38455286029E+02  0.11939010856E+03  0.45835847058E+03  0.47521078964E+03  0.00000000000E+00 0.  1.
         21    1    1    2  506  503 -0.21452036781E+02 -0.70227014109E+02 -0.23455776518E+03  0.24578317396E+03  0.00000000000E+00 0.  1.
<scales pt_clust_3="35.80888" pt_clust_4="46.79656" pt_clust_5="114.97299" pt_clust_6="35.80888"></scales>
<clustering>
<clus scale="   35.809">  3  6 -1 -1</clus>
<clus scale="   46.797">  1  4  2 -1</clus>
<clus scale="  114.973">  1  5  2 -1</clus>
<clus scale="   46.797">  1  3  2 -1</clus>
</clustering>
</event>
<event>
 6    0  0.8777103E+002  0.1862393E+03  0.7546771E-02  0.1161898E+00
         21   -1    0    0  503  501  0.00000000000E+00  0.00000000000E+00  0.10842106444E+04  0.10842106444E+04  0.00000000000E+00 0. -1.
         21   -1    0    0  504  502 -0.00000000000E+00 -0.00000000000E+00 -0.57030938179E+03  0.57030938179E+03  0.00000000000E+00 0. -1.
         21    1    1    2  503  505  0.52806826842E+02 -0.60787653367E+02  0.59556668620E+02  0.10015336510E+03  0.00000000000E+00 0. -1.
         21    1    1    2  504  506  0.16402722575E+03  0.16304482533E+02 -0.39314425059E+03  0.42630173435E+03  0.00000000000E+00 0.  1.
         21    1    1    2  505  502 -0.46699167872E+02  0.13567777805E+03 -0.91011141168E+02  0.16991850857E+03  0.00000000000E+00 0. -1.
         21    1    1    2  506  501 -0.17013488472E+03 -0.91194607219E+02  0.93849998576E+03  0.95814641817E+03  0.00000000000E+00 0. -1.
<scales pt_clust_3="80.52142" pt_clust_4="186.23933" pt_clust_5="140.56160" pt_clust_6="14000.00000"></scales>
<clustering>
<clus scale="   80.521">  1  3  2 -1</clus>
<clus scale="  140.562">  2  5  1 -1</clus>
<clus scale="  186.239">  2  4  1 -1</clus>
<clus scale="   80.521">  1  3  2 -1</clus>
</clustering>
</event>
<event>
 6    0  0.8777103E+002  0.1200079E+03  0.7546771E-02  0.1243084E+00
         21   -1    0    0  504  501  0.00000000000E+00  0.00000000000E+00  0.89127958574E+03  0.89127958574E+03  0.00000000000E+00 0.  1.
         21   -1    0    0  506  502 -0.00000000000E+00 -0.00000000000E+00 -0.41929823338E+02  0.41929823338E+02  0.00000000000E+00 0. -1.
         21    1    1    2  503  501 -0.11324859551E+03 -0.68291873852E+01  0.54732174237E+03  0.55895703937E+03  0.00000000000E+00 0.  1.
         21    1    1    2  504  505  0.14674358163E+03 -0.13966908933E+01  0.20560855134E+03  0.25260741454E+03  0.00000000000E+00 0. -1.
         21    1    1    2  505  502 -0.91636673890E+01  0.34653073066E+02  0.63510472520E+02  0.72927281539E+02  0.00000000000E+00 0.  1.
         21    1    1    2  506  503 -0.24331318733E+02 -0.26427194788E+02  0.32908996173E+02  0.48717673639E+02  0.00000000000E+00 0. -1.
<scales pt_clust_3="14000.00000" pt_clust_4="120.00788" pt_clust_5="35.84422" pt_clust_6="32.46685"></scales>
<clustering>
<clus scale="   35.844">  2  5  1 -1</clus>
<clus scale="   32.467">  2  6  1 -1</clus>
<clus scale="  120.008">  2  4  1 -1</clus>
<clus scale="  120.008">  1  3  2 -1</clus>
</clustering>
</event>
<event>
 6    0  0.8777103E+002  0.6826218E+02  0.7546771E-02  0.1366104E+00
         21   -1    0    0  505  501  0.00000000000E+00  0.00000000000E+00  0.74333710759E+02  0.74333710759E+02  0.00000000000E+00 0. -1.
         21   -1    0    0  506  502 -0.00000000000E+00 -0.00000000000E+00 -0.86952560165E+03  0.86952560165E+03  0.00000000000E+00 0. -1.
         21    1    1    2  503  501  0.25448256769E+02  0.30991518806E+02 -0.59986244953E+02  0.72155648386E+02  0.00000000000E+00 0. -1.
         21    1    1    2  504  502 -0.55426670148E+02  0.37825815624E+02 -0.68729728924E+03  0.69056532775E+03  0.00000000000E+00 0. -1.
         21    1    1    2  505  504 -0.18859959530E+02  0.44828834402E+02 -0.27191174781E+02  0.55719677433E+02  0.00000000000E+00 0. -1.
         21    1    1    2  506  503  0.48838372910E+02 -0.11364616883E+03 -0.20717181915E+02  0.12541865884E+03  0.00000000000E+00 0. -1.
<scales pt_clust_3="40.10097" pt_clust_4="68.26218" pt_clust_5="53.06304" pt_clust_6="14000.00000"></scales>
<clustering>
<clus scale="   40.101">  1  3  2 -1</clus>
<clus scale="   53.063">  1  5  2 -1</clus>
<clus scale="   68.262">  2  4  1 -1</clus>
<clus scale="   40.101">  1  3  2 -1</clus>
</clustering>
</event>
<event>
 6    0  0.8777103E+002  0.1181653E+03  0.7546771E-02  0.1246155E+00
         21   -1    0    0  506  501  0.00000000000E+00  0.00000000000E+00  0.92575652463E+03  0.92575652463E+03  0.00000000000E+00 0.  1.
         21   -1    0    0  504  502 -0.00000000000E+00 -0.00000000000E+00 -0.67033577100E+02  0.67033577100E+02  0.00000000000E+00 0.  1.
         21    1    1    2  503  502 -0.32900532280E+01 -0.53496129595E+02 -0.62065320115E+01  0.53955364622E+02  0.00000000000E+00 0.  1.
         21    1    1    2  504  501  0.37105010797E+02 -0.31078038018E+02  0.12795068645E+03  0.13679913901E+03  0.00000000000E+00 0. -1.
         21    1    1    2  505  503 -0.10078095370E+03 -0.23594256720E+02  0.74694649174E+02  0.12764317528E+03  0.00000000000E+00 0.  1.
         21    1    1    2  506  505  0.66965996135E+02  0.10816842433E+03  0.66228414392E+03  0.67439242282E+03  0.00000000000E+00 0.  1.
<scales pt_clust_3="54.47471" pt_clust_4="48.40068" pt_clust_5="14000.00000" pt_clust_6="118.16528"></scales>
<clustering>
<clus scale="   48.401">  1  4  2 -1</clus>
<clus scale="   54.475">  2  3  1 -1</clus>
<clus scale="  118.165">  1  6  2 -1</clus>
<clus scale="   48.401">  1  3  2 -1</clus>
</clustering>
</event>
<event>
 6    0  0.8777103E+002  0.7529002E+02  0.7546771E-02  0.1342975E+00
         21   -1    0    0  506  501  0.00000000000E+00  0.00000000000E+00  0.81712608560E+03  0.81712608560E+03  0.00000000000E+00 0.  1.
         21   -1    0    0  505  502 -0.00000000000E+00 -0.00000000000E+00 -0.37403354330E+02  0.37403354330E+02  0.00000000000E+00 0.  1.
         21    1    1    2  503  501 -0.26577134656E+02  0.79197077728E+02  0.29946798137E+03  0.31090125936E+03  0.00000000000E+00 0.  1.
         21    1    1    2  504  502 -0.46776027606E+02 -0.45073370375E+02  0.61609742694E+02  0.89528575720E+02  0.00000000000E+00 0.  1.
         21    1    1    2  505  503  0.98960596591E+02 -0.87274242283E+01  0.13206417717E+03  0.16525832657E+03  0.00000000000E+00 0.  1.
         21    1    1    2  506  504 -0.25607434329E+02 -0.25396283125E+02  0.28658083004E+03  0.28884127828E+03  0.00000000000E+00 0. -1.
<scales pt_clust_3="75.29002" pt_clust_4="70.10600" pt_clust_5="14000.00000" pt_clust_6="36.06538"></scales>
<clustering>
<clus scale="   36.065">  1  6  2 -1</clus>
<clus scale="   70.106">  2  4  1 -1</clus>
<clus scale="   75.290">  1  3  2 -1</clus>
<clus scale="   36.065">  1  3  2 -1</clus>
</clustering>
</event>
<event>
 6    0  0.8777103E+002  0.7333397E+02  0.7546771E-02  0.1349109E+00
         21   -1    0    0  506  501  0.00000000000E+00  0.00000000000E+00  0.14684225466E+03  0.14684225466E+03  0.00000000000E+00 0. -1.
         21   -1    0    0  505  502 -0.00000000000E+00 -0.00000000000E+00 -0.27992102311E+03  0.27992102311E+03  0.00000000000E+00 0.  1.
         21    1    1    2  503  504  0.73446952826E+02  0.52734025660E+01 -0.53981828623E+02  0.91303348654E+02  0.00000000000E+00 0.  1.
         21    1    1    2  504  501 -0.68487812943E+02 -0.63379132597E+02  0.68871596182E+02  0.11597754839E+03  0.00000000000E+00 0. -1.
         21    1    1    2  505  503 -0.45468910113E+02  0.59785156871E+02 -0.16036616036E+03  0.17708470334E+03  0.00000000000E+00 0.  1.
         21    1    1    2  506  502  0.40509770230E+02 -0.16794268399E+01  0.12397624348E+02  0.42397677391E+02  0.00000000000E+00 0. -1.
<scales pt_clust_3="69.09130" pt_clust_4="14000.00000" pt_clust_5="73.33397" pt_clust_6="40.54457"></scales>
<clustering>
<clus scale="   40.545">  1  6  2 -1</clus>
<clus scale="   73.334">  2  5  1 -1</clus>
<clus scale="   69.091">  2  3  1 -1</clus>
<clus scale="   40.545">  1  3  2 -1</clus>
</clustering>
</event>
<event>
 6    0  0.8777103E+002  0.3627602E+03  0.7546771E-02  0.1057496E+00
         21   -1    0    0  505  501  0.00000000000E+00  0.00000000000E+00  0.87480354564E+03  0.87480354564E+03  0.00000000000E+00 0.  1.
         21   -1    0    0  503  502 -0.00000000000E+00 -0.00000000000E+00 -0.77890819006E+03  0.77890819006E+03  0.00000000000E+00 0.  1.
         21    1    1    2  503  506  0.33538152377E+02  0.27672200991E+02 -0.21959203516E+02  0.48711035625E+02  0.00000000000E+00 0.  1.
         21    1    1    2  504  502  0.78515612408E+02  0.31962270076E+03 -0.64608085534E+03  0.72508195666E+03  0.00000000000E+00 0.  1.
         21    1    1    2  505  504  0.48997819817E+02 -0.66358919908E+01  0.39275615348E+02  0.63145826230E+02  0.00000000000E+00 0.  1.
         21    1    1    2  506  501 -0.16105158460E+03 -0.34065900976E+03  0.72465979909E+03  0.81677291719E+03  0.00000000000E+00 0.  1.
<scales pt_clust_3="43.48055" pt_clust_4="362.76023" pt_clust_5="49.92161" pt_clust_6="14000.00000"></scales>
<clustering>
<clus scale="   43.481">  2  3  1 -1</clus>
<clus scale="   49.922">  1  5  2 -1</clus>
<clus scale="  362.760">  2  4  1 -1</clus>
<clus scale="   49.922">  1  3  2 -1</clus>
</clustering>
</event>
<event>
 6    0  0.8777103E+002  0.8557435E+02  0.7546771E-02  0.1313937E+00
         21   -1    0    0  506  501  0.00000000000E+00  0.00000000000E+00  0.53982138314E+03  0.53982138314E+03  0.00000000000E+00 0.  1.
         21   -1    0    0  505  502 -0.00000000000E+00 -0.00000000000E+00 -0.19121629262E+03  0.19121629262E+03  0.00000000000E+00 0. -1.
         21    1    1    2  503  501 -0.10937433763E+02 -0.35054695401E+02  0.36985911365E+03  0.37167757947E+03  0.00000000000E+00 0.  1.
         21    1    1    2  504  502 -0.85357670169E+02  0.28449015837E+02 -0.12820518482E+03  0.15662645937E+03  0.00000000000E+00 0. -1.
         21    1    1    2  505  503  0.28394437206E+02  0.41006207561E+02 -0.20787415499E+02  0.54035819286E+02  0.00000000000E+00 0. -1.
         21    1    1    2  506  504  0.67900666727E+02 -0.34400527997E+02  0.12773857719E+03  0.14869781764E+03  0.00000000000E+00 0.  1.
<scales pt_clust_3="36.72137" pt_clust_4="14000.00000" pt_clust_5="46.44353" pt_clust_6="85.57435"></scales>
<clustering>
<clus scale="   36.721">  1  3  2 -1</clus>
<clus scale="   46.444">  2  5  1 -1</clus>
<clus scale="   85.574">  1  6  2 -1</clus>
<clus scale="   36.721">  1  3  2 -1</clus>
</clustering>
</event>
<event>
 6    0  0.8777103E+002  0.1108995E+03  0.7546771E-02  0.1258913E+00
         21   -1    0    0  506  501  0.00000000000E+00  0.00000000000E+00  0.17044963282E+03  0.17044963282E+03  0.00000000000E+00 0. -1.
         21   -1    0    0  504  502 -0.00000000000E+00 -0.00000000000E+00 -0.21053452221E+04  0.21053452221E+04  0.00000000000E+00 0. -1.
         21    1    1    2  503  502 -0.55993942617E+02  0.52796714087E+02 -0.17743976685E+04  0.17760658492E+04  0.00000000000E+00 0. -1.
         21    1    1    2  504  505  0.28074975546E+02  0.59229672542E+02 -0.20701698014E+03  0.21714600717E+03  0.00000000000E+00 0. -1.
         21    1    1    2  505  501  0.77525235683E+02 -0.61543031324E+02  0.13618021935E+03  0.16835307842E+03  0.00000000000E+00 0. -1.
         21    1    1    2  506  503 -0.49606268612E+02 -0.50483355305E+02 -0.89661159955E+02  0.11422992013E+03  0.00000000000E+00 0. -1.
<scales pt_clust_3="110.89951" pt_clust_4="65.54661" pt_clust_5="14000.00000" pt_clust_6="67.45229"></scales>
<clustering>
<clus scale="   65.547">  2  4  1 -1</clus>
<clus scale="   67.452">  1  6  2 -1</clus>
<clus scale="  110.900">  2  3  1 -1</clus>
<clus scale="   67.452">  1  3  2 -1</clus>
</clustering>
</event>
<event>
 6    0  0.8777103E+002  0.8338837E+02  0.7546771E-02  0.1319702E+00
         21   -1    0    0  506  501  0.00000000000E+00  0.00000000000E+00  0.26050882335E+03  0.26050882335E+03  0.00000000000E+00 0. -1.
         21   -1    0    0  504  502 -0.00000000000E+00 -0.00000000000E+00 -0.15547723700E+03  0.15547723700E+03  0.00000000000E+00 0.  1.
         21    1    1    2  503  501  0.12844085680E+03  0.23019374712E+02  0.67557654079E+01  0.13066210497E+03  0.00000000000E+00 0.  1.
         21    1    1    2  504  503 -0.19283217863E+02  0.28049922348E+02 -0.36887248485E+02  0.50192725924E+02  0.00000000000E+00 0.  1.
         21    1    1    2  505  502 -0.57426770088E+02 -0.17830766445E+02 -0.23815531436E+02  0.64675727227E+02  0.00000000000E+00 0.  1.
         21    1    1    2  506  505 -0.51730868852E+02 -0.33238530615E+02  0.15897860086E+03  0.17045550223E+03  0.00000000000E+00 0. -1.
<scales pt_clust_3="83.38837" pt_clust_4="34.03881" pt_clust_5="14000.00000" pt_clust_6="61.56795"></scales>
<clustering>
<clus scale="   34.039">  2  4  1 -1</clus>
<clus scale="   61.568">  1  6  2 -1</clus>
<clus scale="   83.388">  1  3  2 -1</clus>
<clus scale="   61.568">  1  3  2 -1</clus>
</clustering>
</event>
<event>
 6    0  0.8777103E+002  0.1555354E+03  0.7546771E-02  0.1193831E+00
         21   -1    0    0  503  501  0.00000000000E+00  0.00000000000E+00  0.27617061805E+03  0.27617061805E+03  0.00000000000E+00 0.  1.
         21   -1    0    0  505  502 -0.00000000000E+00 -0.00000000000E+00 -0.47159006914E+03  0.47159006914E+03  0.00000000000E+00 0.  1.
         21    1    1    2  503  506 -0.66088754167E+02  0.19702593181E+02  0.54715663838E+02  0.88032491017E+02  0.00000000000E+00 0.  1.
         21    1    1    2  504  502  0.14079833062E+03 -0.31841410048E+02 -0.41381969359E+03  0.43827478151E+03  0.00000000000E+00 0.  1.
         21    1    1    2  505  501 -0.20191158699E+02  0.49675387865E+02  0.14202208336E+03  0.15180777059E+03  0.00000000000E+00 0.  1.
         21    1    1    2  506  504 -0.54518417755E+02 -0.37536570998E+02  0.21662495312E+02  0.69645644085E+02  0.00000000000E+00 0.  1.
<scales pt_clust_3="54.61670" pt_clust_4="141.51552" pt_clust_5="53.62208" pt_clust_6="54.61670"></scales>
<clustering>
<clus scale="   53.622">  1  5  2 -1</clus>
<clus scale="   54.617">  3  6 -1 -1</clus>
<clus scale="  141.516">  2  4  1 -1</clus>
<clus scale="   53.622">  1  3  2 -1</clus>
</clustering>
</event>
<event>
 6    0  0.8777103E+002  0.1063276E+03  0.7546771E-02  0.1267526E+00
         21   -1    0    0  505  501  0.00000000000E+00  0.00000000000E+00  0.25196684237E+03  0.25196684237E+03  0.00000000000E+00 0.  1.
         21   -1    0    0  503  502 -0.00000000000E+00 -0.00000000000E+00 -0.11147761493E+03  0.11147761493E+03  0.00000000000E+00 0.  1.
         21    1    1    2  503  501  0.96376537821E+02  0.63514199387E+02  0.47219377477E+02  0.12470830035E+03  0.00000000000E+00 0.  1.
         21    1    1    2  504  506 -0.11163696025E+03  0.13992040457E+02  0.90573334149E+02  0.14443724225E+03  0.00000000000E+00 0.  1.
         21    1    1    2  505  504  0.94493596341E+01 -0.29609945065E+02  0.26181865202E+02  0.40639012165E+02  0.00000000000E+00 0.  1.
         21    1    1    2  506  502  0.58110627990E+01 -0.47896294779E+02 -0.23485349386E+02  0.53659902536E+02  0.00000000000E+00 0.  1.
<scales pt_clust_3="14000.00000" pt_clust_4="106.32758" pt_clust_5="31.08117" pt_clust_6="50.35683"></scales>
<clustering>
<clus scale="   31.081">  1  5  2 -1</clus>
<clus scale="   50.357">  2  6  1 -1</clus>
<clus scale="  106.328">  1  4  2 -1</clus>
<clus scale="   31.081">  1  3  2 -1</clus>
</clustering>
</event>
<event>
 6    0  0.8777103E+002  0.1159297E+03  0.7546771E-02  0.1249967E+00
         21   -1    0    0  503  501  0.00000000000E+00  0.00000000000E+00  0.33704940943E+03  0.33704940943E+03  0.00000000000E+00 0. -1.
         21   -1    0    0  506  502 -0.00000000000E+00 -0.00000000000E+00 -0.17092071354E+03  0.17092071354E+03  0.00000000000E+00 0. -1.
         21    1    1    2  503  505 -0.32811299245E+02  0.39251982008E+01  0.10612563893E+03  0.11115142724E+03  0.00000000000E+00 0. -1.
         21    1    1    2  504  501 -0.49188994233E+02  0.77969825938E+02 -0.23985733946E+02  0.95258418753E+02  0.00000000000E+00 0. -1.
         21    1    1    2  505  502  0.79018037961E+02 -0.11538543960E+03  0.16354838532E+03  0.21518764913E+03  0.00000000000E+00 0. -1.
         21    1    1    2  506  504  0.29822555175E+01  0.33490415463E+02 -0.79559594422E+02  0.86372627843E+02  0.00000000000E+00 0. -1.
<scales pt_clust_3="33.04525" pt_clust_4="14000.00000" pt_clust_5="115.92974" pt_clust_6="33.64145"></scales>
<clustering>
<clus scale="   33.045">  1  3  2 -1</clus>
<clus scale="   33.641">  2  6  1 -1</clus>
<clus scale="  115.930">  1  5  2 -1</clus>
<clus scale="   33.045">  1  3  2 -1</clus>
</clustering>
</event>
<event>
 6    0  0.8777103E+002  0.1096106E+03  0.7546771E-02  0.1261293E+00
         21   -1    0    0  506  501  0.00000000000E+00  0.00000000000E+00  0.15749759418E+03  0.15749759418E+03  0.00000000000E+00 0. -1.
         21   -1    0    0  504  502 -0.00000000000E+00 -0.00000000000E+00 -0.78592884801E+03  0.78592884801E+03  0.00000000000E+00 0.  1.
         21    1    1    2  503  502  0.82248470256E+02  0.83880194107E+02 -0.62269937618E+03  0.63368384145E+03  0.00000000000E+00 0.  1.
         21    1    1    2  504  505 -0.28670691735E+02  0.14436803204E+02 -0.11945286450E+03  0.12369081085E+03  0.00000000000E+00 0.  1.
         21    1    1    2  505  501 -0.40699446054E+02 -0.53087346079E+02  0.12119881989E+03  0.13843361285E+03  0.00000000000E+00 0. -1.
         21    1    1    2  506  503 -0.12878332467E+02 -0.45229651231E+02 -0.74778330463E+01  0.47618177041E+02  0.00000000000E+00 0.  1.
<scales pt_clust_3="109.61060" pt_clust_4="32.10031" pt_clust_5="14000.00000" pt_clust_6="46.79544"></scales>
<clustering>
<clus scale="   32.100">  2  4  1 -1</clus>
<clus scale="   46.795">  1  6  2 -1</clus>
<clus scale="  109.611">  2  3  1 -1</clus>
<clus scale="   46.795">  1  3  2 -1</clus>
</clustering>
</event>
<event>
 6    0  0.8777103E+002  0.7503686E+02  0.7546771E-02  0.1343757E+00
         21   -1    0    0  504  501  0.00000000000E+00  0.00000000000E+00  0.21454254881E+03  0.21454254881E+03  0.00000000000E+00 0.  1.
         21   -1    0    0  506  502 -0.00000000000E+00 -0.00000000000E+00 -0.10934253198E+03  0.10934253198E+03  0.00000000000E+00 0.  1.
         21    1    1    2  503  505 -0.74859504943E+02  0.13461573206E+01 -0.84399123345E+01  0.75345801078E+02  0.00000000000E+00 0.  1.
         21    1    1    2  504  503  0.56059759463E+02  0.69919570260E+02  0.12199340152E+03  0.15137315796E+03  0.00000000000E+00 0.  1.
         21    1    1    2  505  502  0.29079497466E+02 -0.15100711117E+02 -0.20688005734E+02  0.38751028766E+02  0.00000000000E+00 0.  1.
         21    1    1    2  506  501 -0.10279751986E+02 -0.56165016464E+02  0.12334533370E+02  0.58415092988E+02  0.00000000000E+00 0.  1.
<scales pt_clust_3="59.92407" pt_clust_4="14000.00000" pt_clust_5="32.76658" pt_clust_6="75.03686"></scales>
<clustering>
<clus scale="   32.767">  2  5  1 -1</clus>
<clus scale="   59.924">  2  3  1 -1</clus>
<clus scale="   75.037">  2  6  1 -1</clus>
<clus scale="   75.037">  1  3  2 -1</clus>
</clustering>
</event>
<event>
 6    0  0.8777103E+002  0.6287152E+02  0.7546771E-02  0.1386162E+00
         21   -1    0    0  503  501  0.00000000000E+00  0.00000000000E+00  0.55318868777E+03  0.55318868777E+03  0.00000000000E+00 0. -1.
         21   -1    0    0  505  502 -0.00000000000E+00 -0.00000000000E+00 -0.94874628424E+02  0.94874628424E+02  0.00000000000E+00 0.  1.
         21    1    1    2  503  502 -0.37243156153E+02 -0.46263044956E+02  0.86592700609E+02  0.10500294190E+03  0.00000000000E+00 0. -1.
         21    1    1    2  504  501  0.50702313628E+02 -0.26522935660E+01  0.39267172153E+03  0.39594045027E+03  0.00000000000E+00 0. -1.
         21    1    1    2  505  506  0.58136772066E+02  0.61107038100E+01 -0.25061648354E+02  0.63602760832E+02  0.00000000000E+00 0.  1.
         21    1    1    2  506  504 -0.71595929540E+02  0.42804634712E+02  0.41112855647E+01  0.83517163198E+02  0.00000000000E+00 0.  1.
<scales pt_clust_3="48.32509" pt_clust_4="50.77164" pt_clust_5="14000.00000" pt_clust_6="62.87152"></scales>
<clustering>
<clus scale="   50.772">  1  4  2 -1</clus>
<clus scale="   48.325">  1  3  2 -1</clus>
<clus scale="   62.872">  1  6  2 -1</clus>
<clus scale="   50.772">  1  3  2 -1</clus>
</clustering>
</event>
<event>
 6    0  0.8777103E+002  0.1580073E+03  0.7546771E-02  0.1190965E+00
         21   -1    0    0  505  501  0.00000000000E+00  0.00000000000E+00  0.22480657170E+03  0.22480657170E+03  0.00000000000E+00 0.  1.
         21   -1    0    0  506  502 -0.00000000000E+00 -0.00000000000E+00 -0.38388585863E+03  0.38388585863E+03  0.00000000000E+00 0.  1.
         21    1    1    2  503  502  0.34910431235E+02 -0.34789834569E+02 -0.22261519420E+03  0.22800569179E+03  0.00000000000E+00 0.  1.
         21    1    1    2  504  501 -0.18771501467E+02  0.60230931846E+02 -0.42209234193E+02  0.75906217595E+02  0.00000000000E+00 0.  1.
         21    1    1    2  505  503  0.52061415030E+02 -0.12868047528E+03  0.11561674556E+03  0.18065516186E+03  0.00000000000E+00 0.  1.
         21    1    1    2  506  504 -0.68200344797E+02  0.10323937800E+03 -0.98716041015E+01  0.12412535909E+03  0.00000000000E+00 0.  1.
<scales pt_clust_3="49.28560" pt_clust_4="39.19891" pt_clust_5="148.16459" pt_clust_6="39.19891"></scales>
<clustering>
<clus scale="   39.199">  4  6 -1 -1</clus>
<clus scale="   49.286">  2  3  1 -1</clus>
<clus scale="  148.165">  1  5  2 -1</clus>
<clus scale="  148.165">  1  3  2 -1</clus>
</clustering>
</event>
<event>
 6    0  0.8777103E+002  0.8013391E+02  0.7546771E-02  0.1328672E+00
         21   -1    0    0  506  501  0.00000000000E+00  0.00000000000E+00  0.77112245392E+02  0.77112245392E+02  0.00000000000E+00 0.  1.
         21   -1    0    0  503  502 -0.00000000000E+00 -0.00000000000E+00 -0.70286435284E+03  0.70286435284E+03  0.00000000000E+00 0.  1.
         21    1    1    2  503  505  0.74222927611E+02 -0.42875098509E+01 -0.44363240711E+03  0.44981900622E+03  0.00000000000E+00 0.  1.
         21    1    1    2  504  502 -0.11532118800E+03 -0.59290589219E+02 -0.20330376534E+03  0.24113641652E+03  0.00000000000E+00 0.  1.
         21    1    1    2  505  501  0.32259820852E+02  0.18710120340E+02 -0.27725217184E+01  0.37395875725E+02  0.00000000000E+00 0.  1.
         21    1    1    2  506  504  0.88384395372E+01  0.44867978730E+02  0.23956586715E+02  0.51625299765E+02  0.00000000000E+00 0.  1.
<scales pt_clust_3="14000.00000" pt_clust_4="80.13391" pt_clust_5="37.29296" pt_clust_6="63.78139"></scales>
<clustering>
<clus scale="   37.293">  1  5  2 -1</clus>
<clus scale="   63.781">  1  6  2 -1</clus>
<clus scale="   80.134">  1  4  2 -1</clus>
<clus scale="   37.293">  1  3  2 -1</clus>
</clustering>
</event>
<event>
 6    0  0.8777103E+002  0.1242903E+03  0.7546771E-02  0.1236183E+00
         21   -1    0    0  504  501  0.00000000000E+00  0.00000000000E+00  0.59433639413E+02  0.59433639413E+02  0.00000000000E+00 0.  1.
         21   -1    0    0  506  502 -0.00000000000E+00 -0.00000000000E+00 -0.24962063842E+04  0.24962063842E+04  0.00000000000E+00 0. -1.
         21    1    1    2  503  505  0.89081796000E+02 -0.65047051520E+02 -0.24365857102E+03  0.26746249180E+03  0.00000000000E+00 0. -1.
         21    1    1    2  504  503 -0.26074698394E+02 -0.50956135612E+02  0.24494906995E+02  0.62260887575E+02  0.00000000000E+00 0.  1.
         21    1    1    2  505  502 -0.88586566017E+02  0.93959776747E+02 -0.20877228195E+04  0.20917128365E+04  0.00000000000E+00 0. -1.
         21    1    1    2  506  501  0.25579468411E+02  0.22043410386E+02 -0.12988626125E+03  0.13420380772E+03  0.00000000000E+00 0. -1.
<scales pt_clust_3="14000.00000" pt_clust_4="56.99029" pt_clust_5="124.29027" pt_clust_6="33.76716"></scales>
<clustering>
<clus scale="   33.767">  2  6  1 -1</clus>
<clus scale="   56.990">  1  4  2 -1</clus>
<clus scale="  124.290">  2  5  1 -1</clus>
<clus scale="   56.990">  1  3  2 -1</clus>
</clustering>
</event>
<event>
 6    0  0.8777103E+002  0.1131244E+03  0.7546771E-02  0.1254891E+00
         21   -1    0    0  504  501  0.00000000000E+00  0.00000000000E+00  0.15348163228E+03  0.15348163228E+03  0.00000000000E+00 0. -1.
         21   -1    0    0  506  502 -0.00000000000E+00 -0.00000000000E+00 -0.16801336661E+03  0.16801336661E+03  0.00000000000E+00 0. -1.
         21    1    1    2  503  505  0.85853830559E+02  0.38322992793E+02 -0.50198564013E+02  0.10658061656E+03  0.00000000000E+00 0. -1.
         21    1    1    2  504  503 -0.96103252156E+01 -0.82907663156E+02 -0.15083759579E+01  0.83476428762E+02  0.00000000000E+00 0. -1.
         21    1    1    2  505  502  0.85235544793E+01  0.34076658076E+02 -0.61526602919E+01  0.35661251174E+02  0.00000000000E+00 0. -1.
         21    1    1    2  506  501 -0.84767059823E+02  0.10508012287E+02  0.43327865939E+02  0.95776702387E+02  0.00000000000E+00 0. -1.
<scales pt_clust_3="32.96428" pt_clust_4="83.46280" pt_clust_5="32.96428" pt_clust_6="99.44164"></scales>
<clustering>
<clus scale="   32.964">  3  5 -1 -1</clus>
<clus scale="   83.463">  1  4  2 -1</clus>
<clus scale="   99.442">  1  6  2 -1</clus>
<clus scale="   83.463">  1  3  2 -1</clus>
</clustering>
</event>
<event>
 6    0  0.8777103E+002  0.1899773E+03  0.7546771E-02  0.1158482E+00
         21   -1    0    0  505  501  0.00000000000E+00  0.00000000000E+00  0.48062473358E+03  0.48062473358E+03  0.00000000000E+00 0. -1.
         21   -1    0    0  506  502 -0.00000000000E+00 -0.00000000000E+00 -0.11180605424E+03  0.11180605424E+03  0.00000000000E+00 0. -1.
         21    1    1    2  503  501  0.14094363825E+03 -0.74399344069E+02  0.21821475102E+03  0.27021852106E+03  0.00000000000E+00 0. -1.
         21    1    1    2  504  503  0.10766146984E+02 -0.47246546074E+02  0.64065311244E+02  0.80327517960E+02  0.00000000000E+00 0. -1.
         21    1    1    2  505  502 -0.48087276779E+01  0.36690495455E+02  0.59468305304E+02  0.70041385297E+02  0.00000000000E+00 0. -1.
         21    1    1    2  506  504 -0.14690105756E+03  0.84955394688E+02  0.27070311776E+02  0.17184336350E+03  0.00000000000E+00 0. -1.
<scales pt_clust_3="39.14454" pt_clust_4="39.14454" pt_clust_5="37.00427" pt_clust_6="175.22685"></scales>
<clustering>
<clus scale="   37.004">  1  5  2 -1</clus>
<clus scale="   39.145">  3  4 -1 -1</clus>
<clus scale="  175.227">  2  6  1 -1</clus>
<clus scale="   37.004">  1  3  2 -1</clus>
</clustering>
</event>
<event>
 6    0  0.8777103E+002  0.8764782E+02  0.7546771E-02  0.1308650E+00
         21   -1    0    0  506  501  0.00000000000E+00  0.00000000000E+00  0.86792130571E+03  0.86792130571E+03  0.00000000000E+00 0.  1.
         21   -1    0    0  504  502 -0.00000000000E+00 -0.00000000000E+00 -0.65356753595E+03  0.65356753595E+03  0.00000000000E+00 0.  1.
         21    1    1    2  503  505  0.45175511100E+02 -0.71379219152E+02  0.12100773089E+03  0.14757605045E+03  0.00000000000E+00 0.  1.
         21    1    1    2  504  501 -0.41593891524E+02 -0.43783720505E+01 -0.53216248622E+03  0.53380345980E+03  0.00000000000E+00 0.  1.
         21    1    1    2  505  502 -0.52513592267E+02  0.28959699818E+02 -0.97213506135E+02  0.11422262193E+03  0.00000000000E+00 0.  1.
         21    1    1    2  506  503  0.48931972691E+02  0.46797891384E+02  0.72272203122E+03  0.72588670948E+03  0.00000000000E+00 0.  1.
<scales pt_clust_3="87.64782" pt_clust_4="41.82370" pt_clust_5="14000.00000" pt_clust_6="67.27473"></scales>
<clustering>
<clus scale="   41.824">  2  4  1 -1</clus>
<clus scale="   67.275">  1  6  2 -1</clus>
<clus scale="   87.648">  1  3  2 -1</clus>
<clus scale="   67.275">  1  3  2 -1</clus>
</clustering>
</event>
<event>
 6    0  0.8777103E+002  0.9617591E+02  0.7546771E-02  0.1288549E+00
         21   -1    0    0  505  501  0.00000000000E+00  0.00000000000E+00  0.10820394710E+04  0.10820394710E+04  0.00000000000E+00 0. -1.
         21   -1    0    0  504  502 -0.00000000000E+00 -0.00000000000E+00 -0.93757210033E+02  0.93757210033E+02  0.00000000000E+00 0. -1.
         21    1    1    2  503  502 -0.47491534180E+01 -0.41544963468E+02 -0.39559514849E+02  0.57562953910E+02  0.00000000000E+00 0. -1.
         21    1    1    2  504  506  0.62471744719E+02 -0.43851835507E+02  0.13206770788E+02  0.77460449006E+02  0.00000000000E+00 0. -1.
         21    1    1    2  505  503  0.76406825721E+02  0.52681321145E+02  0.45400430379E+03  0.46339317266E+03  0.00000000000E+00 0. -1.
         21    1    1    2  506  501 -0.13412941702E+03  0.32715477830E+02  0.56063070126E+03  0.57738010547E+03  0.00000000000E+00 0. -1.
<scales pt_clust_3="41.81553" pt_clust_4="14000.00000" pt_clust_5="90.01192" pt_clust_6="96.17591"></scales>
<clustering>
<clus scale="   41.816">  2  3  1 -1</clus>
<clus scale="   90.012">  1  5  2 -1</clus>
<clus scale="   96.176">  1  6  2 -1</clus>
<clus scale="   90.012">  1  3  2 -1</clus>
</clustering>
</event>
<event>
 6    0  0.8777103E+002  0.1462410E+03  0.7546771E-02  0.1205170E+00
         21   -1    0    0  506  501  0.00000000000E+00  0.00000000000E+00  0.14130952858E+04  0.14130952858E+04  0.00000000000E+00 0. -1.
         21   -1    0    0  501  502 -0.00000000000E+00 -0.00000000000E+00 -0.10835152191E+03  0.10835152191E+03  0.00000000000E+00 0.  1.
         21    1    1    2  503  504 -0.27165124930E+01  0.86660658136E+02  0.22206024551E+03  0.23838666436E+03  0.00000000000E+00 0. -1.
         21    1    1    2  504  502 -0.45603499184E+01 -0.16405126327E+03 -0.28674205812E+02  0.16660079186E+03  0.00000000000E+00 0.  1.
         21    1    1    2  505  503 -0.22380079745E+02  0.57941042836E+02  0.46509970081E+03  0.46922890374E+03  0.00000000000E+00 0. -1.
         21    1    1    2  506  505  0.29656942156E+02  0.19449562295E+02  0.64625802343E+03  0.64723044779E+03  0.00000000000E+00 0. -1.
<scales pt_clust_3="14000.00000" pt_clust_4="146.24096" pt_clust_5="69.92982" pt_clust_6="35.46575"></scales>
<clustering>
<clus scale="   35.466">  1  6  2 -1</clus>
<clus scale="   69.930">  1  5  2 -1</clus>
<clus scale="  146.241">  2  4  1 -1</clus>
<clus scale="   35.466">  1  3  2 -1</clus>
</clustering>
</event>
<event>
 6    0  0.8777103E+002  0.1358569E+03  0.7546771E-02  0.1219015E+00
         21   -1    0    0  506  501  0.00000000000E+00  0.00000000000E+00  0.92345420736E+03  0.92345420736E+03  0.00000000000E+00 0. -1.
         21   -1    0    0  504  502 -0.00000000000E+00 -0.00000000000E+00 -0.10370831454E+03  0.10370831454E+03  0.00000000000E+00 0.  1.
         21    1    1    2  503  502 -0.12385152471E+02  0.52684393645E+02  0.30735017751E+03  0.31207878645E+03  0.00000000000E+00 0. -1.
         21    1    1    2  504  505  0.14854362274E+02 -0.36502856347E+02 -0.79557201042E+02  0.88783212590E+02  0.00000000000E+00 0.  1.
         21    1    1    2  505  501  0.25337099039E+02 -0.10655528669E+03  0.29626668412E+03  0.31586380899E+03  0.00000000000E+00 0. -1.
         21    1    1    2  506  503 -0.27806308842E+02  0.90373749391E+02  0.29568623224E+03  0.31043671388E+03  0.00000000000E+00 0. -1.
<scales pt_clust_3="32.02331" pt_clust_4="39.40952" pt_clust_5="129.09473" pt_clust_6="32.02331"></scales>
<clustering>
<clus scale="   32.023">  3  6 -1 -1</clus>
<clus scale="   39.410">  2  4  1 -1</clus>
<clus scale="  129.095">  2  5  1 -1</clus>
<clus scale="  135.857">  1  3  2 -1</clus>
</clustering>
</event>
<event>
 6    0  0.8777103E+002  0.1204472E+03  0.7546771E-02  0.1242361E+00
         21   -1    0    0  503  501  0.00000000000E+00  0.00000000000E+00  0.45867023120E+03  0.45867023120E+03  0.00000000000E+00 0. -1.
         21   -1    0    0  506  502 -0.00000000000E+00 -0.00000000000E+00 -0.24900115942E+03  0.24900115942E+03  0.00000000000E+00 0. -1.
         21    1    1    2  503  502  0.37485874135E+02 -0.18744852212E+02  0.14412864522E+03  0.15009872290E+03  0.00000000000E+00 0. -1.
         21    1    1    2  504  501 -0.30530546708E+02 -0.15582069641E+02  0.21383129999E+03  0.21656116926E+03  0.00000000000E+00 0. -1.
         21    1    1    2  505  504 -0.87039703471E+02 -0.61057450720E+02  0.41393309083E+02  0.11409350685E+03  0.00000000000E+00 0. -1.
         21    1    1    2  506  505  0.80084376044E+02  0.95384372573E+02 -0.18968418251E+03  0.22691799160E+03  0.00000000000E+00 0. -1.
<scales pt_clust_3="33.99187" pt_clust_4="34.27704" pt_clust_5="120.44720" pt_clust_6="14000.00000"></scales>
<clustering>
<clus scale="   34.277">  1  4  2 -1</clus>
<clus scale="   33.992">  1  3  2 -1</clus>
<clus scale="  120.447">  1  5  2 -1</clus>
<clus scale="   34.277">  1  3  2 -1</clus>
</clustering>
</event>
<event>
 6    0  0.8777103E+002  0.1316163E+03  0.7546771E-02  0.1225077E+00
         21   -1    0    0  504  501  0.00000000000E+00  0.00000000000E+00  0.18553390904E+03  0.18553390904E+03  0.00000000000E+00 0. -1.
         21   -1    0    0  505  502 -0.00000000000E+00 -0.00000000000E+00 -0.38644193571E+03  0.38644193571E+03  0.00000000000E+00 0. -1.
         21    1    1    2  503  506  0.11694844782E+03 -0.86235262770E+01 -0.43408039223E+02  0.12504224295E+03  0.00000000000E+00 0.  1.
         21    1    1    2  504  502 -0.11419305698E+02  0.59836468220E+02 -0.97056657666E+02  0.11458969530E+03  0.00000000000E+00 0. -1.
         21    1    1    2  505  503 -0.13824122682E+03 -0.36980616464E+02 -0.16702851608E+03  0.21994710266E+03  0.00000000000E+00 0. -1.
         21    1    1    2  506  501  0.32712084699E+02 -0.14232325478E+02  0.10658518630E+03  0.11239680383E+03  0.00000000000E+00 0. -1.
<scales pt_clust_3="14000.00000" pt_clust_4="58.69612" pt_clust_5="131.61633" pt_clust_6="35.67407"></scales>
<clustering>
<clus scale="   35.674">  1  6  2 -1</clus>
<clus scale="   58.696">  2  4  1 -1</clus>
<clus scale="  131.616">  2  5  1 -1</clus>
<clus scale="   35.674">  1  3  2 -1</clus>
</clustering>
</event>
<event>
 6    0  0.8777103E+002  0.8038418E+02  0.7546771E-02  0.1327965E+00
         21   -1    0    0  503  501  0.00000000000E+00  0.00000000000E+00  0.68068105427E+03  0.68068105427E+03  0.00000000000E+00 0.  1.
         21   -1    0    0  505  502 -0.00000000000E+00 -0.00000000000E+00 -0.43563747292E+02  0.43563747292E+02  0.00000000000E+00 0.  1.
         21    1    1    2  503  504  0.51587135632E+01 -0.52038863205E+02  0.82735498006E+02  0.97876545912E+02  0.00000000000E+00 0. -1.
         21    1    1    2  504  502 -0.37819544248E+02  0.37066259662E+01  0.39147107820E+02  0.54557795537E+02  0.00000000000E+00 0. -1.
         21    1    1    2  505  506  0.10521327182E+03  0.18164639683E+02  0.90784145034E+02  0.14014830606E+03  0.00000000000E+00 0.  1.
         21    1    1    2  506  501 -0.72552441131E+02  0.30167597556E+02  0.42445055611E+03  0.43166215405E+03  0.00000000000E+00 0.  1.
<scales pt_clust_3="51.33415" pt_clust_4="38.00075" pt_clust_5="14000.00000" pt_clust_6="80.38418"></scales>
<clustering>
<clus scale="   38.001">  2  4  1 -1</clus>
<clus scale="   51.334">  2  3  1 -1</clus>
<clus scale="   80.384">  1  6  2 -1</clus>
<clus scale="   80.384">  1  3  2 -1</clus>
</clustering>
</event>
<event>
 6    0  0.8777103E+002  0.1798824E+03  0.7546771E-02  0.1167917E+00
         21   -1    0    0  505  501  0.00000000000E+00  0.00000000000E+00  0.44341827871E+02  0.44341827871E+02  0.00000000000E+00 0.  1.
         21   -1    0    0  506  502 -0.00000000000E+00 -0.00000000000E+00 -0.21316493033E+04  0.21316493033E+04  0.00000000000E+00 0.  1.
         21    1    1    2  503  504  0.14131457347E+03  0.17563927787E+02 -0.59102615026E+03  0.60793931483E+03  0.00000000000E+00 0.  1.
         21    1    1    2  504  502  0.21743006294E+02 -0.26893132039E+02 -0.64031897453E+03  0.64125220313E+03  0.00000000000E+00 0.  1.
         21    1    1    2  505  503  0.81545533664E+02  0.32647089987E+02 -0.10629471848E+03  0.13789152882E+03  0.00000000000E+00 0.  1.
         21    1    1    2  506  501 -0.24460311342E+03 -0.23317885734E+02 -0.74966763214E+03  0.78890808436E+03  0.00000000000E+00 0.  1.
<scales pt_clust_3="14000.00000" pt_clust_4="34.58322" pt_clust_5="88.71375" pt_clust_6="179.88238"></scales>
<clustering>
<clus scale="   34.583">  2  4  1 -1</clus>
<clus scale="   88.714">  1  5  2 -1</clus>
<clus scale="  179.882">  1  6  2 -1</clus>
<clus scale="   88.714">  1  3  2 -1</clus>
</clustering>
</event>
<event>
 6    0  0.8777103E+002  0.1467551E+03  0.7546771E-02  0.1204518E+00
         21   -1    0    0  502  501  0.00000000000E+00  0.00000000000E+00  0.55754222354E+03  0.55754222354E+03  0.00000000000E+00 0. -1.
         21   -1    0    0  506  502 -0.00000000000E+00 -0.00000000000E+00 -0.41347471499E+03  0.41347471499E+03  0.00000000000E+00 0. -1.
         21    1    1    2  503  504  0.84556031504E+02  0.89890230486E+02 -0.21242443437E+03  0.24567074779E+03  0.00000000000E+00 0. -1.
         21    1    1    2  504  505 -0.55992527633E+02 -0.35339535549E+02  0.25967040568E+03  0.26797903931E+03  0.00000000000E+00 0. -1.
         21    1    1    2  505  501 -0.80747753120E+02 -0.10273695355E+02  0.26424407353E+03  0.27649715884E+03  0.00000000000E+00 0. -1.
         21    1    1    2  506  503  0.52184249249E+02 -0.44276999582E+02 -0.16742253629E+03  0.18086999259E+03  0.00000000000E+00 0. -1.
<scales pt_clust_3="142.64491" pt_clust_4="31.10557" pt_clust_5="31.10557" pt_clust_6="68.43719"></scales>
<clustering>
<clus scale="   31.106">  4  5 -1 -1</clus>
<clus scale="   68.437">  2  6  1 -1</clus>
<clus scale="  142.645">  2  3  1 -1</clus>
<clus scale="  146.755">  1  3  2 -1</clus>
</clustering>
</event>
<event>
 6    0  0.8777103E+002  0.9212672E+02  0.7546771E-02  0.1297782E+00
         21   -1    0    0  503  501  0.00000000000E+00  0.00000000000E+00  0.12758478449E+03  0.12758478449E+03  0.00000000000E+00 0.  1.
         21   -1    0    0  504  502 -0.00000000000E+00 -0.00000000000E+00 -0.35670613380E+03  0.35670613380E+03  0.00000000000E+00 0.  1.
         21    1    1    2  503  505 -0.17319890474E+02  0.37374633123E+02  0.25379530140E+02  0.48383492611E+02  0.00000000000E+00 0.  1.
         21    1    1    2  504  506 -0.25188876331E+02  0.19237568469E+02 -0.24071094406E+02  0.39799260261E+02  0.00000000000E+00 0. -1.
         21    1    1    2  505  502  0.11123329439E+03 -0.59567969440E+02 -0.28278741675E+03  0.30966096273E+03  0.00000000000E+00 0.  1.
         21    1    1    2  506  501 -0.68724527586E+02  0.29557678475E+01  0.52357631708E+02  0.86447202694E+02  0.00000000000E+00 0.  1.
<scales pt_clust_3="42.18923" pt_clust_4="31.69485" pt_clust_5="14000.00000" pt_clust_6="92.12672"></scales>
<clustering>
<clus scale="   31.695">  2  4  1 -1</clus>
<clus scale="   42.189">  1  3  2 -1</clus>
<clus scale="   92.127">  1  6  2 -1</clus>
<clus scale="   42.189">  1  3  2 -1</clus>
</clustering>
</event>
<event>
 6    0  0.9252957E+002  0.1213039E+03  0.7546771E-02  0.1240961E+00
         21   -1    0    0  502  501  0.00000000000E+00  0.00000000000E+00  0.12197420370E+04  0.12197420370E+04  0.00000000000E+00 0. -1.
         21   -1    0    0  506  502 -0.00000000000E+00 -0.00000000000E+00 -0.15026630359E+03  0.15026630359E+03  0.00000000000E+00 0.  1.
         21    1    1    2  503  505  0.14391227622E+02 -0.42913184606E+02  0.78367923920E+01  0.45935434693E+02  0.00000000000E+00 0. -1.
         21    1    1    2  504  501  0.73830225910E+02  0.92395021194E+01  0.10985973544E+04  0.11011141710E+04  0.00000000000E+00 0. -1.
         21    1    1    2  505  504  0.21143487129E+02 -0.39716226014E+02  0.48342846473E+02  0.66041323896E+02  0.00000000000E+00 0.  1.
         21    1    1    2  506  503 -0.10936494066E+03  0.73389908500E+02 -0.85301259863E+02  0.15691741092E+03  0.00000000000E+00 0.  1.
<scales pt_clust_3="35.84194" pt_clust_4="74.40612" pt_clust_5="35.84194" pt_clust_6="115.85478"></scales>
<clustering>
<clus scale="   35.842">  3  5 -1 -1</clus>
<clus scale="   74.406">  1  4  2 -1</clus>
<clus scale="  115.855">  2  6  1 -1</clus>
<clus scale="   74.406">  1  3  2 -1</clus>
</clustering>
</event>
<event>
 6    0  0.8777103E+002  0.8818925E+02  0.7546771E-02  0.1307297E+00
         21   -1    0    0  503  501  0.00000000000E+00  0.00000000000E+00  0.20320535166E+04  0.20320535166E+04  0.00000000000E+00 0.  1.
         21   -1    0    0  506  502 -0.00000000000E+00 -0.00000000000E+00 -0.27219632544E+02  0.27219632544E+02  0.00000000000E+00 0. -1.
         21    1    1    2  503  504 -0.40527274219E+02  0.44133336157E+02  0.74487682871E+03  0.74728287901E+03  0.00000000000E+00 0.  1.
         21    1    1    2  504  502  0.13261267761E+03  0.70886194567E+01  0.32724091728E+03  0.35316142022E+03  0.00000000000E+00 0. -1.
         21    1    1    2  505  501 -0.18601586214E+02 -0.55305032623E+02  0.83223321694E+03  0.83427620907E+03  0.00000000000E+00 0.  1.
         21    1    1    2  506  505 -0.73483817177E+02  0.40830770095E+01  0.10048292117E+03  0.12455264088E+03  0.00000000000E+00 0. -1.
<scales pt_clust_3="53.00185" pt_clust_4="88.18925" pt_clust_5="58.34951" pt_clust_6="14000.00000"></scales>
<clustering>
<clus scale="   58.350">  1  5  2 -1</clus>
<clus scale="   53.002">  1  3  2 -1</clus>
<clus scale="   88.189">  1  4  2 -1</clus>
<clus scale="   58.350">  1  3  2 -1</clus>
</clustering>
</event>
<event>
 6    0  0.8777103E+002  0.1811122E+03  0.7546771E-02  0.1166731E+00
         21   -1    0    0  503  501  0.00000000000E+00  0.00000000000E+00  0.41635732650E+03  0.41635732650E+03  0.00000000000E+00 0.  1.
         21   -1    0    0  506  502 -0.00000000000E+00 -0.00000000000E+00 -0.33800610726E+03  0.33800610726E+03  0.00000000000E+00 0.  1.
         21    1    1    2  503  504 -0.16334739490E+03 -0.14465051702E+03  0.27685591882E+03  0.35249871387E+03  0.00000000000E+00 0.  1.
         21    1    1    2  504  502  0.17346549496E+03  0.68675664857E+02 -0.23271589059E+03  0.29826717992E+03  0.00000000000E+00 0.  1.
         21    1    1    2  505  501  0.18533279425E+02  0.47209661124E+02  0.37185880898E+02  0.62888983835E+02  0.00000000000E+00 0. -1.
         21    1    1    2  506  505 -0.28651379486E+02  0.28765191041E+02 -0.29746898889E+01  0.40708556128E+02  0.00000000000E+00 0. -1.
<scales pt_clust_3="181.11220" pt_clust_4="14000.00000" pt_clust_5="51.40223" pt_clust_6="40.59973"></scales>
<clustering>
<clus scale="   40.600">  2  6  1 -1</clus>
<clus scale="   51.402">  1  5  2 -1</clus>
<clus scale="  181.112">  1  3  2 -1</clus>
<clus scale="   51.402">  1  3  2 -1</clus>
</clustering>
</event>
<event>
 6    0  0.8777103E+002  0.1421902E+03  0.7546771E-02  0.1210412E+00
         21   -1    0    0  505  501  0.00000000000E+00  0.00000000000E+00  0.10683179566E+04  0.10683179566E+04  0.00000000000E+00 0.  1.
         21   -1    0    0  504  502 -0.00000000000E+00 -0.00000000000E+00 -0.21617908232E+03  0.21617908232E+03  0.00000000000E+00 0. -1.
         21    1    1    2  503  502 -0.32793266446E+02  0.68312665660E+01 -0.10056114102E+03  0.10599343192E+03  0.00000000000E+00 0. -1.
         21    1    1    2  504  506  0.76104759363E+02  0.12574757762E+03 -0.25369505575E+02  0.14915763302E+03  0.00000000000E+00 0. -1.
         21    1    1    2  505  503  0.66692906233E+02 -0.19072124621E+02  0.74205660281E+03  0.74529168214E+03  0.00000000000E+00 0.  1.
         21    1    1    2  506  501 -0.11000439915E+03 -0.11350671956E+03  0.23601291805E+03  0.28405429182E+03  0.00000000000E+00 0. -1.
<scales pt_clust_3="33.49723" pt_clust_4="14000.00000" pt_clust_5="68.88772" pt_clust_6="142.19016"></scales>
<clustering>
<clus scale="   33.497">  2  3  1 -1</clus>
<clus scale="   68.888">  1  5  2 -1</clus>
<clus scale="  142.190">  1  6  2 -1</clus>
<clus scale="   68.888">  1  3  2 -1</clus>
</clustering>
</event>
<event>
 6    0  0.8777103E+002  0.1068726E+03  0.7546771E-02  0.1266473E+00
         21   -1    0    0  502  501  0.00000000000E+00  0.00000000000E+00  0.34573919818E+03  0.34573919818E+03  0.00000000000E+00 0. -1.
         21   -1    0    0  506  502 -0.00000000000E+00 -0.00000000000E+00 -0.12359656543E+03  0.12359656543E+03  0.00000000000E+00 0. -1.
         21    1    1    2  503  505  0.89976436349E+02 -0.30266968756E+02  0.41599076908E+02  0.10364522032E+03  0.00000000000E+00 0. -1.
         21    1    1    2  504  503 -0.10904770883E+03  0.81175438942E+01 -0.37242603886E+02  0.11551756950E+03  0.00000000000E+00 0. -1.
         21    1    1    2  505  501  0.32539519671E+02 -0.51430646064E+01  0.21724995359E+03  0.21973350630E+03  0.00000000000E+00 0. -1.
         21    1    1    2  506  504 -0.13468247192E+02  0.27292489468E+02  0.53620613362E+00  0.30439467486E+02  0.00000000000E+00 0. -1.
<scales pt_clust_3="106.87262" pt_clust_4="14000.00000" pt_clust_5="32.74394" pt_clust_6="30.43474"></scales>
<clustering>
<clus scale="   30.435">  2  6  1 -1</clus>
<clus scale="   32.744">  1  5  2 -1</clus>
<clus scale="  106.873">  1  3  2 -1</clus>
<clus scale="   32.744">  1  3  2 -1</clus>
</clustering>
</event>
<event>
 6    0  0.8777103E+002  0.8827074E+02  0.7546771E-02  0.1307094E+00
         21   -1    0    0  503  501  0.00000000000E+00  0.00000000000E+00  0.27881621316E+03  0.27881621316E+03  0.00000000000E+00 0. -1.
         21   -1    0    0  505  502 -0.00000000000E+00 -0.00000000000E+00 -0.18787697044E+03  0.18787697044E+03  0.00000000000E+00 0. -1.
         21    1    1    2  503  502  0.70270028021E+02 -0.48978412627E+02 -0.11365932954E+03  0.14232078180E+03  0.00000000000E+00 0. -1.
         21    1    1    2  504  506 -0.80239180106E+02 -0.36545863657E+02  0.12409637586E+03  0.15222955257E+03  0.00000000000E+00 0. -1.
         21    1    1    2  505  504  0.23656435224E+02  0.51320734580E+02 -0.23955919754E+02  0.61378585977E+02  0.00000000000E+00 0.  1.
         21    1    1    2  506  501 -0.13687283140E+02  0.34203541704E+02  0.10445811615E+03  0.11076426325E+03  0.00000000000E+00 0.  1.
<scales pt_clust_3="88.27074" pt_clust_4="14000.00000" pt_clust_5="59.35126" pt_clust_6="36.84052"></scales>
<clustering>
<clus scale="   36.841">  1  6  2 -1</clus>
<clus scale="   59.351">  2  5  1 -1</clus>
<clus scale="   88.271">  2  3  1 -1</clus>
<clus scale="   36.841">  1  3  2 -1</clus>
</clustering>
</event>
<event>
 6    0  0.8777103E+002  0.7300266E+02  0.7546771E-02  0.1350170E+00
         21   -1    0    0  503  501  0.00000000000E+00  0.00000000000E+00  0.20692797826E+03  0.20692797826E+03  0.00000000000E+00 0. -1.
         21   -1    0    0  506  502 -0.00000000000E+00 -0.00000000000E+00 -0.77625161480E+03  0.77625161480E+03  0.00000000000E+00 0. -1.
         21    1    1    2  503  504  0.32698895095E+02 -0.41086941362E+02  0.45066720502E+02  0.69198004218E+02  0.00000000000E+00 0. -1.
         21    1    1    2  504  502 -0.32336258041E+02  0.56879749426E+02 -0.68248312774E+03  0.68561225130E+03  0.00000000000E+00 0. -1.
         21    1    1    2  505  501 -0.67674173891E+02 -0.34034975549E+02  0.11966946700E+03  0.14162963921E+03  0.00000000000E+00 0. -1.
         21    1    1    2  506  505  0.67311536836E+02  0.18242167486E+02 -0.51576696298E+02  0.86739698333E+02  0.00000000000E+00 0. -1.
<scales pt_clust_3="52.51052" pt_clust_4="64.88709" pt_clust_5="73.00266" pt_clust_6="14000.00000"></scales>
<clustering>
<clus scale="   52.511">  1  3  2 -1</clus>
<clus scale="   64.887">  2  4  1 -1</clus>
<clus scale="   73.003">  1  5  2 -1</clus>
<clus scale="   52.511">  1  3  2 -1</clus>
</clustering>
</event>
<event>
 6    0  0.8777103E+002  0.8051269E+02  0.7546771E-02  0.1327603E+00
         21   -1    0    0  506  501  0.00000000000E+00  0.00000000000E+00  0.21652931623E+03  0.21652931623E+03  0.00000000000E+00 0.  1.
         21   -1    0    0  503  502 -0.00000000000E+00 -0.00000000000E+00 -0.19837529538E+03  0.19837529538E+03  0.00000000000E+00 0.  1.
         21    1    1    2  503  505  0.37872203616E+02 -0.56402147220E+02 -0.11045282238E+03  0.12967394491E+03  0.00000000000E+00 0.  1.
         21    1    1    2  504  501 -0.38979028749E+02  0.26897303055E+02  0.23867917272E+02  0.53033075233E+02  0.00000000000E+00 0. -1.
         21    1    1    2  505  504 -0.80557232699E+02 -0.16692183772E+02 -0.11224798915E+02  0.83030674150E+02  0.00000000000E+00 0.  1.
         21    1    1    2  506  502  0.81664057831E+02  0.46197027936E+02  0.11596372488E+03  0.14916691731E+03  0.00000000000E+00 0.  1.
<scales pt_clust_3="65.56642" pt_clust_4="47.35852" pt_clust_5="14000.00000" pt_clust_6="80.51269"></scales>
<clustering>
<clus scale="   47.359">  1  4  2 -1</clus>
<clus scale="   65.566">  2  3  1 -1</clus>
<clus scale="   80.513">  1  6  2 -1</clus>
<clus scale="   47.359">  1  3  2 -1</clus>
</clustering>
</event>
<event>
 6    0  0.8777103E+002  0.8096419E+02  0.7546771E-02  0.1326337E+00
         21   -1    0    0  505  501  0.00000000000E+00  0.00000000000E+00  0.58044908014E+02  0.58044908014E+02  0.00000000000E+00 0.  1.
         21   -1    0    0  504  502 -0.00000000000E+00 -0.00000000000E+00 -0.64150646895E+03  0.64150646895E+03  0.00000000000E+00 0.  1.
         21    1    1    2  503  506  0.11594886820E+03 -0.69196739859E+02 -0.33012416799E+03  0.35667113023E+03  0.00000000000E+00 0.  1.
         21    1    1    2  504  501 -0.18377288351E+02 -0.39409680197E+02 -0.73909554356E+02  0.85752375160E+02  0.00000000000E+00 0.  1.
         21    1    1    2  505  503 -0.37800387298E+02  0.65442246657E+02 -0.15169931516E+02  0.77082318008E+02  0.00000000000E+00 0.  1.
         21    1    1    2  506  502 -0.59771192555E+02  0.43164173400E+02 -0.16425790707E+03  0.18004555357E+03  0.00000000000E+00 0.  1.
<scales pt_clust_3="14000.00000" pt_clust_4="43.48388" pt_clust_5="80.96419" pt_clust_6="72.41509"></scales>
<clustering>
<clus scale="   43.484">  2  4  1 -1</clus>
<clus scale="   72.415">  2  6  1 -1</clus>
<clus scale="   80.964">  1  5  2 -1</clus>
<clus scale="   80.964">  1  3  2 -1</clus>
</clustering>
</event>
<event>
 6    0  0.8777103E+002  0.7706568E+02  0.7546771E-02  0.1337591E+00
         21   -1    0    0  506  501  0.00000000000E+00  0.00000000000E+00  0.27135023501E+03  0.27135023501E+03  0.00000000000E+00 0. -1.
         21   -1    0    0  503  502 -0.00000000000E+00 -0.00000000000E+00 -0.98463178911E+02  0.98463178911E+02  0.00000000000E+00 0.  1.
         21    1    1    2  503  505  0.60024975861E+02  0.52339728079E+02  0.68508109087E+01  0.79933587888E+02  0.00000000000E+00 0.  1.
         21    1    1    2  504  502 -0.89728173553E+02  0.16158498561E+02 -0.54819686633E+01  0.91336160338E+02  0.00000000000E+00 0.  1.
         21    1    1    2  505  501  0.34632028461E+02 -0.17646034550E+02  0.11937158835E+03  0.12554017698E+03  0.00000000000E+00 0. -1.
         21    1    1    2  506  504 -0.49288307695E+01 -0.50852192090E+02  0.52146625503E+02  0.73003488714E+02  0.00000000000E+00 0. -1.
<scales pt_clust_3="77.06568" pt_clust_4="14000.00000" pt_clust_5="38.86850" pt_clust_6="59.05793"></scales>
<clustering>
<clus scale="   38.868">  1  5  2 -1</clus>
<clus scale="   59.058">  1  6  2 -1</clus>
<clus scale="   77.066">  1  3  2 -1</clus>
<clus scale="   38.868">  1  3  2 -1</clus>
</clustering>
</event>
<event>
 6    0  0.8777103E+002  0.1411468E+03  0.7546771E-02  0.1211794E+00
         21   -1    0    0  503  501  0.00000000000E+00  0.00000000000E+00  0.66668935367E+02  0.66668935367E+02  0.00000000000E+00 0. -1.
         21   -1    0    0  505  502 -0.00000000000E+00 -0.00000000000E+00 -0.14752556908E+04  0.14752556908E+04  0.00000000000E+00 0. -1.
         21    1    1    2  503  506 -0.30623124663E+02  0.24847264737E+02  0.35624229559E+02  0.53143654943E+02  0.00000000000E+00 0. -1.
         21    1    1    2  504  501 -0.11098143878E+03  0.12385713957E+02 -0.22111766488E+03  0.24771618313E+03  0.00000000000E+00 0. -1.
         21    1    1    2  505  504 -0.31333537130E+02 -0.65339440895E+01 -0.27327019156E+03  0.27513829353E+03  0.00000000000E+00 0. -1.
         21    1    1    2  506  502  0.17293810057E+03 -0.30699034604E+02 -0.94982312859E+03  0.96592649459E+03  0.00000000000E+00 0. -1.
<scales pt_clust_3="39.58339" pt_clust_4="14000.00000" pt_clust_5="32.00755" pt_clust_6="141.14678"></scales>
<clustering>
<clus scale="   32.008">  2  5  1 -1</clus>
<clus scale="   39.583">  1  3  2 -1</clus>
<clus scale="  141.147">  2  6  1 -1</clus>
<clus scale="   39.583">  1  3  2 -1</clus>
</clustering>
</event>
<event>
 6    0  0.8777103E+002  0.1940192E+03  0.7546771E-02  0.1154885E+00
         21   -1    0    0  506  501  0.00000000000E+00  0.00000000000E+00  0.26567466121E+04  0.26567466121E+04  0.00000000000E+00 0. -1.
         21   -1    0    0  504  502 -0.00000000000E+00 -0.00000000000E+00 -0.22786014351E+03  0.22786014351E+03  0.00000000000E+00 0.  1.
         21    1    1    2  503  502  0.19749091543E+03  0.43912347865E+02 -0.15185789133E+03  0.25296595647E+03  0.00000000000E+00 0.  1.
         21    1    1    2  504  501 -0.50873459515E+02  0.60337423270E+02  0.49889245566E+02  0.93368358414E+02  0.00000000000E+00 0.  1.
         21    1    1    2  505  503 -0.15381464405E+02 -0.40355476178E+02  0.37429772261E+03  0.37678102268E+03  0.00000000000E+00 0. -1.
         21    1    1    2  506  505 -0.13123599151E+03 -0.63894294957E+02  0.21565573918E+04  0.21614914181E+04  0.00000000000E+00 0. -1.
<scales pt_clust_3="180.02436" pt_clust_4="78.92220" pt_clust_5="39.35514" pt_clust_6="39.35514"></scales>
<clustering>
<clus scale="   39.355">  5  6 -1 -1</clus>
<clus scale="   78.922">  2  4  1 -1</clus>
<clus scale="  180.024">  2  3  1 -1</clus>
<clus scale="  194.019">  1  3  2 -1</clus>
</clustering>
</event>
<event>
 6    0  0.8777103E+002  0.1239212E+03  0.7546771E-02  0.1236765E+00
         21   -1    0    0  504  501  0.00000000000E+00  0.00000000000E+00  0.17519166078E+04  0.17519166078E+04  0.00000000000E+00 0.  1.
         21   -1    0    0  505  502 -0.00000000000E+00 -0.00000000000E+00 -0.80655926177E+02  0.80655926177E+02  0.00000000000E+00 0.  1.
         21    1    1    2  503  501  0.42114569908E+02  0.68871535765E+01  0.10527232111E+04  0.10535877890E+04  0.00000000000E+00 0.  1.
         21    1    1    2  504  502 -0.83522092746E+02  0.48569702047E+02  0.44436663348E+03  0.45474900866E+03  0.00000000000E+00 0.  1.
         21    1    1    2  505  506  0.11594734976E+03 -0.53342570721E+02 -0.75068480470E+01  0.12784979677E+03  0.00000000000E+00 0.  1.
         21    1    1    2  506  503 -0.74539826922E+02 -0.21142849020E+01  0.18167768508E+03  0.19638593955E+03  0.00000000000E+00 0.  1.
<scales pt_clust_3="42.67400" pt_clust_4="123.92119" pt_clust_5="14000.00000" pt_clust_6="63.14731"></scales>
<clustering>
<clus scale="   42.674">  1  3  2 -1</clus>
<clus scale="   63.147">  1  6  2 -1</clus>
<clus scale="  123.921">  1  4  2 -1</clus>
<clus scale="   42.674">  1  3  2 -1</clus>
</clustering>
</event>
<event>
 6    0  0.8777103E+002  0.7547143E+02  0.7546771E-02  0.1342417E+00
         21   -1    0    0  503  501  0.00000000000E+00  0.00000000000E+00  0.15822314050E+03  0.15822314050E+03  0.00000000000E+00 0. -1.
         21   -1    0    0  506  502 -0.00000000000E+00 -0.00000000000E+00 -0.43520904996E+03  0.43520904996E+03  0.00000000000E+00 0. -1.
         21    1    1    2  503  505  0.79598929526E+02  0.46170317419E+02  0.56271593180E+02  0.10786185605E+03  0.00000000000E+00 0. -1.
         21    1    1    2  504  501 -0.68925353777E+02  0.50168456574E+01  0.41628668870E+02  0.80677253334E+02  0.00000000000E+00 0. -1.
         21    1    1    2  505  502  0.46969722063E+02  0.79700201552E+01 -0.25434376783E+03  0.25876713131E+03  0.00000000000E+00 0. -1.
         21    1    1    2  506  504 -0.57643297812E+02 -0.59157183232E+02 -0.12054240368E+03  0.14612594977E+03  0.00000000000E+00 0. -1.
<scales pt_clust_3="75.47143" pt_clust_4="14000.00000" pt_clust_5="47.64112" pt_clust_6="57.80511"></scales>
<clustering>
<clus scale="   47.641">  2  5  1 -1</clus>
<clus scale="   57.805">  2  6  1 -1</clus>
<clus scale="   75.471">  2  3  1 -1</clus>
<clus scale="   75.471">  1  3  2 -1</clus>
</clustering>
</event>
<event>
 6    0  0.8777103E+002  0.9785763E+02  0.7546771E-02  0.1284867E+00
         21   -1    0    0  505  501  0.00000000000E+00  0.00000000000E+00  0.48738591833E+03  0.48738591833E+03  0.00000000000E+00 0. -1.
         21   -1    0    0  503  502 -0.00000000000E+00 -0.00000000000E+00 -0.22811368894E+03  0.22811368894E+03  0.00000000000E+00 0.  1.
         21    1    1    2  503  504 -0.75134351922E+02  0.62665694821E+00 -0.10132723263E+02  0.75817119560E+02  0.00000000000E+00 0. -1.
         21    1    1    2  504  506  0.97563285583E+02 -0.48870541428E+02  0.33006343431E+03  0.34763313303E+03  0.00000000000E+00 0. -1.
         21    1    1    2  505  502 -0.27941102465E+02  0.12608677485E+02 -0.17215707934E+03  0.17486493051E+03  0.00000000000E+00 0.  1.
         21    1    1    2  506  501  0.55121688031E+01  0.35635206995E+02  0.11149859768E+03  0.11718442417E+03  0.00000000000E+00 0. -1.
<scales pt_clust_3="97.85763" pt_clust_4="14000.00000" pt_clust_5="30.65426" pt_clust_6="36.51779"></scales>
<clustering>
<clus scale="   30.654">  2  5  1 -1</clus>
<clus scale="   36.518">  1  6  2 -1</clus>
<clus scale="   97.858">  2  3  1 -1</clus>
<clus scale="   36.518">  1  3  2 -1</clus>
</clustering>
</event>
<event>
 6    0  0.8777103E+002  0.9680935E+02  0.7546771E-02  0.1287152E+00
         21   -1    0    0  506  501  0.00000000000E+00  0.00000000000E+00  0.47134952053E+02  0.47134952053E+02  0.00000000000E+00 0. -1.
         21   -1    0    0  505  502 -0.00000000000E+00 -0.00000000000E+00 -0.20238327300E+04  0.20238327300E+04  0.00000000000E+00 0. -1.
         21    1    1    2  503  501 -0.52583112263E+01  0.83641063485E+02 -0.10801559851E+03  0.13671447202E+03  0.00000000000E+00 0. -1.
         21    1    1    2  504  502  0.79576303814E+02  0.28247659888E+02 -0.14720098684E+04  0.14744298461E+04  0.00000000000E+00 0. -1.
         21    1    1    2  505  503 -0.13214047146E+02  0.38669737424E+02 -0.20274644522E+03  0.20682379139E+03  0.00000000000E+00 0. -1.
         21    1    1    2  506  504 -0.61103945442E+02 -0.15055846080E+03 -0.19392586576E+03  0.25299957248E+03  0.00000000000E+00 0. -1.
<scales pt_clust_3="86.46113" pt_clust_4="96.80935" pt_clust_5="40.86514" pt_clust_6="14000.00000"></scales>
<clustering>
<clus scale="   40.865">  2  5  1 -1</clus>
<clus scale="   86.461">  1  3  2 -1</clus>
<clus scale="   96.809">  2  4  1 -1</clus>
<clus scale="   86.461">  1  3  2 -1</clus>
</clustering>
</event>
<event>
 6    0  0.8777103E+002  0.3521511E+03  0.7546771E-02  0.1061736E+00
         21   -1    0    0  506  501  0.00000000000E+00  0.00000000000E+00  0.15213690372E+04  0.15213690372E+04  0.00000000000E+00 0. -1.
         21   -1    0    0  501  502 -0.00000000000E+00 -0.00000000000E+00 -0.46101965092E+03  0.46101965092E+03  0.00000000000E+00 0. -1.
         21    1    1    2  503  504 -0.22284871336E+03  0.21552755090E+03  0.74987717899E+03  0.81143666285E+03  0.00000000000E+00 0. -1.
         21    1    1    2  504  505  0.37471447478E+02 -0.97384171350E+01 -0.82309072228E+02  0.90960043511E+02  0.00000000000E+00 0. -1.
         21    1    1    2  505  502  0.23653031209E+03 -0.19687945436E+03 -0.27348448549E+03  0.41170605034E+03  0.00000000000E+00 0. -1.
         21    1    1    2  506  503 -0.51153046211E+02 -0.89096794043E+01  0.66626576502E+03  0.66828593144E+03  0.00000000000E+00 0. -1.
<scales pt_clust_3="340.13845" pt_clust_4="32.34545" pt_clust_5="32.34545" pt_clust_6="51.92318"></scales>
<clustering>
<clus scale="   32.345">  4  5 -1 -1</clus>
<clus scale="   51.923">  1  6  2 -1</clus>
<clus scale="  340.138">  1  3  2 -1</clus>
<clus scale="   51.923">  1  3  2 -1</clus>
</clustering>
</event>
<event>
 6    0  0.8777103E+002  0.2230341E+03  0.7546771E-02  0.1131641E+00
         21   -1    0    0  506  501  0.00000000000E+00  0.00000000000E+00  0.13332123385E+04  0.13332123385E+04  0.00000000000E+00 0. -1.
         21   -1    0    0  503  502 -0.00000000000E+00 -0.00000000000E+00 -0.64747830655E+02  0.64747830655E+02  0.00000000000E+00 0.  1.
         21    1    1    2  503  505 -0.16064672386E+03 -0.10281389829E+03  0.16056716137E+03  0.24931883378E+03  0.00000000000E+00 0.  1.
         21    1    1    2  504  501  0.12405080652E+03  0.47137365051E+02  0.40496623880E+03  0.42615512240E+03  0.00000000000E+00 0.  1.
         21    1    1    2  505  504  0.51552051409E+02  0.10304675206E+03  0.53975459935E+03  0.55191600324E+03  0.00000000000E+00 0. -1.
         21    1    1    2  506  502 -0.14956134065E+02 -0.47370218816E+02  0.16317650833E+03  0.17057020973E+03  0.00000000000E+00 0. -1.
<scales pt_clust_3="197.50998" pt_clust_4="89.94374" pt_clust_5="89.94374" pt_clust_6="49.67518"></scales>
<clustering>
<clus scale="   49.675">  1  6  2 -1</clus>
<clus scale="   89.944">  4  5 -1 -1</clus>
<clus scale="  197.510">  2  3  1 -1</clus>
<clus scale="   49.675">  1  3  2 -1</clus>
</clustering>
</event>
<event>
 6    0  0.8777103E+002  0.1656737E+03  0.7546771E-02  0.1182436E+00
         21   -1    0    0  503  501  0.00000000000E+00  0.00000000000E+00  0.60720389980E+02  0.60720389980E+02  0.00000000000E+00 0.  1.
         21   -1    0    0  505  502 -0.00000000000E+00 -0.00000000000E+00 -0.11339542723E+04  0.11339542723E+04  0.00000000000E+00 0.  1.
         21    1    1    2  503  506 -0.91596759577E+02  0.19239115377E+03 -0.28976655572E+03  0.35967899470E+03  0.00000000000E+00 0.  1.
         21    1    1    2  504  501  0.17300152644E+02 -0.13293058449E+03 -0.22256521433E+03  0.25981745554E+03  0.00000000000E+00 0.  1.
         21    1    1    2  505  504  0.12281740562E+02 -0.44707996023E+02 -0.39050652387E+03  0.39324927367E+03  0.00000000000E+00 0.  1.
         21    1    1    2  506  502  0.62014866371E+02 -0.14752573257E+02 -0.17039558844E+03  0.18192893840E+03  0.00000000000E+00 0.  1.
<scales pt_clust_3="165.67375" pt_clust_4="14000.00000" pt_clust_5="46.36428" pt_clust_6="69.70931"></scales>
<clustering>
<clus scale="   46.364">  2  5  1 -1</clus>
<clus scale="   69.709">  2  6  1 -1</clus>
<clus scale="  165.674">  2  3  1 -1</clus>
<clus scale="  165.674">  1  3  2 -1</clus>
</clustering>
</event>
<event>
 6    0  0.8777103E+002  0.7933872E+02  0.7546771E-02  0.1330939E+00
         21   -1    0    0  506  501  0.00000000000E+00  0.00000000000E+00  0.25838294550E+03  0.25838294550E+03  0.00000000000E+00 0. -1.
         21   -1    0    0  505  502 -0.00000000000E+00 -0.00000000000E+00 -0.65325326729E+02  0.65325326729E+02  0.00000000000E+00 0. -1.
         21    1    1    2  503  504  0.60041699469E+01  0.45581418281E+02  0.47288488987E+02  0.65953900112E+02  0.00000000000E+00 0. -1.
         21    1    1    2  504  502  0.43799943977E+02 -0.78811138377E+02  0.38984278705E+02  0.98231383024E+02  0.00000000000E+00 0. -1.
         21    1    1    2  505  501 -0.79307709958E+02  0.20396426045E+02  0.55300708762E+02  0.98812425554E+02  0.00000000000E+00 0. -1.
         21    1    1    2  506  503  0.29503596034E+02  0.12833294051E+02  0.51484142317E+02  0.60710563539E+02  0.00000000000E+00 0.  1.
<scales pt_clust_3="51.20015" pt_clust_4="79.33872" pt_clust_5="14000.00000" pt_clust_6="32.17383"></scales>
<clustering>
<clus scale="   32.174">  1  6  2 -1</clus>
<clus scale="   51.200">  1  3  2 -1</clus>
<clus scale="   79.339">  2  4  1 -1</clus>
<clus scale="   32.174">  1  3  2 -1</clus>
</clustering>
</event>
<event>
 6    0  0.8777103E+002  0.1384609E+03  0.7546771E-02  0.1215415E+00
         21   -1    0    0  502  501  0.00000000000E+00  0.00000000000E+00  0.53607147636E+03  0.53607147636E+03  0.00000000000E+00 0. -1.
         21   -1    0    0  506  502 -0.00000000000E+00 -0.00000000000E+00 -0.13513988689E+04  0.13513988689E+04  0.00000000000E+00 0.  1.
         21    1    1    2  503  505 -0.67964296650E+02  0.93943291650E+02 -0.14848787756E+02  0.11689728039E+03  0.00000000000E+00 0. -1.
         21    1    1    2  504  501  0.52349953770E+02 -0.76764500364E+01  0.43776282992E+03  0.44094868273E+03  0.00000000000E+00 0. -1.
         21    1    1    2  505  504 -0.38146857714E+02  0.22845097043E+02  0.31231800644E+02  0.54336972531E+02  0.00000000000E+00 0. -1.
         21    1    1    2  506  503  0.53761200595E+02 -0.10911193866E+03 -0.12694732354E+04  0.12752874096E+04  0.00000000000E+00 0.  1.
<scales pt_clust_3="39.91036" pt_clust_4="52.90979" pt_clust_5="39.91036" pt_clust_6="122.54695"></scales>
<clustering>
<clus scale="   39.910">  3  5 -1 -1</clus>
<clus scale="   52.910">  1  4  2 -1</clus>
<clus scale="  122.547">  2  6  1 -1</clus>
<clus scale="   52.910">  1  3  2 -1</clus>
</clustering>
</event>
<event>
 6    0  0.8777103E+002  0.1199643E+03  0.7546771E-02  0.1243156E+00
         21   -1    0    0  505  501  0.00000000000E+00  0.00000000000E+00  0.96680352013E+03  0.96680352013E+03  0.00000000000E+00 0. -1.
         21   -1    0    0  506  502 -0.00000000000E+00 -0.00000000000E+00 -0.14053097657E+03  0.14053097657E+03  0.00000000000E+00 0. -1.
         21    1    1    2  503  502 -0.20732633013E+02  0.23135913765E+02 -0.96034819889E+02  0.10093462839E+03  0.00000000000E+00 0. -1.
         21    1    1    2  504  503  0.98859771727E+02 -0.39251690843E+02  0.26040898049E+03  0.28129483966E+03  0.00000000000E+00 0. -1.
         21    1    1    2  505  504  0.15260599608E+02 -0.47315486248E+02  0.58817428735E+03  0.59027166071E+03  0.00000000000E+00 0. -1.
         21    1    1    2  506  501 -0.93387738323E+02  0.63431263325E+02  0.73724095613E+02  0.13483336794E+03  0.00000000000E+00 0. -1.
<scales pt_clust_3="31.06626" pt_clust_4="14000.00000" pt_clust_5="49.00871" pt_clust_6="119.96428"></scales>
<clustering>
<clus scale="   31.066">  2  3  1 -1</clus>
<clus scale="   49.009">  1  5  2 -1</clus>
<clus scale="  119.964">  2  6  1 -1</clus>
<clus scale="   49.009">  1  3  2 -1</clus>
</clustering>
</event>
<event>
 6    0  0.8777103E+002  0.8458302E+02  0.7546771E-02  0.1316527E+00
         21   -1    0    0  506  501  0.00000000000E+00  0.00000000000E+00  0.66985523753E+02  0.66985523753E+02  0.00000000000E+00 0.  1.
         21   -1    0    0  503  502 -0.00000000000E+00 -0.00000000000E+00 -0.18508661513E+04  0.18508661513E+04  0.00000000000E+00 0.  1.
         21    1    1    2  503  501 -0.14661470692E+02 -0.81017229094E+02  0.60305881104E+01  0.82553728722E+02  0.00000000000E+00 0.  1.
         21    1    1    2  504  505  0.74631878555E+02 -0.71391519737E+01 -0.33153596495E+03  0.33990731213E+03  0.00000000000E+00 0. -1.
         21    1    1    2  505  502 -0.73569140091E+02  0.52729996847E+02 -0.14544250429E+04  0.14572388536E+04  0.00000000000E+00 0.  1.
         21    1    1    2  506  504  0.13598732228E+02  0.35426384221E+02 -0.39502077195E+01  0.38151780538E+02  0.00000000000E+00 0.  1.
<scales pt_clust_3="49.62998" pt_clust_4="14000.00000" pt_clust_5="84.58302" pt_clust_6="37.94673"></scales>
<clustering>
<clus scale="   37.947">  1  6  2 -1</clus>
<clus scale="   49.630">  1  3  2 -1</clus>
<clus scale="   84.583">  2  5  1 -1</clus>
<clus scale="   37.947">  1  3  2 -1</clus>
</clustering>
</event>
<event>
 6    0  0.8777103E+002  0.2747114E+03  0.7546771E-02  0.1098613E+00
         21   -1    0    0  504  501  0.00000000000E+00  0.00000000000E+00  0.20017796719E+03  0.20017796719E+03  0.00000000000E+00 0. -1.
         21   -1    0    0  505  502 -0.00000000000E+00 -0.00000000000E+00 -0.46145943774E+03  0.46145943774E+03  0.00000000000E+00 0. -1.
         21    1    1    2  503  506 -0.71878236879E+02 -0.21349225327E+03 -0.11803516633E+03  0.25431815435E+03  0.00000000000E+00 0. -1.
         21    1    1    2  504  502  0.43747098278E+02  0.26897674643E+03 -0.12243154704E+03  0.29875036810E+03  0.00000000000E+00 0. -1.
         21    1    1    2  505  503  0.87410002468E+01 -0.30452741758E+02 -0.54058806164E+02  0.62658830900E+02  0.00000000000E+00 0. -1.
         21    1    1    2  506  501  0.19390138355E+02 -0.25031751404E+02  0.33244048986E+02  0.45910051587E+02  0.00000000000E+00 0. -1.
<scales pt_clust_3="32.03389" pt_clust_4="260.96700" pt_clust_5="32.03389" pt_clust_6="31.66332"></scales>
<clustering>
<clus scale="   31.663">  1  6  2 -1</clus>
<clus scale="   32.034">  3  5 -1 -1</clus>
<clus scale="  260.967">  1  4  2 -1</clus>
<clus scale="   31.663">  1  3  2 -1</clus>
</clustering>
</event>
<event>
 6    0  0.8777103E+002  0.9027846E+02  0.7546771E-02  0.1302179E+00
         21   -1    0    0  505  501  0.00000000000E+00  0.00000000000E+00  0.26900225934E+03  0.26900225934E+03  0.00000000000E+00 0.  1.
         21   -1    0    0  506  502 -0.00000000000E+00 -0.00000000000E+00 -0.14889271477E+03  0.14889271477E+03  0.00000000000E+00 0.  1.
         21    1    1    2  503  502 -0.11399013013E+02 -0.45969957738E+02 -0.55148763691E+02  0.72694983656E+02  0.00000000000E+00 0.  1.
         21    1    1    2  504  501 -0.30839685440E+02  0.33418371744E+02  0.87825297199E+02  0.98899730010E+02  0.00000000000E+00 0. -1.
         21    1    1    2  505  503 -0.56815720725E+02 -0.52804569616E+02  0.10045468797E+03  0.12691529864E+03  0.00000000000E+00 0.  1.
         21    1    1    2  506  504  0.99054419178E+02  0.65356155610E+02 -0.13021676902E+02  0.11938496180E+03  0.00000000000E+00 0.  1.
<scales pt_clust_3="46.15175" pt_clust_4="45.47388" pt_clust_5="14000.00000" pt_clust_6="90.27846"></scales>
<clustering>
<clus scale="   45.474">  1  4  2 -1</clus>
<clus scale="   46.152">  2  3  1 -1</clus>
<clus scale="   90.278">  2  6  1 -1</clus>
<clus scale="   45.474">  1  3  2 -1</clus>
</clustering>
</event>
<event>
 6    0  0.8777103E+002  0.9589775E+02  0.7546771E-02  0.1289167E+00
         21   -1    0    0  504  501  0.00000000000E+00  0.00000000000E+00  0.15783439601E+03  0.15783439601E+03  0.00000000000E+00 0. -1.
         21   -1    0    0  505  502 -0.00000000000E+00 -0.00000000000E+00 -0.27241149514E+03  0.27241149514E+03  0.00000000000E+00 0.  1.
         21    1    1    2  503  501  0.37648866938E+02 -0.12067166238E+02  0.55012165545E+02  0.67745051780E+02  0.00000000000E+00 0. -1.
         21    1    1    2  504  502  0.11812048373E+02  0.38756615564E+02 -0.21232560531E+02  0.45742992507E+02  0.00000000000E+00 0.  1.
         21    1    1    2  505  506  0.26556366766E+02  0.55956360741E+02 -0.18779362871E+03  0.19774428413E+03  0.00000000000E+00 0.  1.
         21    1    1    2  506  503 -0.76017282077E+02 -0.82645810067E+02  0.39436924560E+02  0.11901356273E+03  0.00000000000E+00 0.  1.
<scales pt_clust_3="39.53547" pt_clust_4="40.75530" pt_clust_5="95.89775" pt_clust_6="14000.00000"></scales>
<clustering>
<clus scale="   39.535">  1  3  2 -1</clus>
<clus scale="   40.755">  2  4  1 -1</clus>
<clus scale="   95.898">  2  5  1 -1</clus>
<clus scale="   39.535">  1  3  2 -1</clus>
</clustering>
</event>
<event>
 6    0  0.8777103E+002  0.7753213E+02  0.7546771E-02  0.1336204E+00
         21   -1    0    0  504  501  0.00000000000E+00  0.00000000000E+00  0.25541055672E+03  0.25541055672E+03  0.00000000000E+00 0.  1.
         21   -1    0    0  506  502 -0.00000000000E+00 -0.00000000000E+00 -0.29041365577E+03  0.29041365577E+03  0.00000000000E+00 0. -1.
         21    1    1    2  503  502 -0.30888594679E+02  0.13166192564E+02 -0.18140144287E+02  0.38164364827E+02  0.00000000000E+00 0. -1.
         21    1    1    2  504  503  0.39878989773E+02  0.95949485622E+02  0.16674908646E+03  0.19647365078E+03  0.00000000000E+00 0.  1.
         21    1    1    2  505  501 -0.57429742089E+02 -0.23728735826E+02  0.35160911423E+02  0.71396903802E+02  0.00000000000E+00 0. -1.
         21    1    1    2  506  505  0.48439346995E+02 -0.85386942361E+02 -0.21877295265E+03  0.23978929308E+03  0.00000000000E+00 0. -1.
<scales pt_clust_3="33.57758" pt_clust_4="77.53213" pt_clust_5="63.78512" pt_clust_6="14000.00000"></scales>
<clustering>
<clus scale="   33.578">  2  3  1 -1</clus>
<clus scale="   63.785">  1  5  2 -1</clus>
<clus scale="   77.532">  1  4  2 -1</clus>
<clus scale="   63.785">  1  3  2 -1</clus>
</clustering>
</event>
<event>
 6    0  0.8777103E+002  0.7068354E+02  0.7546771E-02  0.1357784E+00
         21   -1    0    0  504  501  0.00000000000E+00  0.00000000000E+00  0.42969649558E+03  0.42969649558E+03  0.00000000000E+00 0. -1.
         21   -1    0    0  503  502 -0.00000000000E+00 -0.00000000000E+00 -0.47793452136E+03  0.47793452136E+03  0.00000000000E+00 0. -1.
         21    1    1    2  503  501  0.93778615564E+01  0.42231862214E+02  0.43531055405E+02  0.61371225001E+02  0.00000000000E+00 0. -1.
         21    1    1    2  504  506 -0.51687784457E+02 -0.30288147355E+01  0.26429180471E+03  0.26931572330E+03  0.00000000000E+00 0. -1.
         21    1    1    2  505  502  0.51083821044E+02  0.48956322001E+02 -0.44548225634E+03  0.45106620240E+03  0.00000000000E+00 0. -1.
         21    1    1    2  506  505 -0.87738981435E+01 -0.88159369479E+02  0.89421370444E+02  0.12587786623E+03  0.00000000000E+00 0. -1.
<scales pt_clust_3="43.26054" pt_clust_4="52.44364" pt_clust_5="70.68354" pt_clust_6="14000.00000"></scales>
<clustering>
<clus scale="   43.261">  1  3  2 -1</clus>
<clus scale="   52.444">  1  4  2 -1</clus>
<clus scale="   70.684">  2  5  1 -1</clus>
<clus scale="   43.261">  1  3  2 -1</clus>
</clustering>
</event>
<event>
 6    0  0.8777103E+002  0.1890766E+03  0.7546771E-02  0.1159297E+00
         21   -1    0    0  504  501  0.00000000000E+00  0.00000000000E+00  0.13527641968E+03  0.13527641968E+03  0.00000000000E+00 0. -1.
         21   -1    0    0  503  502 -0.00000000000E+00 -0.00000000000E+00 -0.64471382663E+03  0.64471382663E+03  0.00000000000E+00 0. -1.
         21    1    1    2  503  505 -0.14725288368E+03 -0.12643005503E+03 -0.31924473485E+03  0.37361098926E+03  0.00000000000E+00 0. -1.
         21    1    1    2  504  506  0.19539456929E+03  0.57915806509E+02 -0.10642407623E+03  0.22991164032E+03  0.00000000000E+00 0. -1.
         21    1    1    2  505  501 -0.39356128063E+02  0.31843154731E+02  0.28457880001E+02  0.58075315354E+02  0.00000000000E+00 0. -1.
         21    1    1    2  506  502 -0.87855575463E+01  0.36671093789E+02 -0.11222647586E+03  0.11839230138E+03  0.00000000000E+00 0.  1.
<scales pt_clust_3="14000.00000" pt_clust_4="189.07657" pt_clust_5="51.46529" pt_clust_6="37.70882"></scales>
<clustering>
<clus scale="   37.709">  2  6  1 -1</clus>
<clus scale="   51.465">  1  5  2 -1</clus>
<clus scale="  189.077">  1  4  2 -1</clus>
<clus scale="   51.465">  1  3  2 -1</clus>
</clustering>
</event>
<event>
 6    0  0.8777103E+002  0.7402835E+02  0.7546771E-02  0.1346907E+00
         21   -1    0    0  506  501  0.00000000000E+00  0.00000000000E+00  0.72947844269E+02  0.72947844269E+02  0.00000000000E+00 0. -1.
         21   -1    0    0  505  502 -0.00000000000E+00 -0.00000000000E+00 -0.24611888254E+04  0.24611888254E+04  0.00000000000E+00 0.  1.
         21    1    1    2  503  504  0.12766697208E+02  0.95659907915E+02 -0.42446876754E+02  0.10543027974E+03  0.00000000000E+00 0. -1.
         21    1    1    2  504  501 -0.41400528147E+02 -0.26869135011E+02  0.24508747392E+02  0.55105651669E+02  0.00000000000E+00 0. -1.
         21    1    1    2  505  503 -0.24663593471E+02 -0.36547992096E+02 -0.42093738629E+03  0.42324027661E+03  0.00000000000E+00 0. -1.
         21    1    1    2  506  502  0.53297424410E+02 -0.32242780809E+02 -0.19493654655E+04  0.19503604616E+04  0.00000000000E+00 0.  1.
<scales pt_clust_3="14000.00000" pt_clust_4="49.66005" pt_clust_5="44.09137" pt_clust_6="74.02835"></scales>
<clustering>
<clus scale="   44.091">  2  5  1 -1</clus>
<clus scale="   49.660">  1  4  2 -1</clus>
<clus scale="   74.028">  2  6  1 -1</clus>
<clus scale="   49.660">  1  3  2 -1</clus>
</clustering>
</event>
<event>
 6    0  0.8777103E+002  0.9591787E+02  0.7546771E-02  0.1289122E+00
         21   -1    0    0  505  501  0.00000000000E+00  0.00000000000E+00  0.45460633252E+03  0.45460633252E+03  0.00000000000E+00 0.  1.
         21   -1    0    0  503  502 -0.00000000000E+00 -0.00000000000E+00 -0.37811819836E+03  0.37811819836E+03  0.00000000000E+00 0.  1.
         21    1    1    2  503  506  0.29478217688E+02 -0.49291027820E+02  0.14607339299E+03  0.15695861519E+03  0.00000000000E+00 0.  1.
         21    1    1    2  504  502 -0.58825659055E+02  0.66071990947E+02 -0.34312246955E+03  0.35434304743E+03  0.00000000000E+00 0.  1.
         21    1    1    2  505  504  0.15487564299E+02  0.42685837144E+02  0.46000164200E+01  0.45641050510E+02  0.00000000000E+00 0. -1.
         21    1    1    2  506  501  0.13859877068E+02 -0.59466800270E+02  0.26893719430E+03  0.27578181775E+03  0.00000000000E+00 0.  1.
<scales pt_clust_3="35.28997" pt_clust_4="88.74795" pt_clust_5="45.40865" pt_clust_6="35.28997"></scales>
<clustering>
<clus scale="   35.290">  3  6 -1 -1</clus>
<clus scale="   45.409">  1  5  2 -1</clus>
<clus scale="   88.748">  2  4  1 -1</clus>
<clus scale="   45.409">  1  3  2 -1</clus>
</clustering>
</event>
<event>
 6    0  0.8777103E+002  0.7513321E+02  0.7546771E-02  0.1343459E+00
         21   -1    0    0  503  501  0.00000000000E+00  0.00000000000E+00  0.35627995404E+03  0.35627995404E+03  0.00000000000E+00 0. -1.
         21   -1    0    0  504  502 -0.00000000000E+00 -0.00000000000E+00 -0.11723639434E+03  0.11723639434E+03  0.00000000000E+00 0. -1.
         21    1    1    2  503  506 -0.67872902491E+02  0.26402607567E+02  0.63322419944E+02  0.96506774096E+02  0.00000000000E+00 0. -1.
         21    1    1    2  504  505  0.51986303428E+02 -0.75297793020E+02  0.77400945088E+02  0.11984673412E+03  0.00000000000E+00 0. -1.
         21    1    1    2  505  501  0.86311813659E+02  0.24131993691E+02  0.14402355944E+03  0.16963156537E+03  0.00000000000E+00 0.  1.
         21    1    1    2  506  502 -0.70425214596E+02  0.24763191763E+02 -0.45703364766E+02  0.87531274800E+02  0.00000000000E+00 0. -1.
<scales pt_clust_3="72.82739" pt_clust_4="75.13321" pt_clust_5="61.76113" pt_clust_6="14000.00000"></scales>
<clustering>
<clus scale="   72.827">  1  3  2 -1</clus>
<clus scale="   61.761">  1  5  2 -1</clus>
<clus scale="   75.133">  1  4  2 -1</clus>
<clus scale="   72.827">  1  3  2 -1</clus>
</clustering>
</event>
<event>
 6    0  0.8777103E+002  0.1236891E+03  0.7546771E-02  0.1237132E+00
         21   -1    0    0  505  501  0.00000000000E+00  0.00000000000E+00  0.99200399499E+03  0.99200399499E+03  0.00000000000E+00 0. -1.
         21   -1    0    0  506  502 -0.00000000000E+00 -0.00000000000E+00 -0.34891185637E+03  0.34891185637E+03  0.00000000000E+00 0.  1.
         21    1    1    2  503  502 -0.28467688656E+02  0.53648828805E+02 -0.25396837368E+03  0.26112935675E+03  0.00000000000E+00 0.  1.
         21    1    1    2  504  501  0.26732869244E+02  0.39687062748E+02  0.79087837084E+03  0.79232462206E+03  0.00000000000E+00 0. -1.
         21    1    1    2  505  503  0.71187235992E+02  0.62980687650E+02  0.25939575618E+02  0.98524368398E+02  0.00000000000E+00 0. -1.
         21    1    1    2  506  504 -0.69452416579E+02 -0.15631657920E+03  0.80242565839E+02  0.18893750415E+03  0.00000000000E+00 0. -1.
<scales pt_clust_3="61.14102" pt_clust_4="47.85091" pt_clust_5="14000.00000" pt_clust_6="123.68913"></scales>
<clustering>
<clus scale="   47.851">  1  4  2 -1</clus>
<clus scale="   61.141">  2  3  1 -1</clus>
<clus scale="  123.689">  1  6  2 -1</clus>
<clus scale="   47.851">  1  3  2 -1</clus>
</clustering>
</event>
<event>
 6    0  0.8777103E+002  0.6683601E+02  0.7546771E-02  0.1371195E+00
         21   -1    0    0  504  501  0.00000000000E+00  0.00000000000E+00  0.11657871217E+03  0.11657871217E+03  0.00000000000E+00 0.  1.
         21   -1    0    0  503  502 -0.00000000000E+00 -0.00000000000E+00 -0.43394348157E+03  0.43394348157E+03  0.00000000000E+00 0. -1.
         21    1    1    2  503  506  0.10343453440E+02 -0.85347432300E+02 -0.19128009084E+03  0.20971228953E+03  0.00000000000E+00 0. -1.
         21    1    1    2  504  502 -0.29090651405E+02  0.29354963224E+02 -0.75267584888E+02  0.85867276653E+02  0.00000000000E+00 0. -1.
         21    1    1    2  505  501 -0.58119339831E+02  0.21581388072E+02  0.78863721932E+02  0.10031500691E+03  0.00000000000E+00 0.  1.
         21    1    1    2  506  505  0.76866537796E+02  0.34411081005E+02 -0.12968081561E+03  0.15462762064E+03  0.00000000000E+00 0. -1.
<scales pt_clust_3="14000.00000" pt_clust_4="41.32771" pt_clust_5="63.13698" pt_clust_6="66.83601"></scales>
<clustering>
<clus scale="   41.328">  2  4  1 -1</clus>
<clus scale="   63.137">  1  5  2 -1</clus>
<clus scale="   66.836">  1  6  2 -1</clus>
<clus scale="   63.137">  1  3  2 -1</clus>
</clustering>
</event>
<event>
 6    0  0.8777103E+002  0.5691052E+02  0.7546771E-02  0.1411274E+00
         21   -1    0    0  504  501  0.00000000000E+00  0.00000000000E+00  0.21510351065E+04  0.21510351065E+04  0.00000000000E+00 0.  1.
         21   -1    0    0  505  502 -0.00000000000E+00 -0.00000000000E+00 -0.18296392564E+04  0.18296392564E+04  0.00000000000E+00 0. -1.
         21    1    1    2  503  502 -0.28045513114E+02 -0.17149145557E+02 -0.12825109461E+04  0.12829321770E+04  0.00000000000E+00 0. -1.
         21    1    1    2  504  506 -0.51679492184E+02 -0.64561035636E+02  0.56414993285E+03  0.57017895785E+03  0.00000000000E+00 0.  1.
         21    1    1    2  505  501 -0.44010318466E+01  0.56201670000E+02  0.15796018997E+04  0.15806075282E+04  0.00000000000E+00 0.  1.
         21    1    1    2  506  503  0.84126037145E+02  0.25508511192E+02 -0.53984503641E+03  0.54695569985E+03  0.00000000000E+00 0.  1.
<scales pt_clust_3="32.87315" pt_clust_4="56.91052" pt_clust_5="56.36003" pt_clust_6="14000.00000"></scales>
<clustering>
<clus scale="   32.873">  2  3  1 -1</clus>
<clus scale="   56.360">  1  5  2 -1</clus>
<clus scale="   56.911">  1  4  2 -1</clus>
<clus scale="   56.360">  1  3  2 -1</clus>
</clustering>
</event>
<event>
 6    0  0.8777103E+002  0.1667973E+03  0.7546771E-02  0.1181230E+00
         21   -1    0    0  503  501  0.00000000000E+00  0.00000000000E+00  0.93160875378E+03  0.93160875378E+03  0.00000000000E+00 0.  1.
         21   -1    0    0  505  502 -0.00000000000E+00 -0.00000000000E+00 -0.13795073773E+04  0.13795073773E+04  0.00000000000E+00 0. -1.
         21    1    1    2  503  504  0.40872002691E+02  0.49504637825E+02 -0.25924175735E+03  0.26707212233E+03  0.00000000000E+00 0. -1.
         21    1    1    2  504  502  0.27194612345E+02  0.89240049915E+02 -0.87896925916E+03  0.88390626878E+03  0.00000000000E+00 0. -1.
         21    1    1    2  505  506 -0.40150395427E+02  0.85633938137E+01 -0.22698530258E+03  0.23066797254E+03  0.00000000000E+00 0.  1.
         21    1    1    2  506  501 -0.27916219608E+02 -0.14730808155E+03  0.91729769558E+03  0.92946976741E+03  0.00000000000E+00 0.  1.
<scales pt_clust_3="58.04242" pt_clust_4="58.04242" pt_clust_5="41.05345" pt_clust_6="149.92513"></scales>
<clustering>
<clus scale="   41.053">  2  5  1 -1</clus>
<clus scale="   58.042">  3  4 -1 -1</clus>
<clus scale="  149.925">  1  6  2 -1</clus>
<clus scale="  149.925">  1  3  2 -1</clus>
</clustering>
</event>
<event>
 6    0  0.8777103E+002  0.1128371E+03  0.7546771E-02  0.1255404E+00
         21   -1    0    0  505  501  0.00000000000E+00  0.00000000000E+00  0.62749282742E+02  0.62749282742E+02  0.00000000000E+00 0.  1.
         21   -1    0    0  506  502 -0.00000000000E+00 -0.00000000000E+00 -0.15322779851E+04  0.15322779851E+04  0.00000000000E+00 0. -1.
         21    1    1    2  503  501  0.12592923796E+02  0.46551051834E+02 -0.48022493590E+02  0.68056903009E+02  0.00000000000E+00 0. -1.
         21    1    1    2  504  502 -0.82513621324E+01 -0.29969572201E+02 -0.18341419507E+03  0.18602964062E+03  0.00000000000E+00 0. -1.
         21    1    1    2  505  504 -0.41609991221E+02  0.67493030464E+02  0.18147935383E+02  0.81339093241E+02  0.00000000000E+00 0.  1.
         21    1    1    2  506  503  0.37268429557E+02 -0.84074510096E+02 -0.12562399491E+04  0.12596016310E+04  0.00000000000E+00 0. -1.
<scales pt_clust_3="46.88547" pt_clust_4="31.08473" pt_clust_5="14000.00000" pt_clust_6="112.83709"></scales>
<clustering>
<clus scale="   31.085">  2  4  1 -1</clus>
<clus scale="   46.885">  1  3  2 -1</clus>
<clus scale="  112.837">  2  6  1 -1</clus>
<clus scale="   46.885">  1  3  2 -1</clus>
</clustering>
</event>
<event>
 6    0  0.8777103E+002  0.1309016E+03  0.7546771E-02  0.1226124E+00
         21   -1    0    0  506  501  0.00000000000E+00  0.00000000000E+00  0.10405677778E+03  0.10405677778E+03  0.00000000000E+00 0.  1.
         21   -1    0    0  505  502 -0.00000000000E+00 -0.00000000000E+00 -0.31814682108E+03  0.31814682108E+03  0.00000000000E+00 0.  1.
         21    1    1    2  503  504 -0.31875850640E+02  0.24958773193E+02 -0.30877906585E+02  0.50916159796E+02  0.00000000000E+00 0.  1.
         21    1    1    2  504  501  0.87578465463E+02 -0.10341944162E+03 -0.44970996819E+02  0.14278641067E+03  0.00000000000E+00 0.  1.
         21    1    1    2  505  503 -0.72912357685E+02  0.34878731681E+02 -0.15813699624E+03  0.17759517845E+03  0.00000000000E+00 0.  1.
         21    1    1    2  506  502  0.17209742862E+02  0.43581936744E+02  0.19895856347E+02  0.50905849954E+02  0.00000000000E+00 0.  1.
<scales pt_clust_3="31.08972" pt_clust_4="123.31074" pt_clust_5="31.08972" pt_clust_6="46.85681"></scales>
<clustering>
<clus scale="   31.090">  3  5 -1 -1</clus>
<clus scale="   46.857">  1  6  2 -1</clus>
<clus scale="  123.311">  1  4  2 -1</clus>
<clus scale="   46.857">  1  3  2 -1</clus>
</clustering>
</event>
<event>
 6    0  0.8777103E+002  0.1065612E+03  0.7546771E-02  0.1267074E+00
         21   -1    0    0  505  501  0.00000000000E+00  0.00000000000E+00  0.40962733896E+03  0.40962733896E+03  0.00000000000E+00 0. -1.
         21   -1    0    0  504  502 -0.00000000000E+00 -0.00000000000E+00 -0.59023219989E+02  0.59023219989E+02  0.00000000000E+00 0. -1.
         21    1    1    2  503  502  0.46046897422E+02 -0.18514546704E+02  0.36389884469E+02  0.61541277965E+02  0.00000000000E+00 0. -1.
         21    1    1    2  504  501 -0.92671848192E+02  0.92846782939E+02  0.81668917705E+02  0.15452640120E+03  0.00000000000E+00 0. -1.
         21    1    1    2  505  506 -0.30655595603E+01 -0.35198009373E+02  0.81443820822E+02  0.88777212557E+02  0.00000000000E+00 0. -1.
         21    1    1    2  506  503  0.49690510330E+02 -0.39134226863E+02  0.15110149598E+03  0.16380566723E+03  0.00000000000E+00 0. -1.
<scales pt_clust_3="49.62968" pt_clust_4="96.61091" pt_clust_5="33.60447" pt_clust_6="33.60447"></scales>
<clustering>
<clus scale="   33.604">  5  6 -1 -1</clus>
<clus scale="   49.630">  2  3  1 -1</clus>
<clus scale="   96.611">  2  4  1 -1</clus>
<clus scale="  106.561">  1  3  2 -1</clus>
</clustering>
</event>
<event>
 6    0  0.8777103E+002  0.9651006E+02  0.7546771E-02  0.1287811E+00
         21   -1    0    0  503  501  0.00000000000E+00  0.00000000000E+00  0.60178873347E+03  0.60178873347E+03  0.00000000000E+00 0.  1.
         21   -1    0    0  504  502 -0.00000000000E+00 -0.00000000000E+00 -0.87642259478E+03  0.87642259478E+03  0.00000000000E+00 0. -1.
         21    1    1    2  503  505 -0.50938930256E+02  0.15348530078E+02  0.12618071900E+03  0.13693767137E+03  0.00000000000E+00 0.  1.
         21    1    1    2  504  501  0.41803375556E+02 -0.21653064919E+02  0.29039683545E+02  0.55314380126E+02  0.00000000000E+00 0.  1.
         21    1    1    2  505  506  0.10428733142E+03 -0.95228042687E+01  0.41887458537E+03  0.43176666102E+03  0.00000000000E+00 0.  1.
         21    1    1    2  506  502 -0.95151776716E+02  0.15827339110E+02 -0.84872884923E+03  0.85419261574E+03  0.00000000000E+00 0. -1.
<scales pt_clust_3="42.37185" pt_clust_4="47.07842" pt_clust_5="96.51006" pt_clust_6="14000.00000"></scales>
<clustering>
<clus scale="   47.078">  1  4  2 -1</clus>
<clus scale="   42.372">  1  3  2 -1</clus>
<clus scale="   96.510">  1  5  2 -1</clus>
<clus scale="   47.078">  1  3  2 -1</clus>
</clustering>
</event>
<event>
 6    0  0.8777103E+002  0.1519857E+03  0.7546771E-02  0.1198054E+00
         21   -1    0    0  505  501  0.00000000000E+00  0.00000000000E+00  0.11541387791E+04  0.11541387791E+04  0.00000000000E+00 0.  1.
         21   -1    0    0  503  502 -0.00000000000E+00 -0.00000000000E+00 -0.79432017234E+02  0.79432017234E+02  0.00000000000E+00 0.  1.
         21    1    1    2  503  506 -0.92361727853E+02 -0.45283189050E+02  0.81279508096E+02  0.13110154240E+03  0.00000000000E+00 0.  1.
         21    1    1    2  504  501  0.23507335934E+02  0.36117817823E+02  0.45017205452E+03  0.45222999710E+03  0.00000000000E+00 0.  1.
         21    1    1    2  505  502 -0.11803006722E+01 -0.11238514178E+03  0.27445817880E+02  0.11569393295E+03  0.00000000000E+00 0.  1.
         21    1    1    2  506  504  0.70034692591E+02  0.12155051301E+03  0.51580938139E+03  0.53454532390E+03  0.00000000000E+00 0.  1.
<scales pt_clust_3="97.33192" pt_clust_4="43.09399" pt_clust_5="14000.00000" pt_clust_6="151.98568"></scales>
<clustering>
<clus scale="   43.094">  1  4  2 -1</clus>
<clus scale="   97.332">  2  3  1 -1</clus>
<clus scale="  151.986">  1  6  2 -1</clus>
<clus scale="   43.094">  1  3  2 -1</clus>
</clustering>
</event>
<event>
 6    0  0.8777103E+002  0.5587852E+02  0.7546771E-02  0.1415989E+00
         21   -1    0    0  505  501  0.00000000000E+00  0.00000000000E+00  0.26955764673E+03  0.26955764673E+03  0.00000000000E+00 0. -1.
         21   -1    0    0  504  502 -0.00000000000E+00 -0.00000000000E+00 -0.11744848505E+03  0.11744848505E+03  0.00000000000E+00 0. -1.
         21    1    1    2  503  502 -0.44895370982E+02 -0.76866017857E+02 -0.42219233259E+02  0.98521280410E+02  0.00000000000E+00 0. -1.
         21    1    1    2  504  506  0.17682633265E+02  0.45044449380E+02 -0.11994707658E+02  0.49855300129E+02  0.00000000000E+00 0. -1.
         21    1    1    2  505  503 -0.37430393037E+02  0.39930593432E+02  0.96035513469E+02  0.11053644857E+03  0.00000000000E+00 0. -1.
         21    1    1    2  506  501  0.64643130754E+02 -0.81090249556E+01  0.11028758913E+03  0.12809310268E+03  0.00000000000E+00 0. -1.
<scales pt_clust_3="50.49390" pt_clust_4="48.39089" pt_clust_5="55.87852" pt_clust_6="14000.00000"></scales>
<clustering>
<clus scale="   48.391">  2  4  1 -1</clus>
<clus scale="   50.494">  2  3  1 -1</clus>
<clus scale="   55.879">  1  5  2 -1</clus>
<clus scale="   55.879">  1  3  2 -1</clus>
</clustering>
</event>
<event>
 6    0  0.8777103E+002  0.2109577E+03  0.7546771E-02  0.1140810E+00
         21   -1    0    0  506  501  0.00000000000E+00  0.00000000000E+00  0.58189359106E+03  0.58189359106E+03  0.00000000000E+00 0.  1.
         21   -1    0    0  505  502 -0.00000000000E+00 -0.00000000000E+00 -0.61457214296E+03  0.61457214296E+03  0.00000000000E+00 0. -1.
         21    1    1    2  503  501 -0.60439103418E+02 -0.18712025726E+02  0.24128528152E+03  0.24944260304E+03  0.00000000000E+00 0.  1.
         21    1    1    2  504  503 -0.25861471499E+02 -0.21062985757E+03  0.23872368459E+03  0.31941000327E+03  0.00000000000E+00 0.  1.
         21    1    1    2  505  504  0.49191502798E+02  0.20514316015E+03 -0.53709015554E+03  0.57703496886E+03  0.00000000000E+00 0. -1.
         21    1    1    2  506  502  0.37109072119E+02  0.24198723141E+02  0.24402637528E+02  0.50578158859E+02  0.00000000000E+00 0. -1.
<scales pt_clust_3="44.40537" pt_clust_4="210.95766" pt_clust_5="14000.00000" pt_clust_6="44.30193"></scales>
<clustering>
<clus scale="   44.302">  1  6  2 -1</clus>
<clus scale="   44.405">  1  3  2 -1</clus>
<clus scale="  210.958">  1  4  2 -1</clus>
<clus scale="   44.302">  1  3  2 -1</clus>
</clustering>
</event>
<event>
 6    0  0.8777103E+002  0.1332633E+03  0.7546771E-02  0.1222692E+00
         21   -1    0    0  505  501  0.00000000000E+00  0.00000000000E+00  0.12955284777E+03  0.12955284777E+03  0.00000000000E+00 0. -1.
         21   -1    0    0  506  502 -0.00000000000E+00 -0.00000000000E+00 -0.46411335613E+03  0.46411335613E+03  0.00000000000E+00 0. -1.
         21    1    1    2  503  504  0.81349927273E+02 -0.98719410151E+02 -0.18608112016E+03  0.22580858240E+03  0.00000000000E+00 0. -1.
         21    1    1    2  504  502  0.45249941919E+02 -0.48456929680E+01 -0.14457614362E+03  0.15156945368E+03  0.00000000000E+00 0. -1.
         21    1    1    2  505  503 -0.59435380670E+02 -0.14463775573E+01  0.52641934338E+02  0.79409254715E+02  0.00000000000E+00 0. -1.
         21    1    1    2  506  501 -0.67164488522E+02  0.10501148068E+03 -0.56545178922E+02  0.13687891310E+03  0.00000000000E+00 0. -1.
<scales pt_clust_3="14000.00000" pt_clust_4="45.50866" pt_clust_5="57.54285" pt_clust_6="133.26332"></scales>
<clustering>
<clus scale="   45.509">  2  4  1 -1</clus>
<clus scale="   57.543">  1  5  2 -1</clus>
<clus scale="  133.263">  1  6  2 -1</clus>
<clus scale="   57.543">  1  3  2 -1</clus>
</clustering>
</event>
<event>
 6    0  0.8777103E+002  0.1388187E+03  0.7546771E-02  0.1214927E+00
         21   -1    0    0  506  501  0.00000000000E+00  0.00000000000E+00  0.75968719200E+03  0.75968719200E+03  0.00000000000E+00 0. -1.
         21   -1    0    0  503  502 -0.00000000000E+00 -0.00000000000E+00 -0.10911377233E+03  0.10911377233E+03  0.00000000000E+00 0. -1.
         21    1    1    2  503  505  0.98986951769E+02 -0.47340737425E+02  0.16434992389E+03  0.19761189115E+03  0.00000000000E+00 0. -1.
         21    1    1    2  504  502 -0.13637548172E+03  0.66319598911E+02  0.77360206121E+01  0.15184336413E+03  0.00000000000E+00 0. -1.
         21    1    1    2  505  501  0.93297456111E+02  0.39354734970E+02  0.37281884645E+03  0.38632512571E+03  0.00000000000E+00 0. -1.
         21    1    1    2  506  504 -0.55908926158E+02 -0.58333596455E+02  0.10566862872E+03  0.13302058335E+03  0.00000000000E+00 0. -1.
<scales pt_clust_3="14000.00000" pt_clust_4="138.81871" pt_clust_5="60.34601" pt_clust_6="80.79985"></scales>
<clustering>
<clus scale="   80.800">  1  6  2 -1</clus>
<clus scale="   60.346">  1  5  2 -1</clus>
<clus scale="  138.819">  2  4  1 -1</clus>
<clus scale="   80.800">  1  3  2 -1</clus>
</clustering>
</event>
<event>
 6    0  0.8777103E+002  0.2375516E+03  0.7546771E-02  0.1121435E+00
         21   -1    0    0  504  501  0.00000000000E+00  0.00000000000E+00  0.22160039353E+04  0.22160039353E+04  0.00000000000E+00 0.  1.
         21   -1    0    0  505  502 -0.00000000000E+00 -0.00000000000E+00 -0.94278130400E+02  0.94278130400E+02  0.00000000000E+00 0.  1.
         21    1    1    2  503  501  0.23529944085E+02  0.13559267228E+03  0.10199434174E+04  0.10291858946E+04  0.00000000000E+00 0.  1.
         21    1    1    2  504  506  0.22163413038E+02 -0.58249529675E+02  0.39362278312E+03  0.39852618481E+03  0.00000000000E+00 0. -1.
         21    1    1    2  505  503  0.77531626495E+02  0.15653214888E+03  0.54408606034E+03  0.57143950493E+03  0.00000000000E+00 0.  1.
         21    1    1    2  506  502 -0.12322498362E+03 -0.23387529149E+03  0.16407354406E+03  0.31113048134E+03  0.00000000000E+00 0.  1.
<scales pt_clust_3="108.92363" pt_clust_4="62.32355" pt_clust_5="237.55162" pt_clust_6="14000.00000"></scales>
<clustering>
<clus scale="   62.324">  1  4  2 -1</clus>
<clus scale="  108.924">  1  3  2 -1</clus>
<clus scale="  237.552">  1  5  2 -1</clus>
<clus scale="   62.324">  1  3  2 -1</clus>
</clustering>
</event>
<event>
 6    0  0.8777103E+002  0.1224822E+03  0.7546771E-02  0.1239057E+00
         21   -1    0    0  503  501  0.00000000000E+00  0.00000000000E+00  0.76125750010E+03  0.76125750010E+03  0.00000000000E+00 0. -1.
         21   -1    0    0  505  502 -0.00000000000E+00 -0.00000000000E+00 -0.28555855301E+02  0.28555855301E+02  0.00000000000E+00 0. -1.
         21    1    1    2  503  504 -0.30769764530E+02  0.29417477888E+02  0.16684765061E+03  0.17219263901E+03  0.00000000000E+00 0. -1.
         21    1    1    2  504  506 -0.67270801241E+02 -0.18169048155E+02  0.24486414806E+03  0.25458579303E+03  0.00000000000E+00 0. -1.
         21    1    1    2  505  501  0.13133832670E+03 -0.13116545988E+02  0.28434235093E+03  0.31348424581E+03  0.00000000000E+00 0. -1.
         21    1    1    2  506  502 -0.33297760927E+02  0.18681162556E+01  0.36647495204E+02  0.49550677552E+02  0.00000000000E+00 0.  1.
<scales pt_clust_3="41.54118" pt_clust_4="41.54118" pt_clust_5="110.03248" pt_clust_6="33.35012"></scales>
<clustering>
<clus scale="   33.350">  2  6  1 -1</clus>
<clus scale="   41.541">  3  4 -1 -1</clus>
<clus scale="  110.032">  2  5  1 -1</clus>
<clus scale="  122.482">  1  3  2 -1</clus>
</clustering>
</event>
<event>
 6    0  0.8777103E+002  0.1504730E+03  0.7546771E-02  0.1199893E+00
         21   -1    0    0  503  501  0.00000000000E+00  0.00000000000E+00  0.63097870667E+03  0.63097870667E+03  0.00000000000E+00 0.  1.
         21   -1    0    0  506  502 -0.00000000000E+00 -0.00000000000E+00 -0.29863806380E+03  0.29863806380E+03  0.00000000000E+00 0. -1.
         21    1    1    2  503  505 -0.13899611745E+02 -0.14889062026E+03  0.50128536372E+03  0.52311435833E+03  0.00000000000E+00 0.  1.
         21    1    1    2  504  501  0.92480425453E+02 -0.14491969547E+02  0.41910652662E+02  0.10256290304E+03  0.00000000000E+00 0. -1.
         21    1    1    2  505  502 -0.42286390870E+02  0.17022725768E+03 -0.14149412853E+03  0.22535759698E+03  0.00000000000E+00 0. -1.
         21    1    1    2  506  504 -0.36294422838E+02 -0.68446678743E+01 -0.69361244985E+02  0.78581912125E+02  0.00000000000E+00 0. -1.
<scales pt_clust_3="150.47299" pt_clust_4="88.92769" pt_clust_5="14000.00000" pt_clust_6="36.93419"></scales>
<clustering>
<clus scale="   36.934">  2  6  1 -1</clus>
<clus scale="   88.928">  2  4  1 -1</clus>
<clus scale="  150.473">  1  3  2 -1</clus>
<clus scale="  150.473">  1  3  2 -1</clus>
</clustering>
</event>
<event>
 6    0  0.8777103E+002  0.1270025E+03  0.7546771E-02  0.1231972E+00
         21   -1    0    0  506  501  0.00000000000E+00  0.00000000000E+00  0.40271121051E+02  0.40271121051E+02  0.00000000000E+00 0.  1.
         21   -1    0    0  505  502 -0.00000000000E+00 -0.00000000000E+00 -0.11558217076E+04  0.11558217076E+04  0.00000000000E+00 0.  1.
         21    1    1    2  503  502  0.11115814188E+03 -0.26352301338E+02 -0.38216894237E+03  0.39887802247E+03  0.00000000000E+00 0.  1.
         21    1    1    2  504  501  0.80861292395E+01 -0.33758795199E+02  0.52519844996E+01  0.35108760738E+02  0.00000000000E+00 0.  1.
         21    1    1    2  505  504 -0.11122778309E+03  0.96829873962E+02 -0.63406104589E+03  0.65098468042E+03  0.00000000000E+00 0.  1.
         21    1    1    2  506  503 -0.80164880258E+01 -0.36718777426E+02 -0.10457258280E+03  0.11112136505E+03  0.00000000000E+00 0.  1.
<scales pt_clust_3="127.00255" pt_clust_4="34.71371" pt_clust_5="14000.00000" pt_clust_6="42.74887"></scales>
<clustering>
<clus scale="   34.714">  1  4  2 -1</clus>
<clus scale="   42.749">  1  6  2 -1</clus>
<clus scale="  127.003">  2  3  1 -1</clus>
<clus scale="   34.714">  1  3  2 -1</clus>
</clustering>
</event>
<event>
 6    0  0.8777103E+002  0.1138747E+03  0.7546771E-02  0.1253558E+00
         21   -1    0    0  505  501  0.00000000000E+00  0.00000000000E+00  0.12277464536E+04  0.12277464536E+04  0.00000000000E+00 0.  1.
         21   -1    0    0  503  502 -0.00000000000E+00 -0.00000000000E+00 -0.11570317774E+03  0.11570317774E+03  0.00000000000E+00 0.  1.
         21    1    1    2  503  501 -0.64106704126E+02  0.42688613646E+02  0.24076846774E+01  0.77057019112E+02  0.00000000000E+00 0.  1.
         21    1    1    2  504  506  0.41514723628E+02  0.17350422155E+02 -0.38361891771E+02  0.59128201115E+02  0.00000000000E+00 0.  1.
         21    1    1    2  505  504 -0.22316186297E+02 -0.10053612438E+03  0.11418466517E+04  0.11464812691E+04  0.00000000000E+00 0.  1.
         21    1    1    2  506  502  0.44908166794E+02  0.40497088583E+02  0.61508313091E+01  0.60783142024E+02  0.00000000000E+00 0.  1.
<scales pt_clust_3="77.01940" pt_clust_4="43.35272" pt_clust_5="102.18379" pt_clust_6="43.35272"></scales>
<clustering>
<clus scale="   43.353">  4  6 -1 -1</clus>
<clus scale="   77.019">  2  3  1 -1</clus>
<clus scale="  102.184">  1  5  2 -1</clus>
<clus scale="  102.184">  1  3  2 -1</clus>
</clustering>
</event>
<event>
 6    0  0.8777103E+002  0.1362422E+03  0.7546771E-02  0.1218477E+00
         21   -1    0    0  504  501  0.00000000000E+00  0.00000000000E+00  0.26386571447E+02  0.26386571447E+02  0.00000000000E+00 0.  1.
         21   -1    0    0  506  502 -0.00000000000E+00 -0.00000000000E+00 -0.11995223356E+04  0.11995223356E+04  0.00000000000E+00 0.  1.
         21    1    1    2  503  501 -0.20406780933E+02 -0.43651363022E+02 -0.13503617624E+03  0.14337589440E+03  0.00000000000E+00 0.  1.
         21    1    1    2  504  505  0.38633220000E+02 -0.97340794680E+01 -0.28561232594E+02  0.49020628290E+02  0.00000000000E+00 0.  1.
         21    1    1    2  505  502  0.78681081898E+02  0.85161081612E+02 -0.62599096200E+03  0.63663789314E+03  0.00000000000E+00 0.  1.
         21    1    1    2  506  503 -0.96907520965E+02 -0.31775639123E+02 -0.38354739333E+03  0.39687449124E+03  0.00000000000E+00 0.  1.
<scales pt_clust_3="43.19233" pt_clust_4="39.84066" pt_clust_5="122.76911" pt_clust_6="43.19233"></scales>
<clustering>
<clus scale="   39.841">  1  4  2 -1</clus>
<clus scale="   43.192">  3  6 -1 -1</clus>
<clus scale="  122.769">  2  5  1 -1</clus>
<clus scale="   39.841">  1  3  2 -1</clus>
</clustering>
</event>
<event>
 6    0  0.8777103E+002  0.9636949E+02  0.7546771E-02  0.1288121E+00
         21   -1    0    0  504  501  0.00000000000E+00  0.00000000000E+00  0.26047835971E+03  0.26047835971E+03  0.00000000000E+00 0.  1.
         21   -1    0    0  506  502 -0.00000000000E+00 -0.00000000000E+00 -0.29411798115E+03  0.29411798115E+03  0.00000000000E+00 0. -1.
         21    1    1    2  503  501  0.58846336050E+02  0.56693697896E+02  0.21754255856E+03  0.23238294136E+03  0.00000000000E+00 0.  1.
         21    1    1    2  504  505 -0.29637828310E+02 -0.20720156039E+02 -0.28958110017E+02  0.46328154172E+02  0.00000000000E+00 0.  1.
         21    1    1    2  505  502 -0.87793971334E+02  0.40199709087E+00 -0.16231184252E+03  0.18453475886E+03  0.00000000000E+00 0. -1.
         21    1    1    2  506  503  0.58585463594E+02 -0.36375538948E+02 -0.59912227470E+02  0.91350486472E+02  0.00000000000E+00 0. -1.
<scales pt_clust_3="82.32038" pt_clust_4="32.15652" pt_clust_5="32.15652" pt_clust_6="68.95967"></scales>
<clustering>
<clus scale="   32.157">  4  5 -1 -1</clus>
<clus scale="   68.960">  2  6  1 -1</clus>
<clus scale="   82.320">  1  3  2 -1</clus>
<clus scale="   82.320">  1  3  2 -1</clus>
</clustering>
</event>
<event>
 6    0  0.8777103E+002  0.2294313E+03  0.7546771E-02  0.1127041E+00
         21   -1    0    0  506  501  0.00000000000E+00  0.00000000000E+00  0.14383158263E+04  0.14383158263E+04  0.00000000000E+00 0. -1.
         21   -1    0    0  505  502 -0.00000000000E+00 -0.00000000000E+00 -0.22778603889E+03  0.22778603889E+03  0.00000000000E+00 0. -1.
         21    1    1    2  503  501  0.35317095936E+02  0.21297653877E+03  0.50256704866E+03  0.54697343786E+03  0.00000000000E+00 0. -1.
         21    1    1    2  504  503 -0.12514790528E+03  0.10297073009E+03  0.12866233347E+03  0.20692744019E+03  0.00000000000E+00 0. -1.
         21    1    1    2  505  504 -0.67016481912E+02 -0.78183371674E+02 -0.11940007648E+03  0.15767126155E+03  0.00000000000E+00 0. -1.
         21    1    1    2  506  502  0.15684729125E+03 -0.23776389718E+03  0.69870048176E+03  0.75452972558E+03  0.00000000000E+00 0. -1.
<scales pt_clust_3="14000.00000" pt_clust_4="169.11086" pt_clust_5="102.97499" pt_clust_6="229.43126"></scales>
<clustering>
<clus scale="  102.975">  2  5  1 -1</clus>
<clus scale="  169.111">  2  4  1 -1</clus>
<clus scale="  229.431">  2  6  1 -1</clus>
<clus scale="  229.431">  1  3  2 -1</clus>
</clustering>
</event>
<event>
 6    0  0.8777103E+002  0.1154277E+03  0.7546771E-02  0.1250836E+00
         21   -1    0    0  505  501  0.00000000000E+00  0.00000000000E+00  0.67175070499E+03  0.67175070499E+03  0.00000000000E+00 0.  1.
         21   -1    0    0  503  502 -0.00000000000E+00 -0.00000000000E+00 -0.32536543681E+03  0.32536543681E+03  0.00000000000E+00 0.  1.
         21    1    1    2  503  504  0.38209647829E+02 -0.49617519471E+01 -0.22017409299E+03  0.22352008275E+03  0.00000000000E+00 0.  1.
         21    1    1    2  504  501 -0.12197707822E+03 -0.74847307365E+02 -0.43695190685E+02  0.14963220482E+03  0.00000000000E+00 0.  1.
         21    1    1    2  505  506  0.51844842733E+01  0.33138926138E+02  0.97011478996E+02  0.10264645323E+03  0.00000000000E+00 0.  1.
         21    1    1    2  506  502  0.78582946117E+02  0.46670133173E+02  0.51324307286E+03  0.52131740101E+03  0.00000000000E+00 0.  1.
<scales pt_clust_3="38.53314" pt_clust_4="115.42772" pt_clust_5="33.54202" pt_clust_6="14000.00000"></scales>
<clustering>
<clus scale="   33.542">  1  5  2 -1</clus>
<clus scale="   38.533">  2  3  1 -1</clus>
<clus scale="  115.428">  2  4  1 -1</clus>
<clus scale="   33.542">  1  3  2 -1</clus>
</clustering>
</event>
<event>
 6    0  0.8777103E+002  0.1048006E+03  0.7546771E-02  0.1270513E+00
         21   -1    0    0  505  501  0.00000000000E+00  0.00000000000E+00  0.14493135401E+04  0.14493135401E+04  0.00000000000E+00 0. -1.
         21   -1    0    0  506  502 -0.00000000000E+00 -0.00000000000E+00 -0.17973759975E+03  0.17973759975E+03  0.00000000000E+00 0. -1.
         21    1    1    2  503  501 -0.10149502799E+02 -0.28462020579E+02  0.85574318640E+03  0.85627653249E+03  0.00000000000E+00 0. -1.
         21    1    1    2  504  502  0.14913389975E+01 -0.48683783905E+02 -0.49185556334E+02  0.69221050694E+02  0.00000000000E+00 0. -1.
         21    1    1    2  505  504 -0.75880088421E+02  0.90083689782E+02  0.56115393735E+03  0.57338172310E+03  0.00000000000E+00 0. -1.
         21    1    1    2  506  503  0.84538252222E+02 -0.12937885298E+02 -0.98135627039E+02  0.13017183359E+03  0.00000000000E+00 0. -1.
<scales pt_clust_3="30.21753" pt_clust_4="49.18207" pt_clust_5="104.80062" pt_clust_6="14000.00000"></scales>
<clustering>
<clus scale="   30.218">  1  3  2 -1</clus>
<clus scale="   49.182">  2  4  1 -1</clus>
<clus scale="  104.801">  1  5  2 -1</clus>
<clus scale="   30.218">  1  3  2 -1</clus>
</clustering>
</event>
<event>
 6    0  0.8777103E+002  0.8547791E+02  0.7546771E-02  0.1314187E+00
         21   -1    0    0  503  501  0.00000000000E+00  0.00000000000E+00  0.96991215386E+02  0.96991215386E+02  0.00000000000E+00 0. -1.
         21   -1    0    0  504  502 -0.00000000000E+00 -0.00000000000E+00 -0.95258217242E+03  0.95258217242E+03  0.00000000000E+00 0.  1.
         21    1    1    2  503  505  0.64321898688E+02  0.17882184677E+02 -0.12837740085E+03  0.14469912311E+03  0.00000000000E+00 0. -1.
         21    1    1    2  504  506 -0.64941802606E+02  0.54139044400E+02 -0.72661460670E+03  0.73151709517E+03  0.00000000000E+00 0.  1.
         21    1    1    2  505  502  0.66244245767E+02 -0.79915084732E+02 -0.17175776870E+02  0.10521277573E+03  0.00000000000E+00 0. -1.
         21    1    1    2  506  501 -0.65624341849E+02  0.78938556548E+01  0.16576827388E+02  0.68144393800E+02  0.00000000000E+00 0. -1.
<scales pt_clust_3="57.75493" pt_clust_4="14000.00000" pt_clust_5="85.47791" pt_clust_6="66.09741"></scales>
<clustering>
<clus scale="   66.097">  1  6  2 -1</clus>
<clus scale="   57.755">  1  3  2 -1</clus>
<clus scale="   85.478">  1  5  2 -1</clus>
<clus scale="   66.097">  1  3  2 -1</clus>
</clustering>
</event>
<event>
 6    0  0.8777103E+002  0.2228512E+03  0.7546771E-02  0.1131775E+00
         21   -1    0    0  505  501  0.00000000000E+00  0.00000000000E+00  0.10846468971E+04  0.10846468971E+04  0.00000000000E+00 0. -1.
         21   -1    0    0  503  502 -0.00000000000E+00 -0.00000000000E+00 -0.42493639208E+03  0.42493639208E+03  0.00000000000E+00 0. -1.
         21    1    1    2  503  504  0.19494910592E+03 -0.36735421003E+02 -0.13482064778E+03  0.23985673249E+03  0.00000000000E+00 0. -1.
         21    1    1    2  504  501 -0.10725632798E+02 -0.11495422021E+03  0.50152068493E+03  0.51463823153E+03  0.00000000000E+00 0. -1.
         21    1    1    2  505  506  0.44566765621E+02  0.10034531405E+02  0.44412456505E+03  0.44646782381E+03  0.00000000000E+00 0. -1.
         21    1    1    2  506  502 -0.22879023874E+03  0.14165510981E+03 -0.15111409718E+03  0.30862050134E+03  0.00000000000E+00 0. -1.
<scales pt_clust_3="14000.00000" pt_clust_4="109.79228" pt_clust_5="45.68247" pt_clust_6="222.85122"></scales>
<clustering>
<clus scale="   45.682">  1  5  2 -1</clus>
<clus scale="  109.792">  1  4  2 -1</clus>
<clus scale="  222.851">  1  6  2 -1</clus>
<clus scale="   45.682">  1  3  2 -1</clus>
</clustering>
</event>
<event>
 6    0  0.8777103E+002  0.9845869E+02  0.7546771E-02  0.1283571E+00
         21   -1    0    0  503  501  0.00000000000E+00  0.00000000000E+00  0.17147653260E+02  0.17147653260E+02  0.00000000000E+00 0. -1.
         21   -1    0    0  506  502 -0.00000000000E+00 -0.00000000000E+00 -0.20651243519E+04  0.20651243519E+04  0.00000000000E+00 0.  1.
         21    1    1    2  503  504  0.91512558415E+02 -0.25356284738E+02 -0.21986528874E+03  0.23949579269E+03  0.00000000000E+00 0. -1.
         21    1    1    2  504  502 -0.38101251523E+01  0.33460384272E+02 -0.47643281550E+03  0.47762154689E+03  0.00000000000E+00 0. -1.
         21    1    1    2  505  501  0.95549874253E+01  0.28774274674E+02 -0.44516293687E+02  0.53860533522E+02  0.00000000000E+00 0. -1.
         21    1    1    2  506  505 -0.97257420688E+02 -0.36878374208E+02 -0.13071623007E+04  0.13112941321E+04  0.00000000000E+00 0.  1.
<scales pt_clust_3="98.45869" pt_clust_4="34.99246" pt_clust_5="30.31925" pt_clust_6="14000.00000"></scales>
<clustering>
<clus scale="   30.319">  1  5  2 -1</clus>
<clus scale="   34.992">  2  4  1 -1</clus>
<clus scale="   98.459">  1  3  2 -1</clus>
<clus scale="   30.319">  1  3  2 -1</clus>
</clustering>
</event>
<event>
 6    0  0.8777103E+002  0.9855240E+02  0.7546771E-02  0.1283370E+00
         21   -1    0    0  505  501  0.00000000000E+00  0.00000000000E+00  0.34225862879E+02  0.34225862879E+02  0.00000000000E+00 0.  1.
         21   -1    0    0  506  502 -0.00000000000E+00 -0.00000000000E+00 -0.16702242724E+04  0.16702242724E+04  0.00000000000E+00 0. -1.
         21    1    1    2  503  502  0.35007657158E+02  0.15455502536E+02 -0.65070039583E+03  0.65182468022E+03  0.00000000000E+00 0. -1.
         21    1    1    2  504  503  0.53264365221E+02 -0.63419081950E+02 -0.81275511229E+03  0.81696385790E+03  0.00000000000E+00 0. -1.
         21    1    1    2  505  504  0.11392359240E+01 -0.34933917276E+02 -0.61542567005E+02  0.70775447638E+02  0.00000000000E+00 0.  1.
         21    1    1    2  506  501 -0.89411258303E+02  0.82897496690E+02 -0.11100033442E+03  0.16488614954E+03  0.00000000000E+00 0.  1.
<scales pt_clust_3="38.02450" pt_clust_4="98.55240" pt_clust_5="34.95249" pt_clust_6="14000.00000"></scales>
<clustering>
<clus scale="   34.952">  1  5  2 -1</clus>
<clus scale="   38.024">  2  3  1 -1</clus>
<clus scale="   98.552">  2  4  1 -1</clus>
<clus scale="   34.952">  1  3  2 -1</clus>
</clustering>
</event>
<event>
 6    0  0.8777103E+002  0.1276274E+03  0.7546771E-02  0.1231019E+00
         21   -1    0    0  505  501  0.00000000000E+00  0.00000000000E+00  0.11253443207E+04  0.11253443207E+04  0.00000000000E+00 0.  1.
         21   -1    0    0  503  502 -0.00000000000E+00 -0.00000000000E+00 -0.36539963657E+02  0.36539963657E+02  0.00000000000E+00 0.  1.
         21    1    1    2  503  506  0.62375960143E+01 -0.34605663279E+02  0.25959742907E+03  0.26196809865E+03  0.00000000000E+00 0. -1.
         21    1    1    2  504  502 -0.27085586060E+02  0.15178728230E+02 -0.31467991304E+01  0.31207773193E+02  0.00000000000E+00 0.  1.
         21    1    1    2  505  504  0.84404532785E+02  0.85964973218E+02  0.23270935869E+03  0.26204531554E+03  0.00000000000E+00 0.  1.
         21    1    1    2  506  501 -0.63556542739E+02 -0.66538038169E+02  0.59964436837E+03  0.60666309692E+03  0.00000000000E+00 0.  1.
<scales pt_clust_3="31.36250" pt_clust_4="31.04872" pt_clust_5="116.53568" pt_clust_6="31.36250"></scales>
<clustering>
<clus scale="   31.049">  2  4  1 -1</clus>
<clus scale="   31.363">  3  6 -1 -1</clus>
<clus scale="  116.536">  2  5  1 -1</clus>
<clus scale="  127.627">  1  3  2 -1</clus>
</clustering>
</event>
<event>
 6    0  0.8777103E+002  0.7880309E+02  0.7546771E-02  0.1332483E+00
         21   -1    0    0  503  501  0.00000000000E+00  0.00000000000E+00  0.60574918814E+03  0.60574918814E+03  0.00000000000E+00 0.  1.
         21   -1    0    0  505  502 -0.00000000000E+00 -0.00000000000E+00 -0.25901860801E+04  0.25901860801E+04  0.00000000000E+00 0.  1.
         21    1    1    2  503  506 -0.31647102167E+02  0.54549749809E+02  0.45636366631E+03  0.46070056459E+03  0.00000000000E+00 0.  1.
         21    1    1    2  504  502 -0.14540095425E+02 -0.77426271481E+02 -0.25446984978E+04  0.25459176512E+04  0.00000000000E+00 0.  1.
         21    1    1    2  505  501  0.39072984831E+02 -0.58193904696E+02  0.75749102067E+02  0.10320443378E+03  0.00000000000E+00 0.  1.
         21    1    1    2  506  504  0.71142127606E+01  0.81070426368E+02  0.28148837433E+02  0.86112618724E+02  0.00000000000E+00 0.  1.
<scales pt_clust_3="63.06516" pt_clust_4="14000.00000" pt_clust_5="31.94556" pt_clust_6="78.80309"></scales>
<clustering>
<clus scale="   63.065">  1  3  2 -1</clus>
<clus scale="   31.946">  1  5  2 -1</clus>
<clus scale="   78.803">  1  6  2 -1</clus>
<clus scale="   63.065">  1  3  2 -1</clus>
</clustering>
</event>
<event>
 6    0  0.8777103E+002  0.9364864E+02  0.7546771E-02  0.1294249E+00
         21   -1    0    0  505  501  0.00000000000E+00  0.00000000000E+00  0.30228816489E+03  0.30228816489E+03  0.00000000000E+00 0.  1.
         21   -1    0    0  504  502 -0.00000000000E+00 -0.00000000000E+00 -0.37288628420E+03  0.37288628420E+03  0.00000000000E+00 0.  1.
         21    1    1    2  503  501 -0.94082862665E+02  0.20854175832E+02  0.18499448696E+03  0.20858917015E+03  0.00000000000E+00 0.  1.
         21    1    1    2  504  506  0.33187354212E+02  0.92274194803E+02 -0.11462903885E+03  0.15085007144E+03  0.00000000000E+00 0.  1.
         21    1    1    2  505  502 -0.10757669049E+02 -0.49211684187E+02 -0.19782874108E+03  0.20414144141E+03  0.00000000000E+00 0.  1.
         21    1    1    2  506  503  0.71653177501E+02 -0.63916686447E+02  0.56865173660E+02  0.11159376608E+03  0.00000000000E+00 0.  1.
<scales pt_clust_3="93.64864" pt_clust_4="59.70483" pt_clust_5="50.37378" pt_clust_6="14000.00000"></scales>
<clustering>
<clus scale="   50.374">  2  5  1 -1</clus>
<clus scale="   59.705">  2  4  1 -1</clus>
<clus scale="   93.649">  1  3  2 -1</clus>
<clus scale="   93.649">  1  3  2 -1</clus>
</clustering>
</event>
<event>
 6    0  0.8777103E+002  0.9306872E+02  0.7546771E-02  0.1295586E+00
         21   -1    0    0  504  501  0.00000000000E+00  0.00000000000E+00  0.14037691006E+04  0.14037691006E+04  0.00000000000E+00 0. -1.
         21   -1    0    0  505  502 -0.00000000000E+00 -0.00000000000E+00 -0.12483952668E+03  0.12483952668E+03  0.00000000000E+00 0.  1.
         21    1    1    2  503  502 -0.80757763965E+02 -0.39271919034E+02 -0.86150253009E+02  0.12444262195E+03  0.00000000000E+00 0.  1.
         21    1    1    2  504  503 -0.61579198214E+02  0.46403144161E+01  0.48705261497E+03  0.49095191202E+03  0.00000000000E+00 0. -1.
         21    1    1    2  505  506  0.13128239796E+03  0.64863020955E+02  0.29543595612E+03  0.32973426220E+03  0.00000000000E+00 0. -1.
         21    1    1    2  506  501  0.11054564223E+02 -0.30231416337E+02  0.58259125587E+03  0.58347983113E+03  0.00000000000E+00 0. -1.
<scales pt_clust_3="93.06872" pt_clust_4="56.59516" pt_clust_5="14000.00000" pt_clust_6="32.18916"></scales>
<clustering>
<clus scale="   32.189">  1  6  2 -1</clus>
<clus scale="   56.595">  1  4  2 -1</clus>
<clus scale="   93.069">  2  3  1 -1</clus>
<clus scale="   32.189">  1  3  2 -1</clus>
</clustering>
</event>
<event>
 6    0  0.8777103E+002  0.8080282E+02  0.7546771E-02  0.1326788E+00
         21   -1    0    0  504  501  0.00000000000E+00  0.00000000000E+00  0.88236460295E+03  0.88236460295E+03  0.00000000000E+00 0.  1.
         21   -1    0    0  505  502 -0.00000000000E+00 -0.00000000000E+00 -0.20006450366E+03  0.20006450366E+03  0.00000000000E+00 0.  1.
         21    1    1    2  503  502 -0.96829039514E+01  0.48466145182E+02 -0.14545659471E+03  0.15362404370E+03  0.00000000000E+00 0.  1.
         21    1    1    2  504  503  0.49408582999E+01  0.35886587244E+02  0.20110267534E+03  0.20433928955E+03  0.00000000000E+00 0.  1.
         21    1    1    2  505  506 -0.72148644021E+02 -0.40874459220E+02 -0.83551416817E+01  0.83342406031E+02  0.00000000000E+00 0.  1.
         21    1    1    2  506  501  0.76890689673E+02 -0.43478273206E+02  0.63500916035E+03  0.64112336732E+03  0.00000000000E+00 0.  1.
<scales pt_clust_3="49.62963" pt_clust_4="36.22512" pt_clust_5="80.80282" pt_clust_6="14000.00000"></scales>
<clustering>
<clus scale="   36.225">  1  4  2 -1</clus>
<clus scale="   49.630">  2  3  1 -1</clus>
<clus scale="   80.803">  2  5  1 -1</clus>
<clus scale="   36.225">  1  3  2 -1</clus>
</clustering>
</event>
<event>
 6    0  0.8777103E+002  0.8611325E+02  0.7546771E-02  0.1312547E+00
         21   -1    0    0  504  501  0.00000000000E+00  0.00000000000E+00  0.66757098640E+03  0.66757098640E+03  0.00000000000E+00 0. -1.
         21   -1    0    0  506  502 -0.00000000000E+00 -0.00000000000E+00 -0.61357843002E+02  0.61357843002E+02  0.00000000000E+00 0.  1.
         21    1    1    2  503  502 -0.66374565284E+02 -0.50430458444E+00  0.43320705835E+02  0.79262354203E+02  0.00000000000E+00 0. -1.
         21    1    1    2  504  505 -0.28421757073E+02 -0.25743886145E+02  0.32250982251E+03  0.32478166445E+03  0.00000000000E+00 0. -1.
         21    1    1    2  505  503  0.10294322192E+03 -0.37477507577E+02  0.23635991138E+03  0.26051464108E+03  0.00000000000E+00 0. -1.
         21    1    1    2  506  501 -0.81468995595E+01  0.63725698307E+02  0.40227036717E+01  0.64370169659E+02  0.00000000000E+00 0.  1.
<scales pt_clust_3="86.11325" pt_clust_4="38.34767" pt_clust_5="14000.00000" pt_clust_6="62.14243"></scales>
<clustering>
<clus scale="   38.348">  1  4  2 -1</clus>
<clus scale="   62.142">  2  6  1 -1</clus>
<clus scale="   86.113">  2  3  1 -1</clus>
<clus scale="   38.348">  1  3  2 -1</clus>
</clustering>
</event>
<event>
 6    0  0.8777103E+002  0.1141458E+03  0.7546771E-02  0.1253079E+00
         21   -1    0    0  504  501  0.00000000000E+00  0.00000000000E+00  0.31056935381E+03  0.31056935381E+03  0.00000000000E+00 0.  1.
         21   -1    0    0  505  502 -0.00000000000E+00 -0.00000000000E+00 -0.58632593024E+03  0.58632593024E+03  0.00000000000E+00 0. -1.
         21    1    1    2  503  502 -0.56571283355E+02  0.59644079974E+02 -0.42439607890E+03  0.43228434873E+03  0.00000000000E+00 0. -1.
         21    1    1    2  504  503 -0.35295375482E+02  0.48983251995E+01  0.28304920216E+01  0.35745892145E+02  0.00000000000E+00 0.  1.
         21    1    1    2  505  506 -0.54708771588E+02 -0.28518817772E+02 -0.11329449690E+03  0.12900393670E+03  0.00000000000E+00 0.  1.
         21    1    1    2  506  501  0.14657543043E+03 -0.36023587402E+02  0.25910350735E+03  0.29986110647E+03  0.00000000000E+00 0.  1.
<scales pt_clust_3="114.14584" pt_clust_4="35.63365" pt_clust_5="62.48122" pt_clust_6="14000.00000"></scales>
<clustering>
<clus scale="   35.634">  1  4  2 -1</clus>
<clus scale="   62.481">  2  5  1 -1</clus>
<clus scale="  114.146">  2  3  1 -1</clus>
<clus scale="   35.634">  1  3  2 -1</clus>
</clustering>
</event>
<event>
 6    0  0.8777103E+002  0.1738693E+03  0.7546771E-02  0.1173872E+00
         21   -1    0    0  505  501  0.00000000000E+00  0.00000000000E+00  0.91166043869E+03  0.91166043869E+03  0.00000000000E+00 0.  1.
         21   -1    0    0  506  502 -0.00000000000E+00 -0.00000000000E+00 -0.75083953789E+02  0.75083953789E+02  0.00000000000E+00 0.  1.
         21    1    1    2  503  501  0.89341953145E+02 -0.28370513983E+02  0.45250211308E+03  0.46210933013E+03  0.00000000000E+00 0.  1.
         21    1    1    2  504  502 -0.29746278915E+02  0.14005887749E+02  0.36933061007E+02  0.49447517595E+02  0.00000000000E+00 0. -1.
         21    1    1    2  505  504 -0.19952519564E+02  0.16261554099E+03  0.22874025109E+03  0.28136101307E+03  0.00000000000E+00 0.  1.
         21    1    1    2  506  503 -0.39643154666E+02 -0.14825091476E+03  0.11840105972E+03  0.19382653167E+03  0.00000000000E+00 0.  1.
<scales pt_clust_3="93.73831" pt_clust_4="32.26313" pt_clust_5="32.26313" pt_clust_6="158.25192"></scales>
<clustering>
<clus scale="   32.263">  4  5 -1 -1</clus>
<clus scale="   93.738">  1  3  2 -1</clus>
<clus scale="  158.252">  2  6  1 -1</clus>
<clus scale="   93.738">  1  3  2 -1</clus>
</clustering>
</event>
<event>
 6    0  0.8777103E+002  0.8018924E+02  0.7546771E-02  0.1328515E+00
         21   -1    0    0  504  501  0.00000000000E+00  0.00000000000E+00  0.78363338966E+03  0.78363338966E+03  0.00000000000E+00 0. -1.
         21   -1    0    0  503  502 -0.00000000000E+00 -0.00000000000E+00 -0.16847143973E+04  0.16847143973E+04  0.00000000000E+00 0.  1.
         21    1    1    2  503  506 -0.80142597125E+02  0.58382184711E+01 -0.16336752736E+04  0.16356502744E+04  0.00000000000E+00 0.  1.
         21    1    1    2  504  502 -0.36334827522E+02  0.15857328044E+02  0.67935018461E+03  0.68050594992E+03  0.00000000000E+00 0. -1.
         21    1    1    2  505  501  0.46365871454E+02 -0.42749115545E+02  0.24920543046E+01  0.63114905136E+02  0.00000000000E+00 0.  1.
         21    1    1    2  506  505  0.70111553193E+02  0.21053569030E+02  0.50752027040E+02  0.89076657486E+02  0.00000000000E+00 0.  1.
<scales pt_clust_3="14000.00000" pt_clust_4="39.64435" pt_clust_5="51.37993" pt_clust_6="80.18924"></scales>
<clustering>
<clus scale="   39.644">  1  4  2 -1</clus>
<clus scale="   51.380">  1  5  2 -1</clus>
<clus scale="   80.189">  1  6  2 -1</clus>
<clus scale="   39.644">  1  3  2 -1</clus>
</clustering>
</event>
<event>
 6    0  0.8777103E+002  0.7593409E+02  0.7546771E-02  0.1341003E+00
         21   -1    0    0  504  501  0.00000000000E+00  0.00000000000E+00  0.63076338649E+02  0.63076338649E+02  0.00000000000E+00 0.  1.
         21   -1    0    0  506  502 -0.00000000000E+00 -0.00000000000E+00 -0.16111127963E+04  0.16111127963E+04  0.00000000000E+00 0.  1.
         21    1    1    2  503  505  0.68385647128E+02  0.39346241150E+02 -0.45113052067E+03  0.45797758691E+03  0.00000000000E+00 0.  1.
         21    1    1    2  504  502 -0.73566018130E+02 -0.38769340672E+02 -0.25616507463E+02  0.87012793624E+02  0.00000000000E+00 0.  1.
         21    1    1    2  505  501  0.50037028377E+02 -0.38593096776E+02 -0.73290155533E+01  0.63614823717E+02  0.00000000000E+00 0.  1.
         21    1    1    2  506  503 -0.44856657375E+02  0.38016196299E+02 -0.10639604139E+04  0.10655839307E+04  0.00000000000E+00 0.  1.
<scales pt_clust_3="75.93409" pt_clust_4="14000.00000" pt_clust_5="59.37791" pt_clust_6="58.79924"></scales>
<clustering>
<clus scale="   58.799">  2  6  1 -1</clus>
<clus scale="   59.378">  1  5  2 -1</clus>
<clus scale="   75.934">  2  3  1 -1</clus>
<clus scale="   59.378">  1  3  2 -1</clus>
</clustering>
</event>
<event>
 6    0  0.8777103E+002  0.1519464E+03  0.7546771E-02  0.1198101E+00
         21   -1    0    0  503  501  0.00000000000E+00  0.00000000000E+00  0.64633442695E+03  0.64633442695E+03  0.00000000000E+00 0.  1.
         21   -1    0    0  505  502 -0.00000000000E+00 -0.00000000000E+00 -0.82431964466E+03  0.82431964466E+03  0.00000000000E+00 0. -1.
         21    1    1    2  503  506 -0.36651842691E+02  0.95895891604E+01  0.29620496324E+03  0.29861798011E+03  0.00000000000E+00 0.  1.
         21    1    1    2  504  501 -0.88293571651E+02 -0.10215876226E+03  0.30765307850E+03  0.33598003544E+03  0.00000000000E+00 0.  1.
         21    1    1    2  505  504  0.43096645378E+02  0.90957928964E+02 -0.73475112047E+03  0.74161302221E+03  0.00000000000E+00 0. -1.
         21    1    1    2  506  502  0.81848768963E+02  0.16112441327E+01 -0.47092138985E+02  0.94443033849E+02  0.00000000000E+00 0. -1.
<scales pt_clust_3="37.88559" pt_clust_4="14000.00000" pt_clust_5="151.94644" pt_clust_6="79.39406"></scales>
<clustering>
<clus scale="   37.886">  1  3  2 -1</clus>
<clus scale="   79.394">  2  6  1 -1</clus>
<clus scale="  151.946">  2  5  1 -1</clus>
<clus scale="   37.886">  1  3  2 -1</clus>
</clustering>
</event>
<event>
 6    0  0.8777103E+002  0.8229831E+02  0.7546771E-02  0.1322653E+00
         21   -1    0    0  503  501  0.00000000000E+00  0.00000000000E+00  0.17748165283E+03  0.17748165283E+03  0.00000000000E+00 0. -1.
         21   -1    0    0  506  502 -0.00000000000E+00 -0.00000000000E+00 -0.20942037581E+03  0.20942037581E+03  0.00000000000E+00 0. -1.
         21    1    1    2  503  504  0.52522033460E+02 -0.59514248131E+02  0.11984005350E+03  0.14374334125E+03  0.00000000000E+00 0. -1.
         21    1    1    2  504  502 -0.33902550594E+02 -0.14624552222E+02 -0.27498630778E+02  0.46037323545E+02  0.00000000000E+00 0. -1.
         21    1    1    2  505  501 -0.55021468486E+02  0.91602958567E+02 -0.63961351233E+02  0.12453721719E+03  0.00000000000E+00 0. -1.
         21    1    1    2  506  505  0.36401985621E+02 -0.17464158214E+02 -0.60318794471E+02  0.72584146656E+02  0.00000000000E+00 0. -1.
<scales pt_clust_3="14000.00000" pt_clust_4="36.92236" pt_clust_5="82.29831" pt_clust_6="32.84302"></scales>
<clustering>
<clus scale="   36.922">  2  4  1 -1</clus>
<clus scale="   32.843">  2  6  1 -1</clus>
<clus scale="   82.298">  2  5  1 -1</clus>
<clus scale="   82.298">  1  3  2 -1</clus>
</clustering>
</event>
<event>
 6    0  0.8777103E+002  0.9818648E+02  0.7546771E-02  0.1284156E+00
         21   -1    0    0  504  501  0.00000000000E+00  0.00000000000E+00  0.12850705805E+04  0.12850705805E+04  0.00000000000E+00 0.  1.
         21   -1    0    0  506  502 -0.00000000000E+00 -0.00000000000E+00 -0.38393511844E+03  0.38393511844E+03  0.00000000000E+00 0. -1.
         21    1    1    2  503  505  0.18636266639E+02 -0.99168722692E+02  0.18326574030E+03  0.20920821581E+03  0.00000000000E+00 0.  1.
         21    1    1    2  504  502 -0.33353614420E+02  0.10014199311E+03  0.18774157133E+03  0.21537822542E+03  0.00000000000E+00 0. -1.
         21    1    1    2  505  501 -0.27565970340E+01 -0.39110442720E+02  0.88560663307E+03  0.88647410232E+03  0.00000000000E+00 0.  1.
         21    1    1    2  506  503  0.17473944815E+02  0.38137172303E+02 -0.35547848263E+03  0.35794515539E+03  0.00000000000E+00 0. -1.
<scales pt_clust_3="14000.00000" pt_clust_4="98.18648" pt_clust_5="39.20747" pt_clust_6="41.83634"></scales>
<clustering>
<clus scale="   39.207">  1  5  2 -1</clus>
<clus scale="   41.836">  2  6  1 -1</clus>
<clus scale="   98.186">  1  4  2 -1</clus>
<clus scale="   39.207">  1  3  2 -1</clus>
</clustering>
</event>
<event>
 6    0  0.8777103E+002  0.7240817E+02  0.7546771E-02  0.1352090E+00
         21   -1    0    0  504  501  0.00000000000E+00  0.00000000000E+00  0.26406643801E+03  0.26406643801E+03  0.00000000000E+00 0.  1.
         21   -1    0    0  505  502 -0.00000000000E+00 -0.00000000000E+00 -0.55247024324E+03  0.55247024324E+03  0.00000000000E+00 0.  1.
         21    1    1    2  503  506 -0.50708013892E+02  0.60689319151E+02 -0.13678753475E+03  0.15800419550E+03  0.00000000000E+00 0.  1.
         21    1    1    2  504  502 -0.28774028164E+02 -0.67195507024E+02  0.23760252273E+03  0.24859231619E+03  0.00000000000E+00 0.  1.
         21    1    1    2  505  503  0.21775950568E+02 -0.29717622839E+02 -0.27100104254E+03  0.27349386499E+03  0.00000000000E+00 0.  1.
         21    1    1    2  506  501  0.57706091489E+02  0.36223810712E+02 -0.11821775067E+03  0.13644630457E+03  0.00000000000E+00 0.  1.
<scales pt_clust_3="59.75865" pt_clust_4="72.40817" pt_clust_5="36.84195" pt_clust_6="14000.00000"></scales>
<clustering>
<clus scale="   36.842">  2  5  1 -1</clus>
<clus scale="   59.759">  2  3  1 -1</clus>
<clus scale="   72.408">  1  4  2 -1</clus>
<clus scale="   72.408">  1  3  2 -1</clus>
</clustering>
</event>
<event>
 6    0  0.8777103E+002  0.1079402E+03  0.7546771E-02  0.1264433E+00
         21   -1    0    0  504  501  0.00000000000E+00  0.00000000000E+00  0.62516666507E+03  0.62516666507E+03  0.00000000000E+00 0.  1.
         21   -1    0    0  503  502 -0.00000000000E+00 -0.00000000000E+00 -0.48411699659E+02  0.48411699659E+02  0.00000000000E+00 0.  1.
         21    1    1    2  503  506  0.18599914898E+02 -0.24051736671E+02  0.19584298500E+01  0.30467660209E+02  0.00000000000E+00 0.  1.
         21    1    1    2  504  502 -0.13648422965E+03  0.37682365606E+02  0.33056478422E+03  0.35961226645E+03  0.00000000000E+00 0.  1.
         21    1    1    2  505  501  0.44112797857E+02  0.28781725231E+02  0.13584401155E+03  0.14569805117E+03  0.00000000000E+00 0.  1.
         21    1    1    2  506  505  0.73771516891E+02 -0.42412354166E+02  0.10838773980E+03  0.13780038690E+03  0.00000000000E+00 0.  1.
<scales pt_clust_3="30.40465" pt_clust_4="107.94019" pt_clust_5="53.20300" pt_clust_6="14000.00000"></scales>
<clustering>
<clus scale="   30.405">  2  3  1 -1</clus>
<clus scale="   53.203">  1  5  2 -1</clus>
<clus scale="  107.940">  1  4  2 -1</clus>
<clus scale="   53.203">  1  3  2 -1</clus>
</clustering>
</event>
<event>
 6    0  0.8777103E+002  0.1812364E+03  0.7546771E-02  0.1166612E+00
         21   -1    0    0  502  501  0.00000000000E+00  0.00000000000E+00  0.23545807612E+03  0.23545807612E+03  0.00000000000E+00 0.  1.
         21   -1    0    0  504  502 -0.00000000000E+00 -0.00000000000E+00 -0.44975320586E+03  0.44975320586E+03  0.00000000000E+00 0.  1.
         21    1    1    2  503  506  0.10839103289E+02 -0.55086250978E+02  0.45924856619E+01  0.56330028684E+02  0.00000000000E+00 0.  1.
         21    1    1    2  504  503 -0.76373528647E+02  0.18300587109E+03 -0.35565290629E+03  0.40720149126E+03  0.00000000000E+00 0.  1.
         21    1    1    2  505  501  0.93118530359E+01 -0.96669411240E+02  0.12154610008E+03  0.15558001195E+03  0.00000000000E+00 0.  1.
         21    1    1    2  506  505  0.56222572322E+02 -0.31250208870E+02  0.15219190810E+02  0.66099750089E+02  0.00000000000E+00 0.  1.
<scales pt_clust_3="48.05041" pt_clust_4="173.78534" pt_clust_5="97.11687" pt_clust_6="48.05041"></scales>
<clustering>
<clus scale="   48.050">  3  6 -1 -1</clus>
<clus scale="   97.117">  1  5  2 -1</clus>
<clus scale="  173.785">  2  4  1 -1</clus>
<clus scale="   97.117">  1  3  2 -1</clus>
</clustering>
</event>
<event>
 6    0  0.8777103E+002  0.1155995E+03  0.7546771E-02  0.1250538E+00
         21   -1    0    0  503  501  0.00000000000E+00  0.00000000000E+00  0.54334895818E+02  0.54334895818E+02  0.00000000000E+00 0.  1.
         21   -1    0    0  504  502 -0.00000000000E+00 -0.00000000000E+00 -0.98209581658E+03  0.98209581658E+03  0.00000000000E+00 0. -1.
         21    1    1    2  503  505  0.57430703667E+02 -0.50955145409E+02 -0.41621165686E+01  0.76889763829E+02  0.00000000000E+00 0.  1.
         21    1    1    2  504  501  0.47422721740E+02  0.87989587083E+02 -0.18109701548E+03  0.20685069733E+03  0.00000000000E+00 0.  1.
         21    1    1    2  505  506 -0.68584430050E+02 -0.50026879326E+02 -0.50677182989E+03  0.51383285246E+03  0.00000000000E+00 0. -1.
         21    1    1    2  506  502 -0.36268995356E+02  0.12992437653E+02 -0.23572995883E+03  0.23885739878E+03  0.00000000000E+00 0. -1.
<scales pt_clust_3="76.77703" pt_clust_4="102.44675" pt_clust_5="36.07683" pt_clust_6="36.07683"></scales>
<clustering>
<clus scale="   36.077">  5  6 -1 -1</clus>
<clus scale="   76.777">  1  3  2 -1</clus>
<clus scale="  102.447">  1  4  2 -1</clus>
<clus scale="   76.777">  1  3  2 -1</clus>
</clustering>
</event>
<event>
 6    0  0.8777103E+002  0.7325085E+02  0.7546771E-02  0.1349375E+00
         21   -1    0    0  503  501  0.00000000000E+00  0.00000000000E+00  0.67449048630E+03  0.67449048630E+03  0.00000000000E+00 0. -1.
         21   -1    0    0  504  502 -0.00000000000E+00 -0.00000000000E+00 -0.87374145037E+02  0.87374145037E+02  0.00000000000E+00 0. -1.
         21    1    1    2  503  505 -0.29766352474E+02 -0.34471589697E+02  0.33466657176E+03  0.33775144780E+03  0.00000000000E+00 0. -1.
         21    1    1    2  504  501 -0.38326914665E+02  0.57644843181E+02 -0.20580616780E+02  0.72218017974E+02  0.00000000000E+00 0. -1.
         21    1    1    2  505  506  0.58828808106E+02  0.78493220082E+02  0.21035878109E+03  0.23210521546E+03  0.00000000000E+00 0. -1.
         21    1    1    2  506  502  0.92644590325E+01 -0.10166647357E+03  0.62671605190E+02  0.11978995010E+03  0.00000000000E+00 0. -1.
<scales pt_clust_3="45.54477" pt_clust_4="68.37241" pt_clust_5="14000.00000" pt_clust_6="73.25085"></scales>
<clustering>
<clus scale="   45.545">  1  3  2 -1</clus>
<clus scale="   68.372">  2  4  1 -1</clus>
<clus scale="   73.251">  2  6  1 -1</clus>
<clus scale="   45.545">  1  3  2 -1</clus>
</clustering>
</event>
<event>
 6    0  0.8777103E+002  0.1201763E+03  0.7546771E-02  0.1242807E+00
         21   -1    0    0  503  501  0.00000000000E+00  0.00000000000E+00  0.53944638468E+02  0.53944638468E+02  0.00000000000E+00 0. -1.
         21   -1    0    0  504  502 -0.00000000000E+00 -0.00000000000E+00 -0.59207138720E+03  0.59207138720E+03  0.00000000000E+00 0. -1.
         21    1    1    2  503  506  0.71620299279E+02  0.75209006082E+02 -0.14573930688E+03  0.17895755763E+03  0.00000000000E+00 0. -1.
         21    1    1    2  504  505  0.48662721404E+02 -0.20480420310E+02 -0.46018467299E+02  0.70037185859E+02  0.00000000000E+00 0. -1.
         21    1    1    2  505  501  0.13752834481E+02 -0.54616533716E+02 -0.69840022865E+02  0.89720315454E+02  0.00000000000E+00 0.  1.
         21    1    1    2  506  502 -0.13403585516E+03 -0.11205205593E+00 -0.27652895168E+03  0.30730096671E+03  0.00000000000E+00 0. -1.
<scales pt_clust_3="103.85500" pt_clust_4="49.02611" pt_clust_5="49.02611" pt_clust_6="108.98774"></scales>
<clustering>
<clus scale="   49.026">  4  5 -1 -1</clus>
<clus scale="  103.855">  1  3  2 -1</clus>
<clus scale="  108.988">  2  6  1 -1</clus>
<clus scale="  103.855">  1  3  2 -1</clus>
</clustering>
</event>
<event>
 6    0  0.8777103E+002  0.8028238E+02  0.7546771E-02  0.1328252E+00
         21   -1    0    0  503  501  0.00000000000E+00  0.00000000000E+00  0.16565145818E+03  0.16565145818E+03  0.00000000000E+00 0. -1.
         21   -1    0    0  504  502 -0.00000000000E+00 -0.00000000000E+00 -0.33275335562E+03  0.33275335562E+03  0.00000000000E+00 0. -1.
         21    1    1    2  503  502 -0.22870914754E+02  0.89641659386E+02 -0.23481198241E+03  0.25237942254E+03  0.00000000000E+00 0. -1.
         21    1    1    2  504  506  0.43988764612E+02  0.32043808422E+01 -0.31303534417E+02  0.54085032455E+02  0.00000000000E+00 0. -1.
         21    1    1    2  505  501 -0.42020975935E+02 -0.31550999602E+02  0.11394696698E+03  0.12547963690E+03  0.00000000000E+00 0. -1.
         21    1    1    2  506  505  0.20903126077E+02 -0.61295040627E+02 -0.14933347582E+02  0.66460721898E+02  0.00000000000E+00 0. -1.
<scales pt_clust_3="14000.00000" pt_clust_4="44.10532" pt_clust_5="51.81200" pt_clust_6="80.28238"></scales>
<clustering>
<clus scale="   44.105">  2  4  1 -1</clus>
<clus scale="   51.812">  1  5  2 -1</clus>
<clus scale="   80.282">  1  6  2 -1</clus>
<clus scale="   51.812">  1  3  2 -1</clus>
</clustering>
</event>
<event>
 6    0  0.8777103E+002  0.1201171E+03  0.7546771E-02  0.1242904E+00
         21   -1    0    0  503  501  0.00000000000E+00  0.00000000000E+00  0.13867899151E+04  0.13867899151E+04  0.00000000000E+00 0. -1.
         21   -1    0    0  506  502 -0.00000000000E+00 -0.00000000000E+00 -0.16809174527E+03  0.16809174527E+03  0.00000000000E+00 0.  1.
         21    1    1    2  503  505  0.64875271004E+02 -0.16857786891E+02  0.96098138284E+03  0.96331625334E+03  0.00000000000E+00 0. -1.
         21    1    1    2  504  501 -0.14042103408E+03 -0.77324239642E+02  0.36055767561E+03  0.39458705286E+03  0.00000000000E+00 0. -1.
         21    1    1    2  505  502  0.37440831100E+02  0.21660381849E+02  0.21321659146E+02  0.48224486768E+02  0.00000000000E+00 0.  1.
         21    1    1    2  506  504  0.38104931979E+02  0.72521644685E+02 -0.12416254779E+03  0.14875386738E+03  0.00000000000E+00 0.  1.
<scales pt_clust_3="67.26257" pt_clust_4="120.11712" pt_clust_5="43.25492" pt_clust_6="14000.00000"></scales>
<clustering>
<clus scale="   43.255">  2  5  1 -1</clus>
<clus scale="   67.263">  1  3  2 -1</clus>
<clus scale="  120.117">  1  4  2 -1</clus>
<clus scale="   67.263">  1  3  2 -1</clus>
</clustering>
</event>
<event>
 6    0  0.8777103E+002  0.7180006E+02  0.7546771E-02  0.1354077E+00
         21   -1    0    0  506  501  0.00000000000E+00  0.00000000000E+00  0.16171482767E+04  0.16171482767E+04  0.00000000000E+00 0. -1.
         21   -1    0    0  505  502 -0.00000000000E+00 -0.00000000000E+00 -0.53345129435E+02  0.53345129435E+02  0.00000000000E+00 0.  1.
         21    1    1    2  503  504  0.39508874180E+02  0.19343762678E+02  0.35295371540E+03  0.35568449152E+03  0.00000000000E+00 0.  1.
         21    1    1    2  504  502 -0.11550649867E+03  0.29739764607E+02  0.17765797569E+03  0.21398261882E+03  0.00000000000E+00 0.  1.
         21    1    1    2  505  501  0.61305476194E+02 -0.19542521597E+02 -0.27076817897E+01  0.64401887414E+02  0.00000000000E+00 0.  1.
         21    1    1    2  506  503  0.14692148291E+02 -0.29541005687E+02  0.10358991380E+04  0.10364244084E+04  0.00000000000E+00 0. -1.
<scales pt_clust_3="48.48718" pt_clust_4="71.80006" pt_clust_5="14000.00000" pt_clust_6="32.99288"></scales>
<clustering>
<clus scale="   32.993">  1  6  2 -1</clus>
<clus scale="   48.487">  1  3  2 -1</clus>
<clus scale="   71.800">  1  4  2 -1</clus>
<clus scale="   32.993">  1  3  2 -1</clus>
</clustering>
</event>
<event>
 6    0  0.8777103E+002  0.8813460E+02  0.7546771E-02  0.1307433E+00
         21   -1    0    0  506  501  0.00000000000E+00  0.00000000000E+00  0.77316389510E+03  0.77316389510E+03  0.00000000000E+00 0. -1.
         21   -1    0    0  505  502 -0.00000000000E+00 -0.00000000000E+00 -0.69793394470E+02  0.69793394470E+02  0.00000000000E+00 0. -1.
         21    1    1    2  503  501 -0.52222251518E+02  0.73139616970E+02  0.43960730058E+03  0.44869939364E+03  0.00000000000E+00 0. -1.
         21    1    1    2  504  502  0.74022223940E+02 -0.30791429601E+02  0.14523677893E+02  0.81476002562E+02  0.00000000000E+00 0. -1.
         21    1    1    2  505  503 -0.95672250359E+02  0.57124776107E+01  0.93850735586E+02  0.13414086797E+03  0.00000000000E+00 0. -1.
         21    1    1    2  506  504  0.73872277937E+02 -0.48060664980E+02  0.15538878657E+03  0.17864102541E+03  0.00000000000E+00 0. -1.
<scales pt_clust_3="14000.00000" pt_clust_4="80.17108" pt_clust_5="55.78284" pt_clust_6="88.13460"></scales>
<clustering>
<clus scale="   80.171">  2  4  1 -1</clus>
<clus scale="   55.783">  2  5  1 -1</clus>
<clus scale="   88.135">  2  6  1 -1</clus>
<clus scale="   88.135">  1  3  2 -1</clus>
</clustering>
</event>
<event>
 6    0  0.8777103E+002  0.1526346E+03  0.7546771E-02  0.1197273E+00
         21   -1    0    0  506  501  0.00000000000E+00  0.00000000000E+00  0.25770675960E+03  0.25770675960E+03  0.00000000000E+00 0.  1.
         21   -1    0    0  504  502 -0.00000000000E+00 -0.00000000000E+00 -0.84973918456E+03  0.84973918456E+03  0.00000000000E+00 0. -1.
         21    1    1    2  503  505 -0.65640116396E+02 -0.12168470830E+03 -0.22028564786E+02  0.14000375274E+03  0.00000000000E+00 0.  1.
         21    1    1    2  504  501  0.31662773212E+02 -0.16241026366E+01 -0.48965287056E+03  0.49067820674E+03  0.00000000000E+00 0. -1.
         21    1    1    2  505  502  0.87260673699E+02  0.11915774348E+03 -0.25469126896E+03  0.29441575279E+03  0.00000000000E+00 0. -1.
         21    1    1    2  506  503 -0.53283330516E+02  0.41510674623E+01  0.17434027935E+03  0.18234823189E+03  0.00000000000E+00 0.  1.
<scales pt_clust_3="14000.00000" pt_clust_4="31.70440" pt_clust_5="152.63459" pt_clust_6="53.09187"></scales>
<clustering>
<clus scale="   31.704">  2  4  1 -1</clus>
<clus scale="   53.092">  1  6  2 -1</clus>
<clus scale="  152.635">  2  5  1 -1</clus>
<clus scale="   53.092">  1  3  2 -1</clus>
</clustering>
</event>
<event>
 6    0  0.8777103E+002  0.7632477E+02  0.7546771E-02  0.1339817E+00
         21   -1    0    0  503  501  0.00000000000E+00  0.00000000000E+00  0.71429900460E+03  0.71429900460E+03  0.00000000000E+00 0.  1.
         21   -1    0    0  505  502 -0.00000000000E+00 -0.00000000000E+00 -0.36407670499E+03  0.36407670499E+03  0.00000000000E+00 0.  1.
         21    1    1    2  503  506  0.43517931838E+02  0.94382929079E+02  0.13641830767E+03  0.17149898647E+03  0.00000000000E+00 0.  1.
         21    1    1    2  504  501  0.80821511533E-01 -0.73589883895E+02  0.54909833053E+03  0.55400763003E+03  0.00000000000E+00 0.  1.
         21    1    1    2  505  504 -0.50882481732E+02  0.23769453414E+02 -0.25138523328E+03  0.25758212161E+03  0.00000000000E+00 0.  1.
         21    1    1    2  506  502  0.72837283824E+01 -0.44562498598E+02 -0.83909105304E+02  0.95286971478E+02  0.00000000000E+00 0.  1.
<scales pt_clust_3="76.32477" pt_clust_4="14000.00000" pt_clust_5="47.48989" pt_clust_6="45.15384"></scales>
<clustering>
<clus scale="   45.154">  2  6  1 -1</clus>
<clus scale="   47.490">  2  5  1 -1</clus>
<clus scale="   76.325">  2  3  1 -1</clus>
<clus scale="   76.325">  1  3  2 -1</clus>
</clustering>
</event>
<event>
 6    0  0.8777103E+002  0.9258375E+02  0.7546771E-02  0.1296713E+00
         21   -1    0    0  505  501  0.00000000000E+00  0.00000000000E+00  0.19201436506E+04  0.19201436506E+04  0.00000000000E+00 0.  1.
         21   -1    0    0  506  502 -0.00000000000E+00 -0.00000000000E+00 -0.29432350438E+03  0.29432350438E+03  0.00000000000E+00 0.  1.
         21    1    1    2  503  502  0.77281547618E+00 -0.99975236191E+02 -0.92093945240E+02  0.13592990784E+03  0.00000000000E+00 0. -1.
         21    1    1    2  504  503 -0.15674343984E+02  0.84047995040E+02  0.31841589305E+03  0.32969445169E+03  0.00000000000E+00 0.  1.
         21    1    1    2  505  504  0.58641167610E+02  0.30207138405E+00  0.15705259338E+04  0.15716203697E+04  0.00000000000E+00 0.  1.
         21    1    1    2  506  501 -0.43739639102E+02  0.15625169768E+02 -0.17102773532E+03  0.17722242580E+03  0.00000000000E+00 0.  1.
<scales pt_clust_3="92.58375" pt_clust_4="14000.00000" pt_clust_5="58.44323" pt_clust_6="46.44676"></scales>
<clustering>
<clus scale="   46.447">  2  6  1 -1</clus>
<clus scale="   58.443">  1  5  2 -1</clus>
<clus scale="   92.584">  2  3  1 -1</clus>
<clus scale="   58.443">  1  3  2 -1</clus>
</clustering>
</event>
<event>
 6    0  0.8777103E+002  0.3506126E+03  0.7546771E-02  0.1062364E+00
         21   -1    0    0  504  501  0.00000000000E+00  0.00000000000E+00  0.14535045375E+03  0.14535045375E+03  0.00000000000E+00 0.  1.
         21   -1    0    0  506  502 -0.00000000000E+00 -0.00000000000E+00 -0.10962389049E+04  0.10962389049E+04  0.00000000000E+00 0.  1.
         21    1    1    2  503  501 -0.62735936951E+02 -0.14444622365E+03 -0.22374089565E+03  0.27360646501E+03  0.00000000000E+00 0.  1.
         21    1    1    2  504  505  0.41995361692E+02 -0.57824795893E+01  0.31386673258E+02  0.52746286429E+02  0.00000000000E+00 0.  1.
         21    1    1    2  505  502 -0.66947927080E+02  0.31641306689E+03 -0.45452991405E+03  0.55785006642E+03  0.00000000000E+00 0.  1.
         21    1    1    2  506  503  0.87688502338E+02 -0.16618436365E+03 -0.30400431468E+03  0.35738654075E+03  0.00000000000E+00 0.  1.
<scales pt_clust_3="133.99344" pt_clust_4="42.39160" pt_clust_5="316.86914" pt_clust_6="133.99344"></scales>
<clustering>
<clus scale="   42.392">  1  4  2 -1</clus>
<clus scale="  133.993">  3  6 -1 -1</clus>
<clus scale="  316.869">  1  5  2 -1</clus>
<clus scale="   42.392">  1  3  2 -1</clus>
</clustering>
</event>
<event>
 6    0  0.8777103E+002  0.9251634E+02  0.7546771E-02  0.1296870E+00
         21   -1    0    0  504  501  0.00000000000E+00  0.00000000000E+00  0.38178591791E+03  0.38178591791E+03  0.00000000000E+00 0.  1.
         21   -1    0    0  506  502 -0.00000000000E+00 -0.00000000000E+00 -0.13654545768E+03  0.13654545768E+03  0.00000000000E+00 0.  1.
         21    1    1    2  503  505  0.89929830309E+02  0.91475419176E+01  0.17492622637E+03  0.19690159109E+03  0.00000000000E+00 0.  1.
         21    1    1    2  504  503  0.18997103426E+02 -0.32217581349E+02  0.87755556429E+02  0.95393396893E+02  0.00000000000E+00 0.  1.
         21    1    1    2  505  502 -0.83758557865E+02  0.42800365811E+02 -0.10012907483E+03  0.13737976181E+03  0.00000000000E+00 0.  1.
         21    1    1    2  506  501 -0.25168375870E+02 -0.19730326380E+02  0.82687752265E+02  0.88656625796E+02  0.00000000000E+00 0.  1.
<scales pt_clust_3="14000.00000" pt_clust_4="39.92635" pt_clust_5="92.51634" pt_clust_6="31.98020"></scales>
<clustering>
<clus scale="   31.980">  1  6  2 -1</clus>
<clus scale="   39.926">  1  4  2 -1</clus>
<clus scale="   92.516">  2  5  1 -1</clus>
<clus scale="   31.980">  1  3  2 -1</clus>
</clustering>
</event>
<event>
 6    0  0.8777103E+002  0.1191693E+03  0.7546771E-02  0.1244474E+00
         21   -1    0    0  503  501  0.00000000000E+00  0.00000000000E+00  0.10767279149E+04  0.10767279149E+04  0.00000000000E+00 0.  1.
         21   -1    0    0  504  502 -0.00000000000E+00 -0.00000000000E+00 -0.46037325729E+03  0.46037325729E+03  0.00000000000E+00 0.  1.
         21    1    1    2  503  502  0.37959888131E+02  0.10653705013E+03  0.58355023864E+03  0.59440893093E+03  0.00000000000E+00 0.  1.
         21    1    1    2  504  505  0.42537384074E+02 -0.40496403203E+02 -0.86474463433E+02  0.10453334656E+03  0.00000000000E+00 0.  1.
         21    1    1    2  505  506  0.10953004655E+01 -0.73072963001E+02 -0.35215831586E+03  0.35966142000E+03  0.00000000000E+00 0.  1.
         21    1    1    2  506  501 -0.81592572671E+02  0.70323160751E+01  0.47143719831E+03  0.47849747475E+03  0.00000000000E+00 0.  1.
<scales pt_clust_3="14000.00000" pt_clust_4="58.73149" pt_clust_5="119.16928" pt_clust_6="81.45216"></scales>
<clustering>
<clus scale="   58.731">  2  4  1 -1</clus>
<clus scale="   81.452">  1  6  2 -1</clus>
<clus scale="  119.169">  2  5  1 -1</clus>
<clus scale="   81.452">  1  3  2 -1</clus>
</clustering>
</event>
<event>
 6    0  0.8777103E+002  0.1064822E+03  0.7546771E-02  0.1267227E+00
         21   -1    0    0  504  501  0.00000000000E+00  0.00000000000E+00  0.47283762851E+02  0.47283762851E+02  0.00000000000E+00 0. -1.
         21   -1    0    0  506  502 -0.00000000000E+00 -0.00000000000E+00 -0.15683852452E+04  0.15683852452E+04  0.00000000000E+00 0.  1.
         21    1    1    2  503  505 -0.23244801683E+02 -0.41486661527E+02 -0.15670717031E+02  0.50070303196E+02  0.00000000000E+00 0. -1.
         21    1    1    2  504  502  0.19495188006E+02  0.10155607335E+03 -0.11809017270E+04  0.11854208482E+04  0.00000000000E+00 0.  1.
         21    1    1    2  505  501 -0.60107922155E+02 -0.51313393356E+01 -0.18998461721E+02  0.63247407038E+02  0.00000000000E+00 0. -1.
         21    1    1    2  506  503  0.63857535832E+02 -0.54938072490E+02 -0.30553057658E+03  0.31693044965E+03  0.00000000000E+00 0.  1.
<scales pt_clust_3="44.55272" pt_clust_4="93.91706" pt_clust_5="44.55272" pt_clust_6="84.23762"></scales>
<clustering>
<clus scale="   44.553">  3  5 -1 -1</clus>
<clus scale="   84.238">  2  6  1 -1</clus>
<clus scale="   93.917">  2  4  1 -1</clus>
<clus scale="  106.482">  1  3  2 -1</clus>
</clustering>
</event>
<event>
 6    0  0.8777103E+002  0.9205564E+02  0.7546771E-02  0.1297949E+00
         21   -1    0    0  504  501  0.00000000000E+00  0.00000000000E+00  0.71258919517E+02  0.71258919517E+02  0.00000000000E+00 0.  1.
         21   -1    0    0  505  502 -0.00000000000E+00 -0.00000000000E+00 -0.51406583283E+03  0.51406583283E+03  0.00000000000E+00 0.  1.
         21    1    1    2  503  506  0.67373564181E+02 -0.50439498377E+01 -0.16493699022E+03  0.17823818144E+03  0.00000000000E+00 0.  1.
         21    1    1    2  504  502 -0.99294004597E+02  0.42282602001E+02 -0.28047598144E+02  0.11150688563E+03  0.00000000000E+00 0.  1.
         21    1    1    2  505  503 -0.43517831442E+02 -0.24619804746E+02 -0.19543110236E+03  0.20172568554E+03  0.00000000000E+00 0.  1.
         21    1    1    2  506  501  0.75438271859E+02 -0.12618847418E+02 -0.54391222594E+02  0.93853999736E+02  0.00000000000E+00 0.  1.
<scales pt_clust_3="47.43364" pt_clust_4="92.05564" pt_clust_5="49.99936" pt_clust_6="14000.00000"></scales>
<clustering>
<clus scale="   49.999">  2  5  1 -1</clus>
<clus scale="   47.434">  2  3  1 -1</clus>
<clus scale="   92.056">  1  4  2 -1</clus>
<clus scale="   92.056">  1  3  2 -1</clus>
</clustering>
</event>
<event>
 6    0  0.8777103E+002  0.9700952E+02  0.7546771E-02  0.1286713E+00
         21   -1    0    0  505  501  0.00000000000E+00  0.00000000000E+00  0.10647610609E+04  0.10647610609E+04  0.00000000000E+00 0. -1.
         21   -1    0    0  504  502 -0.00000000000E+00 -0.00000000000E+00 -0.65514275768E+02  0.65514275768E+02  0.00000000000E+00 0. -1.
         21    1    1    2  503  502  0.29229464362E+02  0.75881039681E+02  0.89632316308E+02  0.12102167532E+03  0.00000000000E+00 0. -1.
         21    1    1    2  504  506  0.32173419744E+02  0.33824523774E+01 -0.35832476619E+02  0.48275628456E+02  0.00000000000E+00 0. -1.
         21    1    1    2  505  503 -0.24923355531E+02  0.38557629476E+02  0.18611201741E+03  0.19169128167E+03  0.00000000000E+00 0. -1.
         21    1    1    2  506  501 -0.36479528576E+02 -0.11782112153E+03  0.75933492802E+03  0.76928675121E+03  0.00000000000E+00 0. -1.
<scales pt_clust_3="14000.00000" pt_clust_4="32.35073" pt_clust_5="44.30552" pt_clust_6="97.00952"></scales>
<clustering>
<clus scale="   32.351">  2  4  1 -1</clus>
<clus scale="   44.306">  1  5  2 -1</clus>
<clus scale="   97.010">  1  6  2 -1</clus>
<clus scale="   44.306">  1  3  2 -1</clus>
</clustering>
</event>
<event>
 6    0  0.8777103E+002  0.9498856E+02  0.7546771E-02  0.1291202E+00
         21   -1    0    0  506  501  0.00000000000E+00  0.00000000000E+00  0.49615897832E+03  0.49615897832E+03  0.00000000000E+00 0.  1.
         21   -1    0    0  505  502 -0.00000000000E+00 -0.00000000000E+00 -0.71734684078E+03  0.71734684078E+03  0.00000000000E+00 0. -1.
         21    1    1    2  503  504 -0.76810912371E+02 -0.72975617086E+02  0.22076324882E+03  0.24487092310E+03  0.00000000000E+00 0.  1.
         21    1    1    2  504  501  0.56794269649E+02 -0.20953882189E+02  0.25527706167E+03  0.26235668938E+03  0.00000000000E+00 0.  1.
         21    1    1    2  505  503  0.16030127319E+01  0.65253249249E+02 -0.59387761880E+03  0.59745391647E+03  0.00000000000E+00 0. -1.
         21    1    1    2  506  502  0.18413629991E+02  0.28676250026E+02 -0.10335055415E+03  0.10882429016E+03  0.00000000000E+00 0.  1.
<scales pt_clust_3="94.98856" pt_clust_4="60.57926" pt_clust_5="14000.00000" pt_clust_6="34.07916"></scales>
<clustering>
<clus scale="   34.079">  2  6  1 -1</clus>
<clus scale="   60.579">  1  4  2 -1</clus>
<clus scale="   94.989">  1  3  2 -1</clus>
<clus scale="   60.579">  1  3  2 -1</clus>
</clustering>
</event>
<event>
 6    0  0.8777103E+002  0.1127013E+03  0.7546771E-02  0.1255648E+00
         21   -1    0    0  506  501  0.00000000000E+00  0.00000000000E+00  0.16699018187E+03  0.16699018187E+03  0.00000000000E+00 0. -1.
         21   -1    0    0  504  502 -0.00000000000E+00 -0.00000000000E+00 -0.38377191529E+03  0.38377191529E+03  0.00000000000E+00 0.  1.
         21    1    1    2  503  502  0.43436443663E+01 -0.42338053505E+02  0.70545702473E+02  0.82389769743E+02  0.00000000000E+00 0. -1.
         21    1    1    2  504  505 -0.34964225550E+01 -0.44185844235E+02 -0.23272512566E+03  0.23690841673E+03  0.00000000000E+00 0.  1.
         21    1    1    2  505  501 -0.32534268051E+02  0.13505437186E+03 -0.88121542281E+02  0.16451008531E+03  0.00000000000E+00 0.  1.
         21    1    1    2  506  503  0.31687046240E+02 -0.48530474116E+02  0.33519232048E+02  0.66953825390E+02  0.00000000000E+00 0. -1.
<scales pt_clust_3="37.53568" pt_clust_4="44.32396" pt_clust_5="103.84065" pt_clust_6="37.53568"></scales>
<clustering>
<clus scale="   37.536">  3  6 -1 -1</clus>
<clus scale="   44.324">  2  4  1 -1</clus>
<clus scale="  103.841">  2  5  1 -1</clus>
<clus scale="  112.701">  1  3  2 -1</clus>
</clustering>
</event>
<event>
 6    0  0.8777103E+002  0.1136047E+03  0.7546771E-02  0.1254036E+00
         21   -1    0    0  504  501  0.00000000000E+00  0.00000000000E+00  0.33060936471E+03  0.33060936471E+03  0.00000000000E+00 0. -1.
         21   -1    0    0  505  502 -0.00000000000E+00 -0.00000000000E+00 -0.19663611568E+03  0.19663611568E+03  0.00000000000E+00 0. -1.
         21    1    1    2  503  501 -0.10791372834E+03 -0.18981944622E+02 -0.61877182586E+02  0.12583510127E+03  0.00000000000E+00 0. -1.
         21    1    1    2  504  506  0.61254316553E+02 -0.71243240898E+02  0.17813102949E+03  0.20139104830E+03  0.00000000000E+00 0. -1.
         21    1    1    2  505  503 -0.32998271004E+02  0.31150871562E+02 -0.59144476709E+02  0.74547513799E+02  0.00000000000E+00 0. -1.
         21    1    1    2  506  502  0.79657682794E+02  0.59074313958E+02  0.76863878835E+02  0.12547181702E+03  0.00000000000E+00 0. -1.
<scales pt_clust_3="113.60473" pt_clust_4="89.91252" pt_clust_5="45.37910" pt_clust_6="14000.00000"></scales>
<clustering>
<clus scale="   45.379">  2  5  1 -1</clus>
<clus scale="   89.913">  1  4  2 -1</clus>
<clus scale="  113.605">  2  3  1 -1</clus>
<clus scale="   89.913">  1  3  2 -1</clus>
</clustering>
</event>
<event>
 6    0  0.8777103E+002  0.1563433E+03  0.7546771E-02  0.1192888E+00
         21   -1    0    0  504  501  0.00000000000E+00  0.00000000000E+00  0.11506235652E+03  0.11506235652E+03  0.00000000000E+00 0. -1.
         21   -1    0    0  501  502 -0.00000000000E+00 -0.00000000000E+00 -0.99314426793E+03  0.99314426793E+03  0.00000000000E+00 0. -1.
         21    1    1    2  503  502  0.49742674357E+02  0.31316981614E+02 -0.21144414796E+03  0.21946233093E+03  0.00000000000E+00 0. -1.
         21    1    1    2  504  506 -0.12613973982E+03 -0.10888750508E+02 -0.31189662752E+02  0.13039399493E+03  0.00000000000E+00 0. -1.
         21    1    1    2  505  503  0.78465959656E+02 -0.15067166598E+03 -0.59966750208E+03  0.62326557004E+03  0.00000000000E+00 0. -1.
         21    1    1    2  506  505 -0.20688941883E+01  0.13024343487E+03 -0.35780598619E+02  0.13508472855E+03  0.00000000000E+00 0. -1.
<scales pt_clust_3="58.77999" pt_clust_4="121.21285" pt_clust_5="156.34328" pt_clust_6="14000.00000"></scales>
<clustering>
<clus scale="   58.780">  2  3  1 -1</clus>
<clus scale="  121.213">  1  4  2 -1</clus>
<clus scale="  156.343">  2  5  1 -1</clus>
<clus scale="  121.213">  1  3  2 -1</clus>
</clustering>
</event>
<event>
 6    0  0.8777103E+002  0.8324720E+02  0.7546771E-02  0.1320081E+00
         21   -1    0    0  506  501  0.00000000000E+00  0.00000000000E+00  0.89337790390E+02  0.89337790390E+02  0.00000000000E+00 0.  1.
         21   -1    0    0  504  502 -0.00000000000E+00 -0.00000000000E+00 -0.51865256666E+03  0.51865256666E+03  0.00000000000E+00 0.  1.
         21    1    1    2  503  502  0.18459533934E+02  0.31324563313E+02 -0.58875576866E+02  0.69197660445E+02  0.00000000000E+00 0.  1.
         21    1    1    2  504  505 -0.39470648408E+02  0.13037580882E+02 -0.29677234136E+03  0.29966937314E+03  0.00000000000E+00 0.  1.
         21    1    1    2  505  501 -0.17674062315E+02 -0.11233432146E+03 -0.10508765327E+03  0.15483793826E+03  0.00000000000E+00 0.  1.
         21    1    1    2  506  503  0.38685176789E+02  0.67972177261E+02  0.31420795233E+02  0.84285385197E+02  0.00000000000E+00 0.  1.
<scales pt_clust_3="36.35908" pt_clust_4="43.32055" pt_clust_5="83.24720" pt_clust_6="14000.00000"></scales>
<clustering>
<clus scale="   36.359">  2  3  1 -1</clus>
<clus scale="   43.321">  2  4  1 -1</clus>
<clus scale="   83.247">  2  5  1 -1</clus>
<clus scale="   83.247">  1  3  2 -1</clus>
</clustering>
</event>
<event>
 6    0  0.8777103E+002  0.2352956E+03  0.7546771E-02  0.1122967E+00
         21   -1    0    0  506  501  0.00000000000E+00  0.00000000000E+00  0.31779143388E+03  0.31779143388E+03  0.00000000000E+00 0.  1.
         21   -1    0    0  505  502 -0.00000000000E+00 -0.00000000000E+00 -0.16551193677E+04  0.16551193677E+04  0.00000000000E+00 0.  1.
         21    1    1    2  503  504 -0.24059116523E+03  0.46372436053E+02  0.92007401417E+02  0.26172480495E+03  0.00000000000E+00 0.  1.
         21    1    1    2  504  502 -0.14172564698E+02 -0.75230228568E+02 -0.44516453466E+03  0.45169891720E+03  0.00000000000E+00 0.  1.
         21    1    1    2  505  501  0.23514075854E+03 -0.62835461689E+01 -0.11062304534E+04  0.11309626322E+04  0.00000000000E+00 0.  1.
         21    1    1    2  506  503  0.19622971392E+02  0.35141338684E+02  0.12205965285E+03  0.12852444726E+03  0.00000000000E+00 0.  1.
<scales pt_clust_3="14000.00000" pt_clust_4="75.90609" pt_clust_5="235.29561" pt_clust_6="40.24891"></scales>
<clustering>
<clus scale="   40.249">  1  6  2 -1</clus>
<clus scale="   75.906">  2  4  1 -1</clus>
<clus scale="  235.296">  2  5  1 -1</clus>
<clus scale="   40.249">  1  3  2 -1</clus>
</clustering>
</event>
<event>
 6    0  0.8777103E+002  0.1033251E+03  0.7546771E-02  0.1273455E+00
         21   -1    0    0  504  501  0.00000000000E+00  0.00000000000E+00  0.19386251315E+03  0.19386251315E+03  0.00000000000E+00 0.  1.
         21   -1    0    0  503  502 -0.00000000000E+00 -0.00000000000E+00 -0.98270403753E+03  0.98270403753E+03  0.00000000000E+00 0.  1.
         21    1    1    2  503  501  0.12588796327E+03 -0.69875044743E+02 -0.17063297600E+03  0.22326198439E+03  0.00000000000E+00 0.  1.
         21    1    1    2  504  506 -0.28640326380E+02  0.12767201757E+02  0.14687796737E+03  0.15018790576E+03  0.00000000000E+00 0.  1.
         21    1    1    2  505  502 -0.72426686294E+02 -0.25877840860E+02 -0.67036354664E+03  0.67476112232E+03  0.00000000000E+00 0.  1.
         21    1    1    2  506  505 -0.24820950596E+02  0.82985683845E+02 -0.94722969119E+02  0.12835553821E+03  0.00000000000E+00 0.  1.
<scales pt_clust_3="103.32512" pt_clust_4="31.35713" pt_clust_5="78.01786" pt_clust_6="14000.00000"></scales>
<clustering>
<clus scale="   31.357">  1  4  2 -1</clus>
<clus scale="   78.018">  2  5  1 -1</clus>
<clus scale="  103.325">  2  3  1 -1</clus>
<clus scale="   31.357">  1  3  2 -1</clus>
</clustering>
</event>
<event>
 6    0  0.8777103E+002  0.1309926E+03  0.7546771E-02  0.1225990E+00
         21   -1    0    0  504  501  0.00000000000E+00  0.00000000000E+00  0.70469293829E+02  0.70469293829E+02  0.00000000000E+00 0. -1.
         21   -1    0    0  506  502 -0.00000000000E+00 -0.00000000000E+00 -0.15334286488E+04  0.15334286488E+04  0.00000000000E+00 0. -1.
         21    1    1    2  503  501  0.21103922402E+02  0.39054511800E+02 -0.63971098826E+02  0.77864831071E+02  0.00000000000E+00 0. -1.
         21    1    1    2  504  505  0.33263844171E+02 -0.91875326864E+01 -0.44100877044E+02  0.55998048555E+02  0.00000000000E+00 0. -1.
         21    1    1    2  505  502  0.82136744927E+00 -0.14835728886E+03 -0.46991721443E+02  0.15562384678E+03  0.00000000000E+00 0. -1.
         21    1    1    2  506  503 -0.55189134023E+02  0.11849030974E+03 -0.13078956577E+04  0.13144112162E+04  0.00000000000E+00 0. -1.
<scales pt_clust_3="45.36889" pt_clust_4="34.50933" pt_clust_5="130.99255" pt_clust_6="14000.00000"></scales>
<clustering>
<clus scale="   34.509">  1  4  2 -1</clus>
<clus scale="   45.369">  1  3  2 -1</clus>
<clus scale="  130.993">  1  5  2 -1</clus>
<clus scale="   34.509">  1  3  2 -1</clus>
</clustering>
</event>
<event>
 6    0  0.8777103E+002  0.1180797E+03  0.7546771E-02  0.1246299E+00
         21   -1    0    0  504  501  0.00000000000E+00  0.00000000000E+00  0.19751521022E+04  0.19751521022E+04  0.00000000000E+00 0.  1.
         21   -1    0    0  506  502 -0.00000000000E+00 -0.00000000000E+00 -0.18669307588E+03  0.18669307588E+03  0.00000000000E+00 0. -1.
         21    1    1    2  503  501  0.17386962358E+02  0.12398306012E+03  0.13846586986E+04  0.13903070946E+04  0.00000000000E+00 0.  1.
         21    1    1    2  504  505  0.40791553473E+02 -0.78629327194E+01  0.36193949707E+03  0.36431576426E+03  0.00000000000E+00 0. -1.
         21    1    1    2  505  502  0.35314998052E+02 -0.10034481498E+03  0.19787467523E+03  0.22465666711E+03  0.00000000000E+00 0. -1.
         21    1    1    2  506  503 -0.93493513884E+02 -0.15775312420E+02 -0.15601384460E+03  0.18256565210E+03  0.00000000000E+00 0. -1.
<scales pt_clust_3="14000.00000" pt_clust_4="41.54247" pt_clust_5="118.07973" pt_clust_6="94.49466"></scales>
<clustering>
<clus scale="   41.542">  1  4  2 -1</clus>
<clus scale="   94.495">  2  6  1 -1</clus>
<clus scale="  118.080">  2  5  1 -1</clus>
<clus scale="   41.542">  1  3  2 -1</clus>
</clustering>
</event>
<event>
 6    0  0.8777103E+002  0.1506913E+03  0.7546771E-02  0.1199626E+00
         21   -1    0    0  504  501  0.00000000000E+00  0.00000000000E+00  0.50490910922E+03  0.50490910922E+03  0.00000000000E+00 0.  1.
         21   -1    0    0  503  502 -0.00000000000E+00 -0.00000000000E+00 -0.11989018573E+04  0.11989018573E+04  0.00000000000E+00 0.  1.
         21    1    1    2  503  501 -0.46445739144E+02 -0.10821412525E+02  0.32881174905E+03  0.33225212711E+03  0.00000000000E+00 0.  1.
         21    1    1    2  504  505  0.70110388864E+02 -0.98010025393E+02  0.10653956366E+03  0.16084809706E+03  0.00000000000E+00 0.  1.
         21    1    1    2  505  506 -0.11911475517E+03 -0.21111189039E+02 -0.71232175188E+02  0.14038529119E+03  0.00000000000E+00 0.  1.
         21    1    1    2  506  502  0.95450105447E+02  0.12994262696E+03 -0.10581118856E+04  0.10703254512E+04  0.00000000000E+00 0.  1.
<scales pt_clust_3="47.68972" pt_clust_4="111.76503" pt_clust_5="150.69134" pt_clust_6="14000.00000"></scales>
<clustering>
<clus scale="   47.690">  1  3  2 -1</clus>
<clus scale="  111.765">  1  4  2 -1</clus>
<clus scale="  150.691">  1  5  2 -1</clus>
<clus scale="   47.690">  1  3  2 -1</clus>
</clustering>
</event>
<event>
 6    0  0.8777103E+002  0.8289028E+02  0.7546771E-02  0.1321044E+00
         21   -1    0    0  504  501  0.00000000000E+00  0.00000000000E+00  0.17776801466E+03  0.17776801466E+03  0.00000000000E+00 0. -1.
         21   -1    0    0  503  502 -0.00000000000E+00 -0.00000000000E+00 -0.24190736353E+03  0.24190736353E+03  0.00000000000E+00 0. -1.
         21    1    1    2  503  501  0.99041634009E+02 -0.43260839410E+02 -0.10728221026E+03  0.15228334817E+03  0.00000000000E+00 0. -1.
         21    1    1    2  504  506  0.35802033360E+02 -0.16187904741E+02  0.71163491754E+01  0.39930893782E+02  0.00000000000E+00 0. -1.
         21    1    1    2  505  502 -0.43226448563E+02  0.90616767738E+00 -0.65645789274E+02  0.78604813113E+02  0.00000000000E+00 0. -1.
         21    1    1    2  506  505 -0.91617218806E+02  0.58542576474E+02  0.10167230149E+03  0.14885632312E+03  0.00000000000E+00 0. -1.
<scales pt_clust_3="82.89028" pt_clust_4="39.29165" pt_clust_5="41.72309" pt_clust_6="14000.00000"></scales>
<clustering>
<clus scale="   39.292">  1  4  2 -1</clus>
<clus scale="   41.723">  2  5  1 -1</clus>
<clus scale="   82.890">  2  3  1 -1</clus>
<clus scale="   39.292">  1  3  2 -1</clus>
</clustering>
</event>
<event>
 6    0  0.8777103E+002  0.6553127E+02  0.7546771E-02  0.1375984E+00
         21   -1    0    0  503  501  0.00000000000E+00  0.00000000000E+00  0.37154144543E+03  0.37154144543E+03  0.00000000000E+00 0.  1.
         21   -1    0    0  506  502 -0.00000000000E+00 -0.00000000000E+00 -0.61825008984E+02  0.61825008984E+02  0.00000000000E+00 0.  1.
         21    1    1    2  503  502  0.26557946325E+02 -0.69629706221E+02  0.94196516920E+02  0.12011080010E+03  0.00000000000E+00 0.  1.
         21    1    1    2  504  505 -0.71912759907E+02  0.17793865978E+01  0.11481787630E+03  0.13549079663E+03  0.00000000000E+00 0.  1.
         21    1    1    2  505  501  0.59523980711E+02  0.16146059299E+02  0.10728740955E+03  0.12375131417E+03  0.00000000000E+00 0.  1.
         21    1    1    2  506  504 -0.14169167129E+02  0.51704260325E+02 -0.65853663230E+01  0.54013543510E+02  0.00000000000E+00 0. -1.
<scales pt_clust_3="52.63501" pt_clust_4="65.53127" pt_clust_5="14000.00000" pt_clust_6="53.61059"></scales>
<clustering>
<clus scale="   53.611">  2  6  1 -1</clus>
<clus scale="   52.635">  2  3  1 -1</clus>
<clus scale="   65.531">  2  4  1 -1</clus>
<clus scale="   65.531">  1  3  2 -1</clus>
</clustering>
</event>
<event>
 6    0  0.8777103E+002  0.9022543E+02  0.7546771E-02  0.1302307E+00
         21   -1    0    0  503  501  0.00000000000E+00  0.00000000000E+00  0.13360941148E+03  0.13360941148E+03  0.00000000000E+00 0. -1.
         21   -1    0    0  505  502 -0.00000000000E+00 -0.00000000000E+00 -0.10063703488E+04  0.10063703488E+04  0.00000000000E+00 0. -1.
         21    1    1    2  503  504  0.32520342562E+02 -0.12963147765E+02  0.76419724329E+02  0.84057064824E+02  0.00000000000E+00 0. -1.
         21    1    1    2  504  502  0.25565268884E+02 -0.69211222977E+02  0.12971400688E+02  0.74913507426E+02  0.00000000000E+00 0. -1.
         21    1    1    2  505  506  0.28055311653E+02  0.53517519789E+02 -0.71778761751E+03  0.72032651575E+03  0.00000000000E+00 0. -1.
         21    1    1    2  506  501 -0.86140923098E+02  0.28656850953E+02 -0.24436444484E+03  0.26068267231E+03  0.00000000000E+00 0. -1.
<scales pt_clust_3="35.00880" pt_clust_4="90.22543" pt_clust_5="60.51709" pt_clust_6="14000.00000"></scales>
<clustering>
<clus scale="   35.009">  1  3  2 -1</clus>
<clus scale="   60.517">  2  5  1 -1</clus>
<clus scale="   90.225">  1  4  2 -1</clus>
<clus scale="   35.009">  1  3  2 -1</clus>
</clustering>
</event>
<event>
 6    0  0.8777103E+002  0.8868233E+02  0.7546771E-02  0.1306074E+00
         21   -1    0    0  504  501  0.00000000000E+00  0.00000000000E+00  0.34893996578E+03  0.34893996578E+03  0.00000000000E+00 0. -1.
         21   -1    0    0  506  502 -0.00000000000E+00 -0.00000000000E+00 -0.65318019412E+03  0.65318019412E+03  0.00000000000E+00 0. -1.
         21    1    1    2  503  502 -0.83215540580E+02  0.63177267643E+02  0.10996913432E+03  0.15168850927E+03  0.00000000000E+00 0. -1.
         21    1    1    2  504  503  0.95061555033E+01  0.36740413815E+02  0.19349257997E+03  0.19717911528E+03  0.00000000000E+00 0. -1.
         21    1    1    2  505  501 -0.10779435772E+02 -0.73832670294E+02 -0.52941107334E+02  0.91488907983E+02  0.00000000000E+00 0. -1.
         21    1    1    2  506  505  0.84488820848E+02 -0.26085011165E+02 -0.55476083530E+03  0.56176362737E+03  0.00000000000E+00 0. -1.
<scales pt_clust_3="14000.00000" pt_clust_4="37.95030" pt_clust_5="69.88324" pt_clust_6="88.68233"></scales>
<clustering>
<clus scale="   37.950">  1  4  2 -1</clus>
<clus scale="   69.883">  1  5  2 -1</clus>
<clus scale="   88.682">  2  6  1 -1</clus>
<clus scale="   37.950">  1  3  2 -1</clus>
</clustering>
</event>
<event>
 6    0  0.8777103E+002  0.1207650E+03  0.7546771E-02  0.1241840E+00
         21   -1    0    0  506  501  0.00000000000E+00  0.00000000000E+00  0.12293805753E+04  0.12293805753E+04  0.00000000000E+00 0. -1.
         21   -1    0    0  504  502 -0.00000000000E+00 -0.00000000000E+00 -0.10320176752E+03  0.10320176752E+03  0.00000000000E+00 0.  1.
         21    1    1    2  503  501 -0.14368428089E+03  0.34643709258E+02  0.24842849112E+03  0.28907105418E+03  0.00000000000E+00 0.  1.
         21    1    1    2  504  503 -0.29698655690E+02 -0.38280783670E+02 -0.38885933724E+02  0.62125231507E+02  0.00000000000E+00 0. -1.
         21    1    1    2  505  502  0.12401664508E+03  0.24184929539E+01  0.89939661738E+02  0.15321592645E+03  0.00000000000E+00 0.  1.
         21    1    1    2  506  505  0.49366291504E+02  0.12185814586E+01  0.82669658868E+03  0.82817013072E+03  0.00000000000E+00 0. -1.
<scales pt_clust_3="14000.00000" pt_clust_4="48.45027" pt_clust_5="120.76502" pt_clust_6="48.95583"></scales>
<clustering>
<clus scale="   48.450">  2  4  1 -1</clus>
<clus scale="   48.956">  1  6  2 -1</clus>
<clus scale="  120.765">  2  5  1 -1</clus>
<clus scale="   48.956">  1  3  2 -1</clus>
</clustering>
</event>
<event>
 6    0  0.8777103E+002  0.1111740E+03  0.7546771E-02  0.1258411E+00
         21   -1    0    0  506  501  0.00000000000E+00  0.00000000000E+00  0.82830105806E+03  0.82830105806E+03  0.00000000000E+00 0. -1.
         21   -1    0    0  503  502 -0.00000000000E+00 -0.00000000000E+00 -0.38613750175E+03  0.38613750175E+03  0.00000000000E+00 0. -1.
         21    1    1    2  503  505  0.30693736285E+02  0.91980035537E+01 -0.24791820857E+03  0.24998029293E+03  0.00000000000E+00 0. -1.
         21    1    1    2  504  502 -0.56214728186E+02  0.93095345265E+02 -0.74757968079E+02  0.13196815058E+03  0.00000000000E+00 0. -1.
         21    1    1    2  505  501 -0.61292523534E+02  0.23848279063E+02  0.61411534588E+03  0.61762704919E+03  0.00000000000E+00 0. -1.
         21    1    1    2  506  504  0.86813515435E+02 -0.12614162788E+03  0.15072438708E+03  0.21486306711E+03  0.00000000000E+00 0. -1.
<scales pt_clust_3="32.04230" pt_clust_4="111.17398" pt_clust_5="65.44570" pt_clust_6="14000.00000"></scales>
<clustering>
<clus scale="   32.042">  2  3  1 -1</clus>
<clus scale="   65.446">  1  5  2 -1</clus>
<clus scale="  111.174">  2  4  1 -1</clus>
<clus scale="   65.446">  1  3  2 -1</clus>
</clustering>
</event>
<event>
 6    0  0.8777103E+002  0.1069932E+03  0.7546771E-02  0.1266242E+00
         21   -1    0    0  504  501  0.00000000000E+00  0.00000000000E+00  0.73304615854E+03  0.73304615854E+03  0.00000000000E+00 0.  1.
         21   -1    0    0  506  502 -0.00000000000E+00 -0.00000000000E+00 -0.20868398983E+03  0.20868398983E+03  0.00000000000E+00 0.  1.
         21    1    1    2  503  501 -0.27950500028E+01  0.62208556818E+02  0.12081594668E+03  0.13591986543E+03  0.00000000000E+00 0.  1.
         21    1    1    2  504  505  0.57628028033E+02  0.32120222099E+02  0.43063932596E+03  0.43566377786E+03  0.00000000000E+00 0.  1.
         21    1    1    2  505  502 -0.13568271195E+03 -0.89948817789E+02  0.12000143124E+03  0.20223978749E+03  0.00000000000E+00 0.  1.
         21    1    1    2  506  503  0.80849733920E+02 -0.43799611277E+01 -0.14709453517E+03  0.16790671759E+03  0.00000000000E+00 0.  1.
<scales pt_clust_3="62.27132" pt_clust_4="106.99319" pt_clust_5="14000.00000" pt_clust_6="80.86938"></scales>
<clustering>
<clus scale="   62.271">  1  3  2 -1</clus>
<clus scale="   80.869">  2  6  1 -1</clus>
<clus scale="  106.993">  1  4  2 -1</clus>
<clus scale="   62.271">  1  3  2 -1</clus>
</clustering>
</event>
<event>
 6    0  0.8777103E+002  0.1140146E+03  0.7546771E-02  0.1253311E+00
         21   -1    0    0  503  501  0.00000000000E+00  0.00000000000E+00  0.25554510134E+04  0.25554510134E+04  0.00000000000E+00 0. -1.
         21   -1    0    0  504  502 -0.00000000000E+00 -0.00000000000E+00 -0.18697653840E+02  0.18697653840E+02  0.00000000000E+00 0. -1.
         21    1    1    2  503  506  0.18468082187E+02  0.24870375566E+02  0.28671128963E+03  0.28837990437E+03  0.00000000000E+00 0. -1.
         21    1    1    2  504  501  0.17909231864E+02 -0.15602943694E+03  0.55765600560E+03  0.57934976168E+03  0.00000000000E+00 0. -1.
         21    1    1    2  505  502  0.17339476590E+02  0.50934591490E+02  0.12532729147E+03  0.13638885602E+03  0.00000000000E+00 0. -1.
         21    1    1    2  506  505 -0.53716790642E+02  0.80224469881E+02  0.15670587729E+04  0.15700301452E+04  0.00000000000E+00 0. -1.
<scales pt_clust_3="30.97750" pt_clust_4="114.01461" pt_clust_5="55.50967" pt_clust_6="14000.00000"></scales>
<clustering>
<clus scale="   30.978">  1  3  2 -1</clus>
<clus scale="   55.510">  2  5  1 -1</clus>
<clus scale="  114.015">  2  4  1 -1</clus>
<clus scale="   30.978">  1  3  2 -1</clus>
</clustering>
</event>
<event>
 6    0  0.8777103E+002  0.9045493E+02  0.7546771E-02  0.1301754E+00
         21   -1    0    0  503  501  0.00000000000E+00  0.00000000000E+00  0.37755451837E+02  0.37755451837E+02  0.00000000000E+00 0. -1.
         21   -1    0    0  504  502 -0.00000000000E+00 -0.00000000000E+00 -0.13432911094E+04  0.13432911094E+04  0.00000000000E+00 0.  1.
         21    1    1    2  503  505  0.24716183395E+02  0.51205249857E+02 -0.76057115272E+03  0.76269348082E+03  0.00000000000E+00 0.  1.
         21    1    1    2  504  506  0.41760815484E+02 -0.47535573027E+01 -0.26150005097E+03  0.26485626040E+03  0.00000000000E+00 0.  1.
         21    1    1    2  505  502 -0.46207703134E+02  0.45065918582E+02 -0.24295480068E+03  0.25138242584E+03  0.00000000000E+00 0. -1.
         21    1    1    2  506  501 -0.20269295746E+02 -0.91517611136E+02 -0.40509653205E+02  0.10211439419E+03  0.00000000000E+00 0. -1.
<scales pt_clust_3="90.45493" pt_clust_4="42.03049" pt_clust_5="57.24855" pt_clust_6="14000.00000"></scales>
<clustering>
<clus scale="   42.030">  2  4  1 -1</clus>
<clus scale="   57.249">  2  5  1 -1</clus>
<clus scale="   90.455">  2  3  1 -1</clus>
<clus scale="   90.455">  1  3  2 -1</clus>
</clustering>
</event>
<event>
 6    0  0.8777103E+002  0.1104485E+03  0.7546771E-02  0.1259742E+00
         21   -1    0    0  505  501  0.00000000000E+00  0.00000000000E+00  0.25653607262E+03  0.25653607262E+03  0.00000000000E+00 0. -1.
         21   -1    0    0  503  502 -0.00000000000E+00 -0.00000000000E+00 -0.14289030847E+04  0.14289030847E+04  0.00000000000E+00 0. -1.
         21    1    1    2  503  506 -0.93108954400E+02  0.27681727706E+02 -0.61816579381E+03  0.62575115188E+03  0.00000000000E+00 0. -1.
         21    1    1    2  504  502 -0.50221281213E+01 -0.42207952809E+02 -0.42297104638E+03  0.42510144569E+03  0.00000000000E+00 0. -1.
         21    1    1    2  505  504  0.16478956248E+03  0.34947199858E+02 -0.35890787873E+03  0.39647417582E+03  0.00000000000E+00 0. -1.
         21    1    1    2  506  501 -0.66658479958E+02 -0.20420974755E+02  0.22767770687E+03  0.23811238390E+03  0.00000000000E+00 0. -1.
<scales pt_clust_3="14000.00000" pt_clust_4="42.50568" pt_clust_5="110.44845" pt_clust_6="69.80576"></scales>
<clustering>
<clus scale="   42.506">  2  4  1 -1</clus>
<clus scale="   69.806">  1  6  2 -1</clus>
<clus scale="  110.448">  1  5  2 -1</clus>
<clus scale="   69.806">  1  3  2 -1</clus>
</clustering>
</event>
<event>
 6    0  0.8777103E+002  0.1569967E+03  0.7546771E-02  0.1192130E+00
         21   -1    0    0  505  501  0.00000000000E+00  0.00000000000E+00  0.41666644256E+03  0.41666644256E+03  0.00000000000E+00 0.  1.
         21   -1    0    0  504  502 -0.00000000000E+00 -0.00000000000E+00 -0.33199400944E+03  0.33199400944E+03  0.00000000000E+00 0. -1.
         21    1    1    2  503  506 -0.10954640525E+03 -0.83918099925E+02 -0.19539550560E+03  0.23921134172E+03  0.00000000000E+00 0. -1.
         21    1    1    2  504  501  0.17669098283E+03  0.10859356131E+03  0.32816847676E+03  0.38820975530E+03  0.00000000000E+00 0.  1.
         21    1    1    2  505  503 -0.37018744058E+02 -0.37601746811E+02  0.10772544234E+02  0.53854679315E+02  0.00000000000E+00 0. -1.
         21    1    1    2  506  502 -0.30125833524E+02  0.12926285422E+02 -0.58873082261E+02  0.67384675671E+02  0.00000000000E+00 0. -1.
<scales pt_clust_3="14000.00000" pt_clust_4="156.99665" pt_clust_5="53.77726" pt_clust_6="32.78193"></scales>
<clustering>
<clus scale="   32.782">  2  6  1 -1</clus>
<clus scale="   53.777">  1  5  2 -1</clus>
<clus scale="  156.997">  1  4  2 -1</clus>
<clus scale="   53.777">  1  3  2 -1</clus>
</clustering>
</event>
<event>
 6    0  0.8777103E+002  0.9711436E+02  0.7546771E-02  0.1286484E+00
         21   -1    0    0  505  501  0.00000000000E+00  0.00000000000E+00  0.15742329586E+03  0.15742329586E+03  0.00000000000E+00 0. -1.
         21   -1    0    0  503  502 -0.00000000000E+00 -0.00000000000E+00 -0.23144464444E+03  0.23144464444E+03  0.00000000000E+00 0. -1.
         21    1    1    2  503  504 -0.46124747690E+02 -0.21203102583E+02 -0.46353729224E+02  0.68743960619E+02  0.00000000000E+00 0. -1.
         21    1    1    2  504  506  0.23543994154E+02  0.11508156016E+03 -0.99478671728E+02  0.15392885135E+03  0.00000000000E+00 0. -1.
         21    1    1    2  505  502 -0.43878943062E+02 -0.17278667054E+02  0.33238898164E+02  0.57695219304E+02  0.00000000000E+00 0. -1.
         21    1    1    2  506  501  0.66459696598E+02 -0.76599790519E+02  0.38572154210E+02  0.10849990903E+03  0.00000000000E+00 0. -1.
<scales pt_clust_3="55.47371" pt_clust_4="14000.00000" pt_clust_5="47.15839" pt_clust_6="97.11436"></scales>
<clustering>
<clus scale="   47.158">  1  5  2 -1</clus>
<clus scale="   55.474">  2  3  1 -1</clus>
<clus scale="   97.114">  1  6  2 -1</clus>
<clus scale="   47.158">  1  3  2 -1</clus>
</clustering>
</event>
<event>
 6    0  0.8777103E+002  0.1560522E+03  0.7546771E-02  0.1193227E+00
         21   -1    0    0  504  501  0.00000000000E+00  0.00000000000E+00  0.66873437469E+03  0.66873437469E+03  0.00000000000E+00 0.  1.
         21   -1    0    0  506  502 -0.00000000000E+00 -0.00000000000E+00 -0.29289616474E+03  0.29289616474E+03  0.00000000000E+00 0. -1.
         21    1    1    2  503  502  0.17975858233E+02  0.17313805810E+03 -0.20587254708E+03  0.26959863554E+03  0.00000000000E+00 0. -1.
         21    1    1    2  504  503 -0.26948587695E+02 -0.13222434797E+02  0.62614714105E+02  0.69438185339E+02  0.00000000000E+00 0.  1.
         21    1    1    2  505  501  0.69313439129E+02 -0.55094182945E+02  0.49034497001E+03  0.49827493560E+03  0.00000000000E+00 0.  1.
         21    1    1    2  506  505 -0.60340709667E+02 -0.10482144036E+03  0.28751072911E+02  0.12431878296E+03  0.00000000000E+00 0. -1.
<scales pt_clust_3="156.05215" pt_clust_4="30.01765" pt_clust_5="81.09763" pt_clust_6="14000.00000"></scales>
<clustering>
<clus scale="   30.018">  1  4  2 -1</clus>
<clus scale="   81.098">  1  5  2 -1</clus>
<clus scale="  156.052">  2  3  1 -1</clus>
<clus scale="   30.018">  1  3  2 -1</clus>
</clustering>
</event>
<event>
 6    0  0.1140730E+003  0.1864069E+03  0.7546771E-02  0.1161743E+00
         21   -1    0    0  503  501  0.00000000000E+00  0.00000000000E+00  0.12737278138E+04  0.12737278138E+04  0.00000000000E+00 0.  1.
         21   -1    0    0  506  502 -0.00000000000E+00 -0.00000000000E+00 -0.75929604670E+03  0.75929604670E+03  0.00000000000E+00 0.  1.
         21    1    1    2  503  505  0.39889293420E+02 -0.12896190269E+03  0.60411850620E+01  0.13512521597E+03  0.00000000000E+00 0.  1.
         21    1    1    2  504  501  0.11047859455E+02  0.70787342913E+02  0.36860046219E+03  0.37549860697E+03  0.00000000000E+00 0.  1.
         21    1    1    2  505  502  0.26952411317E+02 -0.27480760359E+02 -0.68673147518E+03  0.68780938033E+03  0.00000000000E+00 0.  1.
         21    1    1    2  506  504 -0.77889564192E+02  0.85655320136E+02  0.82652159505E+03  0.83459065725E+03  0.00000000000E+00 0.  1.
<scales pt_clust_3="166.40422" pt_clust_4="66.20092" pt_clust_5="38.49188" pt_clust_6="66.20092"></scales>
<clustering>
<clus scale="   38.492">  2  5  1 -1</clus>
<clus scale="   66.201">  4  6 -1 -1</clus>
<clus scale="  166.404">  2  3  1 -1</clus>
<clus scale="  186.407">  1  3  2 -1</clus>
</clustering>
</event>
<event>
 6    0  0.8777103E+002  0.1320570E+03  0.7546771E-02  0.1224435E+00
         21   -1    0    0  503  501  0.00000000000E+00  0.00000000000E+00  0.23578177273E+03  0.23578177273E+03  0.00000000000E+00 0.  1.
         21   -1    0    0  506  502 -0.00000000000E+00 -0.00000000000E+00 -0.25536143094E+03  0.25536143094E+03  0.00000000000E+00 0. -1.
         21    1    1    2  503  504  0.43515676185E+01 -0.34826769237E+02  0.92165214039E+02  0.98621836705E+02  0.00000000000E+00 0.  1.
         21    1    1    2  504  505 -0.74084872869E+02 -0.86483912784E+02  0.79044692632E+02  0.13862214467E+03  0.00000000000E+00 0.  1.
         21    1    1    2  505  502  0.40212015405E+02  0.12922469716E+03 -0.14072267868E+03  0.19524062291E+03  0.00000000000E+00 0. -1.
         21    1    1    2  506  501  0.29521289846E+02 -0.79140151387E+01 -0.50066886198E+02  0.58658599398E+02  0.00000000000E+00 0. -1.
<scales pt_clust_3="35.28543" pt_clust_4="14000.00000" pt_clust_5="132.05702" pt_clust_6="30.56367"></scales>
<clustering>
<clus scale="   30.564">  2  6  1 -1</clus>
<clus scale="   35.285">  1  3  2 -1</clus>
<clus scale="  132.057">  2  5  1 -1</clus>
<clus scale="   35.285">  1  3  2 -1</clus>
</clustering>
</event>
<event>
 6    0  0.8777103E+002  0.1569256E+03  0.7546771E-02  0.1192212E+00
         21   -1    0    0  503  501  0.00000000000E+00  0.00000000000E+00  0.89070795390E+02  0.89070795390E+02  0.00000000000E+00 0.  1.
         21   -1    0    0  505  502 -0.00000000000E+00 -0.00000000000E+00 -0.10259373661E+04  0.10259373661E+04  0.00000000000E+00 0. -1.
         21    1    1    2  503  502  0.17961566465E+03 -0.55115372313E+01 -0.77622694878E+03  0.79675619863E+03  0.00000000000E+00 0. -1.
         21    1    1    2  504  506 -0.52818743605E+02 -0.69589186560E+02 -0.10385018338E+03  0.13571048283E+03  0.00000000000E+00 0.  1.
         21    1    1    2  505  504 -0.91427405944E+02  0.60212452881E+02 -0.81866547283E+02  0.13669909145E+03  0.00000000000E+00 0.  1.
         21    1    1    2  506  501 -0.35369515106E+02  0.14888270911E+02  0.25077108726E+02  0.45842388590E+02  0.00000000000E+00 0.  1.
<scales pt_clust_3="14000.00000" pt_clust_4="90.86811" pt_clust_5="156.92564" pt_clust_6="38.37529"></scales>
<clustering>
<clus scale="   38.375">  1  6  2 -1</clus>
<clus scale="   90.868">  1  4  2 -1</clus>
<clus scale="  156.926">  1  5  2 -1</clus>
<clus scale="   38.375">  1  3  2 -1</clus>
</clustering>
</event>
<event>
 6    0  0.8777103E+002  0.7700450E+02  0.7546771E-02  0.1337774E+00
         21   -1    0    0  505  501  0.00000000000E+00  0.00000000000E+00  0.18452950809E+04  0.18452950809E+04  0.00000000000E+00 0.  1.
         21   -1    0    0  506  502 -0.00000000000E+00 -0.00000000000E+00 -0.14072738803E+03  0.14072738803E+03  0.00000000000E+00 0.  1.
         21    1    1    2  503  501  0.71313883750E+02  0.45437603082E+02  0.52650581144E+03  0.53325286241E+03  0.00000000000E+00 0.  1.
         21    1    1    2  504  502 -0.51277393272E+02  0.40019924093E+02  0.57492126008E+03  0.57858916398E+03  0.00000000000E+00 0. -1.
         21    1    1    2  505  504 -0.55453518774E+02 -0.47792982888E+02  0.73183599476E+03  0.73548839909E+03  0.00000000000E+00 0. -1.
         21    1    1    2  506  503  0.35417028296E+02 -0.37664544287E+02 -0.12869537340E+03  0.13869204347E+03  0.00000000000E+00 0.  1.
<scales pt_clust_3="14000.00000" pt_clust_4="51.76482" pt_clust_5="77.00450" pt_clust_6="51.70091"></scales>
<clustering>
<clus scale="   51.701">  2  6  1 -1</clus>
<clus scale="   51.765">  2  4  1 -1</clus>
<clus scale="   77.004">  1  5  2 -1</clus>
<clus scale="   77.004">  1  3  2 -1</clus>
</clustering>
</event>
<event>
 6    0  0.8777103E+002  0.1497130E+03  0.7546771E-02  0.1200826E+00
         21   -1    0    0  503  501  0.00000000000E+00  0.00000000000E+00  0.31523549367E+04  0.31523549367E+04  0.00000000000E+00 0.  1.
         21   -1    0    0  506  502 -0.00000000000E+00 -0.00000000000E+00 -0.90642481159E+02  0.90642481159E+02  0.00000000000E+00 0. -1.
         21    1    1    2  503  505 -0.11098682162E+03 -0.10785268878E+03  0.18165134222E+04  0.18230938785E+04  0.00000000000E+00 0.  1.
         21    1    1    2  504  501 -0.18276328236E+02  0.30657835389E+02  0.63218864655E+03  0.63319539786E+03  0.00000000000E+00 0.  1.
         21    1    1    2  505  502  0.24854310489E+02 -0.26820085933E+02 -0.74814008536E+02  0.83271781730E+02  0.00000000000E+00 0. -1.
         21    1    1    2  506  504  0.10440883936E+03  0.10401493932E+03  0.68782439540E+03  0.70343635977E+03  0.00000000000E+00 0.  1.
<scales pt_clust_3="14000.00000" pt_clust_4="35.69211" pt_clust_5="36.50716" pt_clust_6="149.71303"></scales>
<clustering>
<clus scale="   35.692">  1  4  2 -1</clus>
<clus scale="   36.507">  2  5  1 -1</clus>
<clus scale="  149.713">  2  6  1 -1</clus>
<clus scale="   35.692">  1  3  2 -1</clus>
</clustering>
</event>
<event>
 6    0  0.8777103E+002  0.1090857E+03  0.7546771E-02  0.1262272E+00
         21   -1    0    0  506  501  0.00000000000E+00  0.00000000000E+00  0.44273819550E+02  0.44273819550E+02  0.00000000000E+00 0.  1.
         21   -1    0    0  504  502 -0.00000000000E+00 -0.00000000000E+00 -0.16663040667E+04  0.16663040667E+04  0.00000000000E+00 0. -1.
         21    1    1    2  503  505  0.10882466421E+03 -0.23152567456E+02 -0.32291916523E+03  0.34154887819E+03  0.00000000000E+00 0.  1.
         21    1    1    2  504  503 -0.81547161590E+02  0.76908876985E+02 -0.11907070276E+04  0.11959716303E+04  0.00000000000E+00 0. -1.
         21    1    1    2  505  501  0.28445433344E+02 -0.97539947470E+01  0.12724811960E+02  0.32652778305E+02  0.00000000000E+00 0.  1.
         21    1    1    2  506  502 -0.55722935962E+02 -0.44002314783E+02 -0.12112886624E+03  0.14040459941E+03  0.00000000000E+00 0.  1.
<scales pt_clust_3="109.08570" pt_clust_4="14000.00000" pt_clust_5="30.07130" pt_clust_6="64.72504"></scales>
<clustering>
<clus scale="   30.071">  1  5  2 -1</clus>
<clus scale="   64.725">  1  6  2 -1</clus>
<clus scale="  109.086">  1  3  2 -1</clus>
<clus scale="   30.071">  1  3  2 -1</clus>
</clustering>
</event>
<event>
 6    0  0.8777103E+002  0.1335912E+03  0.7546771E-02  0.1222222E+00
         21   -1    0    0  506  501  0.00000000000E+00  0.00000000000E+00  0.19744823573E+03  0.19744823573E+03  0.00000000000E+00 0.  1.
         21   -1    0    0  505  502 -0.00000000000E+00 -0.00000000000E+00 -0.18922986460E+03  0.18922986460E+03  0.00000000000E+00 0.  1.
         21    1    1    2  503  501  0.59097103422E+02 -0.11880510277E+03 -0.61383646073E+00  0.13269324351E+03  0.00000000000E+00 0.  1.
         21    1    1    2  504  502 -0.19443400447E+02  0.67986716598E+02  0.71666606373E+02  0.10067940169E+03  0.00000000000E+00 0.  1.
         21    1    1    2  505  503 -0.54172547196E+02 -0.31190354922E+01 -0.78375570952E+02  0.95326404392E+02  0.00000000000E+00 0.  1.
         21    1    1    2  506  504  0.14518844222E+02  0.53937421665E+02  0.15541172172E+02  0.57979050751E+02  0.00000000000E+00 0. -1.
<scales pt_clust_3="123.16274" pt_clust_4="45.98986" pt_clust_5="54.26226" pt_clust_6="45.98986"></scales>
<clustering>
<clus scale="   45.990">  4  6 -1 -1</clus>
<clus scale="   54.262">  2  5  1 -1</clus>
<clus scale="  123.163">  2  3  1 -1</clus>
<clus scale="  133.591">  1  3  2 -1</clus>
</clustering>
</event>
<event>
 6    0  0.8777103E+002  0.7790479E+02  0.7546771E-02  0.1335105E+00
         21   -1    0    0  505  501  0.00000000000E+00  0.00000000000E+00  0.39787391602E+03  0.39787391602E+03  0.00000000000E+00 0. -1.
         21   -1    0    0  504  502 -0.00000000000E+00 -0.00000000000E+00 -0.15876377369E+03  0.15876377369E+03  0.00000000000E+00 0. -1.
         21    1    1    2  503  501  0.98208977944E+02 -0.53341215077E+02  0.63098681225E+02  0.12834224615E+03  0.00000000000E+00 0. -1.
         21    1    1    2  504  506 -0.33118286018E+02 -0.23403742191E+02 -0.10258545055E+03  0.11031015675E+03  0.00000000000E+00 0. -1.
         21    1    1    2  505  502 -0.13336622845E+02  0.57495352324E+02  0.24785677723E+03  0.25478728985E+03  0.00000000000E+00 0. -1.
         21    1    1    2  506  503 -0.51754069082E+02  0.19249604944E+02  0.30740134418E+02  0.63197996971E+02  0.00000000000E+00 0.  1.
<scales pt_clust_3="77.90479" pt_clust_4="40.55313" pt_clust_5="58.06075" pt_clust_6="14000.00000"></scales>
<clustering>
<clus scale="   40.553">  2  4  1 -1</clus>
<clus scale="   58.061">  1  5  2 -1</clus>
<clus scale="   77.905">  1  3  2 -1</clus>
<clus scale="   58.061">  1  3  2 -1</clus>
</clustering>
</event>
<event>
 6    0  0.8777103E+002  0.1226894E+03  0.7546771E-02  0.1238725E+00
         21   -1    0    0  505  501  0.00000000000E+00  0.00000000000E+00  0.21622158839E+04  0.21622158839E+04  0.00000000000E+00 0.  1.
         21   -1    0    0  503  502 -0.00000000000E+00 -0.00000000000E+00 -0.58887945981E+03  0.58887945981E+03  0.00000000000E+00 0.  1.
         21    1    1    2  503  506 -0.39506619029E+02 -0.85428816465E+01 -0.55692745320E+03  0.55839228317E+03  0.00000000000E+00 0.  1.
         21    1    1    2  504  501  0.18403324653E+02  0.26946227354E+02  0.16443807940E+04  0.16447045258E+04  0.00000000000E+00 0.  1.
         21    1    1    2  505  502 -0.11103223313E+03  0.25322333536E+02  0.23306898738E+03  0.25940418318E+03  0.00000000000E+00 0.  1.
         21    1    1    2  506  504  0.13213552751E+03 -0.43725679244E+02  0.25281409590E+03  0.28859435154E+03  0.00000000000E+00 0.  1.
<scales pt_clust_3="40.38623" pt_clust_4="32.63099" pt_clust_5="14000.00000" pt_clust_6="122.68936"></scales>
<clustering>
<clus scale="   32.631">  1  4  2 -1</clus>
<clus scale="   40.386">  2  3  1 -1</clus>
<clus scale="  122.689">  2  6  1 -1</clus>
<clus scale="   32.631">  1  3  2 -1</clus>
</clustering>
</event>
<event>
 6    0  0.8777103E+002  0.1350614E+03  0.7546771E-02  0.1220133E+00
         21   -1    0    0  506  501  0.00000000000E+00  0.00000000000E+00  0.25614488435E+03  0.25614488435E+03  0.00000000000E+00 0.  1.
         21   -1    0    0  503  502 -0.00000000000E+00 -0.00000000000E+00 -0.18557808743E+03  0.18557808743E+03  0.00000000000E+00 0.  1.
         21    1    1    2  503  501 -0.44814626586E+02 -0.10704467358E+03 -0.10348802916E+03  0.15548853680E+03  0.00000000000E+00 0.  1.
         21    1    1    2  504  502  0.73876821381E+02  0.16264382076E+02  0.70824486918E+02  0.10362636155E+03  0.00000000000E+00 0.  1.
         21    1    1    2  505  504  0.38236045017E+02  0.65446289939E+02  0.35026533940E+02  0.83498922659E+02  0.00000000000E+00 0.  1.
         21    1    1    2  506  505 -0.67298239812E+02  0.25334001567E+02  0.68203805222E+02  0.99109150757E+02  0.00000000000E+00 0.  1.
<scales pt_clust_3="116.94474" pt_clust_4="67.50109" pt_clust_5="67.50109" pt_clust_6="71.90872"></scales>
<clustering>
<clus scale="   67.501">  4  5 -1 -1</clus>
<clus scale="   71.909">  1  6  2 -1</clus>
<clus scale="  116.945">  2  3  1 -1</clus>
<clus scale="   71.909">  1  3  2 -1</clus>
</clustering>
</event>
<event>
 6    0  0.2663412E+003  0.8910766E+02  0.7546771E-02  0.1305027E+00
         21   -1    0    0  506  501  0.00000000000E+00  0.00000000000E+00  0.18902587638E+04  0.18902587638E+04  0.00000000000E+00 0. -1.
         21   -1    0    0  504  502 -0.00000000000E+00 -0.00000000000E+00 -0.42290957502E+03  0.42290957502E+03  0.00000000000E+00 0.  1.
         21    1    1    2  503  502 -0.41919248143E+01 -0.40400100831E+02  0.18589950750E+03  0.19028496333E+03  0.00000000000E+00 0.  1.
         21    1    1    2  504  505  0.37387351823E+02  0.58235608624E+02 -0.41419335130E+03  0.41993491454E+03  0.00000000000E+00 0.  1.
         21    1    1    2  505  501  0.31748018080E+02  0.48925722421E+02  0.89672487735E+03  0.89861959061E+03  0.00000000000E+00 0. -1.
         21    1    1    2  506  503 -0.64943445089E+02 -0.66761230215E+02  0.79891815519E+03  0.80432887031E+03  0.00000000000E+00 0. -1.
<scales pt_clust_3="36.93139" pt_clust_4="69.37273" pt_clust_5="58.32378" pt_clust_6="36.93139"></scales>
<clustering>
<clus scale="   36.931">  3  6 -1 -1</clus>
<clus scale="   58.324">  1  5  2 -1</clus>
<clus scale="   69.373">  2  4  1 -1</clus>
<clus scale="   58.324">  1  3  2 -1</clus>
</clustering>
</event>
<event>
 6    0  0.8777103E+002  0.9154181E+02  0.7546771E-02  0.1299160E+00
         21   -1    0    0  506  501  0.00000000000E+00  0.00000000000E+00  0.67223238697E+03  0.67223238697E+03  0.00000000000E+00 0.  1.
         21   -1    0    0  505  502 -0.00000000000E+00 -0.00000000000E+00 -0.55687420320E+03  0.55687420320E+03  0.00000000000E+00 0. -1.
         21    1    1    2  503  501  0.53046340860E+02 -0.18334991999E+02  0.61992508085E+03  0.62246059480E+03  0.00000000000E+00 0.  1.
         21    1    1    2  504  502  0.47607273192E+02 -0.80644060288E+02 -0.14156990305E+03  0.16974084473E+03  0.00000000000E+00 0. -1.
         21    1    1    2  505  503 -0.93942185136E+02  0.29936819997E+02 -0.35337632417E+03  0.36687351203E+03  0.00000000000E+00 0. -1.
         21    1    1    2  506  504 -0.67114289159E+01  0.69042232290E+02 -0.96206698620E+01  0.70031638609E+02  0.00000000000E+00 0. -1.
<scales pt_clust_3="56.12563" pt_clust_4="91.54181" pt_clust_5="14000.00000" pt_clust_6="63.20945"></scales>
<clustering>
<clus scale="   56.126">  1  3  2 -1</clus>
<clus scale="   63.209">  1  6  2 -1</clus>
<clus scale="   91.542">  1  4  2 -1</clus>
<clus scale="   56.126">  1  3  2 -1</clus>
</clustering>
</event>
<event>
 6    0  0.8777103E+002  0.8593123E+02  0.7546771E-02  0.1313015E+00
         21   -1    0    0  505  501  0.00000000000E+00  0.00000000000E+00  0.56256522508E+02  0.56256522508E+02  0.00000000000E+00 0. -1.
         21   -1    0    0  504  502 -0.00000000000E+00 -0.00000000000E+00 -0.35370172802E+03  0.35370172802E+03  0.00000000000E+00 0. -1.
         21    1    1    2  503  501  0.78128819909E+02  0.82784997220E+02 -0.85852683201E+02  0.14257682658E+03  0.00000000000E+00 0. -1.
         21    1    1    2  504  506 -0.36544502561E+02 -0.87086294951E+01 -0.12574496907E+03  0.13123695417E+03  0.00000000000E+00 0. -1.
         21    1    1    2  505  502  0.10119668569E+02 -0.35528880207E+02 -0.13766180982E+02  0.39423555897E+02  0.00000000000E+00 0. -1.
         21    1    1    2  506  503 -0.51703985918E+02 -0.38547487517E+02 -0.72081372258E+02  0.96720913872E+02  0.00000000000E+00 0. -1.
<scales pt_clust_3="14000.00000" pt_clust_4="37.53875" pt_clust_5="36.94197" pt_clust_6="85.93123"></scales>
<clustering>
<clus scale="   36.942">  1  5  2 -1</clus>
<clus scale="   37.539">  2  4  1 -1</clus>
<clus scale="   85.931">  2  6  1 -1</clus>
<clus scale="   36.942">  1  3  2 -1</clus>
</clustering>
</event>
<event>
 6    0  0.8777103E+002  0.7120760E+02  0.7546771E-02  0.1356034E+00
         21   -1    0    0  504  501  0.00000000000E+00  0.00000000000E+00  0.13134086936E+03  0.13134086936E+03  0.00000000000E+00 0. -1.
         21   -1    0    0  506  502 -0.00000000000E+00 -0.00000000000E+00 -0.19064245325E+04  0.19064245325E+04  0.00000000000E+00 0.  1.
         21    1    1    2  503  501  0.16622414237E+02  0.67489136992E+02  0.75823091237E+02  0.10286024223E+03  0.00000000000E+00 0. -1.
         21    1    1    2  504  502 -0.34660978885E+02  0.49753378744E+02 -0.17566537404E+04  0.17576999589E+04  0.00000000000E+00 0.  1.
         21    1    1    2  505  503  0.39128054467E+02 -0.86357550100E+02 -0.24284795263E+02  0.97869210616E+02  0.00000000000E+00 0. -1.
         21    1    1    2  506  505 -0.21089489819E+02 -0.30884965636E+02 -0.69968218718E+02  0.79335990028E+02  0.00000000000E+00 0.  1.
<scales pt_clust_3="71.20760" pt_clust_4="58.46498" pt_clust_5="14000.00000" pt_clust_6="37.39850"></scales>
<clustering>
<clus scale="   37.398">  2  6  1 -1</clus>
<clus scale="   58.465">  2  4  1 -1</clus>
<clus scale="   71.208">  1  3  2 -1</clus>
<clus scale="   71.208">  1  3  2 -1</clus>
</clustering>
</event>
<event>
 6    0  0.8777103E+002  0.5473983E+02  0.7546771E-02  0.1421333E+00
         21   -1    0    0  503  501  0.00000000000E+00  0.00000000000E+00  0.41621872806E+03  0.41621872806E+03  0.00000000000E+00 0. -1.
         21   -1    0    0  504  502 -0.00000000000E+00 -0.00000000000E+00 -0.41219447356E+03  0.41219447356E+03  0.00000000000E+00 0. -1.
         21    1    1    2  503  506  0.44472873130E+02 -0.89872066885E+01  0.71103204308E+02  0.84346143903E+02  0.00000000000E+00 0. -1.
         21    1    1    2  504  505  0.89918711613E+02  0.22771220548E+01 -0.40921762933E+01  0.90040579128E+02  0.00000000000E+00 0. -1.
         21    1    1    2  505  501 -0.82036692104E+02 -0.26021931100E+01  0.28777786910E+03  0.29925389255E+03  0.00000000000E+00 0. -1.
         21    1    1    2  506  502 -0.52354892638E+02  0.93122777436E+01 -0.35076464261E+03  0.35477258604E+03  0.00000000000E+00 0. -1.
<scales pt_clust_3="45.37187" pt_clust_4="54.73983" pt_clust_5="44.69882" pt_clust_6="14000.00000"></scales>
<clustering>
<clus scale="   45.372">  1  3  2 -1</clus>
<clus scale="   44.699">  1  5  2 -1</clus>
<clus scale="   54.740">  1  4  2 -1</clus>
<clus scale="   45.372">  1  3  2 -1</clus>
</clustering>
</event>
<event>
 6    0  0.8777103E+002  0.9981600E+02  0.7546771E-02  0.1280683E+00
         21   -1    0    0  503  501  0.00000000000E+00  0.00000000000E+00  0.24286956023E+03  0.24286956023E+03  0.00000000000E+00 0. -1.
         21   -1    0    0  505  502 -0.00000000000E+00 -0.00000000000E+00 -0.46824019728E+03  0.46824019728E+03  0.00000000000E+00 0. -1.
         21    1    1    2  503  504  0.45662536606E+02 -0.23245492081E+02  0.10345896330E+02  0.52272915761E+02  0.00000000000E+00 0. -1.
         21    1    1    2  504  502  0.30621943926E+02 -0.49571722548E+02 -0.38028428131E+03  0.38472222933E+03  0.00000000000E+00 0. -1.
         21    1    1    2  505  506 -0.13786910818E+03  0.29386626220E+02  0.42483963069E+02  0.14722890990E+03  0.00000000000E+00 0. -1.
         21    1    1    2  506  501  0.61584627649E+02  0.43430588409E+02  0.10208378487E+03  0.12688570252E+03  0.00000000000E+00 0. -1.
<scales pt_clust_3="51.23885" pt_clust_4="58.72693" pt_clust_5="14000.00000" pt_clust_6="99.81600"></scales>
<clustering>
<clus scale="   51.239">  1  3  2 -1</clus>
<clus scale="   58.727">  2  4  1 -1</clus>
<clus scale="   99.816">  1  6  2 -1</clus>
<clus scale="   51.239">  1  3  2 -1</clus>
</clustering>
</event>
<event>
 6    0  0.8777103E+002  0.1504271E+03  0.7546771E-02  0.1199949E+00
         21   -1    0    0  506  501  0.00000000000E+00  0.00000000000E+00  0.15675597039E+04  0.15675597039E+04  0.00000000000E+00 0.  1.
         21   -1    0    0  505  502 -0.00000000000E+00 -0.00000000000E+00 -0.10706750983E+04  0.10706750983E+04  0.00000000000E+00 0.  1.
         21    1    1    2  503  504  0.13823864122E+03  0.11030237010E+03  0.13896614774E+04  0.14008695716E+04  0.00000000000E+00 0.  1.
         21    1    1    2  504  502 -0.53475496698E+02 -0.99193556507E+02 -0.40875851513E+03  0.42400768164E+03  0.00000000000E+00 0.  1.
         21    1    1    2  505  501 -0.54090929407E+02 -0.65712585333E+01 -0.64607133119E+03  0.64836500142E+03  0.00000000000E+00 0.  1.
         21    1    1    2  506  503 -0.30672215115E+02 -0.45375550617E+01  0.16205297449E+03  0.16499254749E+03  0.00000000000E+00 0. -1.
<scales pt_clust_3="14000.00000" pt_clust_4="150.42715" pt_clust_5="54.51394" pt_clust_6="31.00603"></scales>
<clustering>
<clus scale="   31.006">  1  6  2 -1</clus>
<clus scale="   54.514">  2  5  1 -1</clus>
<clus scale="  150.427">  2  4  1 -1</clus>
<clus scale="   31.006">  1  3  2 -1</clus>
</clustering>
</event>
<event>
 6    0  0.8777103E+002  0.1054300E+03  0.7546771E-02  0.1269275E+00
         21   -1    0    0  503  501  0.00000000000E+00  0.00000000000E+00  0.13081182302E+04  0.13081182302E+04  0.00000000000E+00 0. -1.
         21   -1    0    0  506  502 -0.00000000000E+00 -0.00000000000E+00 -0.34856227545E+03  0.34856227545E+03  0.00000000000E+00 0. -1.
         21    1    1    2  503  505  0.75420697163E+02  0.34003703910E+02  0.38079348812E+03  0.38967706378E+03  0.00000000000E+00 0. -1.
         21    1    1    2  504  501 -0.79437369614E+02 -0.12236103148E+03  0.89222617106E+03  0.90407414410E+03  0.00000000000E+00 0. -1.
         21    1    1    2  505  502 -0.34157407099E+01  0.58779483886E+02 -0.12204341077E+02  0.60130199996E+02  0.00000000000E+00 0.  1.
         21    1    1    2  506  504  0.74324131612E+01  0.29577843683E+02 -0.30125936335E+03  0.30279909777E+03  0.00000000000E+00 0. -1.
<scales pt_clust_3="105.43000" pt_clust_4="14000.00000" pt_clust_5="81.80260" pt_clust_6="30.49737"></scales>
<clustering>
<clus scale="   30.497">  2  6  1 -1</clus>
<clus scale="   81.803">  2  5  1 -1</clus>
<clus scale="  105.430">  1  3  2 -1</clus>
<clus scale="  105.430">  1  3  2 -1</clus>
</clustering>
</event>
<event>
 6    0  0.8777103E+002  0.1133143E+03  0.7546771E-02  0.1254552E+00
         21   -1    0    0  505  501  0.00000000000E+00  0.00000000000E+00  0.52752130987E+03  0.52752130987E+03  0.00000000000E+00 0. -1.
         21   -1    0    0  506  502 -0.00000000000E+00 -0.00000000000E+00 -0.15358022410E+03  0.15358022410E+03  0.00000000000E+00 0. -1.
         21    1    1    2  503  501  0.30172373867E+02 -0.83901301304E+01  0.27670127748E+03  0.27846788574E+03  0.00000000000E+00 0. -1.
         21    1    1    2  504  503 -0.84738187792E+02 -0.32622281877E+02  0.15910258993E+03  0.18318954083E+03  0.00000000000E+00 0. -1.
         21    1    1    2  505  502 -0.27085692742E+02 -0.44389887160E+02  0.38270837641E+02  0.64565887643E+02  0.00000000000E+00 0. -1.
         21    1    1    2  506  504  0.81651506667E+02  0.85402299168E+02 -0.10013361929E+03  0.15487821976E+03  0.00000000000E+00 0. -1.
<scales pt_clust_3="31.31719" pt_clust_4="113.31435" pt_clust_5="50.62204" pt_clust_6="14000.00000"></scales>
<clustering>
<clus scale="   31.317">  1  3  2 -1</clus>
<clus scale="   50.622">  1  5  2 -1</clus>
<clus scale="  113.314">  1  4  2 -1</clus>
<clus scale="   31.317">  1  3  2 -1</clus>
</clustering>
</event>
<event>
 6    0  0.8777103E+002  0.1481834E+03  0.7546771E-02  0.1202723E+00
         21   -1    0    0  504  501  0.00000000000E+00  0.00000000000E+00  0.27881894245E+03  0.27881894245E+03  0.00000000000E+00 0.  1.
         21   -1    0    0  505  502 -0.00000000000E+00 -0.00000000000E+00 -0.81537605329E+03  0.81537605329E+03  0.00000000000E+00 0.  1.
         21    1    1    2  503  502 -0.77489560011E+02 -0.46025986154E+02 -0.52307021349E+03  0.53077817547E+03  0.00000000000E+00 0.  1.
         21    1    1    2  504  506 -0.33158643348E+02 -0.20859216685E+01  0.15411625033E+02  0.36624648586E+02  0.00000000000E+00 0.  1.
         21    1    1    2  505  501  0.16640235010E+03  0.51491064400E+02  0.21492786858E+03  0.27664970726E+03  0.00000000000E+00 0.  1.
         21    1    1    2  506  503 -0.55754146745E+02 -0.33791565772E+01 -0.24382639097E+03  0.25014246443E+03  0.00000000000E+00 0.  1.
<scales pt_clust_3="30.61029" pt_clust_4="33.22419" pt_clust_5="142.99097" pt_clust_6="30.61029"></scales>
<clustering>
<clus scale="   30.610">  3  6 -1 -1</clus>
<clus scale="   33.224">  1  4  2 -1</clus>
<clus scale="  142.991">  1  5  2 -1</clus>
<clus scale="   33.224">  1  3  2 -1</clus>
</clustering>
</event>
<event>
 6    0  0.8777103E+002  0.1068499E+03  0.7546771E-02  0.1266517E+00
         21   -1    0    0  506  501  0.00000000000E+00  0.00000000000E+00  0.11728706834E+04  0.11728706834E+04  0.00000000000E+00 0.  1.
         21   -1    0    0  504  502 -0.00000000000E+00 -0.00000000000E+00 -0.49716658051E+02  0.49716658051E+02  0.00000000000E+00 0.  1.
         21    1    1    2  503  505  0.48974810570E+02  0.85652084077E+02  0.38440055488E+03  0.39686093051E+03  0.00000000000E+00 0.  1.
         21    1    1    2  504  503 -0.77008236360E+02 -0.77133384752E+02  0.35841633938E+02  0.11473643813E+03  0.00000000000E+00 0.  1.
         21    1    1    2  505  501 -0.30155387480E+02  0.17855839568E+02  0.13418079720E+03  0.13868188324E+03  0.00000000000E+00 0. -1.
         21    1    1    2  506  502  0.58188813270E+02 -0.26374538893E+02  0.56873103937E+03  0.57230808961E+03  0.00000000000E+00 0.  1.
<scales pt_clust_3="14000.00000" pt_clust_4="106.84993" pt_clust_5="35.04538" pt_clust_6="44.75979"></scales>
<clustering>
<clus scale="   35.045">  1  5  2 -1</clus>
<clus scale="   44.760">  1  6  2 -1</clus>
<clus scale="  106.850">  2  4  1 -1</clus>
<clus scale="   35.045">  1  3  2 -1</clus>
</clustering>
</event>
<event>
 6    0  0.8777103E+002  0.1196446E+03  0.7546771E-02  0.1243684E+00
         21   -1    0    0  505  501  0.00000000000E+00  0.00000000000E+00  0.15844587068E+04  0.15844587068E+04  0.00000000000E+00 0. -1.
         21   -1    0    0  501  502 -0.00000000000E+00 -0.00000000000E+00 -0.45589133753E+02  0.45589133753E+02  0.00000000000E+00 0. -1.
         21    1    1    2  503  504  0.38484135454E+02 -0.18058233472E+02  0.16614008287E+02  0.45641579170E+02  0.00000000000E+00 0. -1.
         21    1    1    2  504  502 -0.12467514339E+01 -0.34839725198E+02  0.40113776477E+00  0.34864333530E+02  0.00000000000E+00 0. -1.
         21    1    1    2  505  506  0.86174246599E+02 -0.60914972684E+02  0.87161326317E+03  0.87797853915E+03  0.00000000000E+00 0. -1.
         21    1    1    2  506  503 -0.12341163062E+03  0.11381293135E+03  0.65024116387E+03  0.67156338875E+03  0.00000000000E+00 0. -1.
<scales pt_clust_3="52.15738" pt_clust_4="34.86203" pt_clust_5="119.64461" pt_clust_6="14000.00000"></scales>
<clustering>
<clus scale="   34.862">  2  4  1 -1</clus>
<clus scale="   52.157">  2  3  1 -1</clus>
<clus scale="  119.645">  1  5  2 -1</clus>
<clus scale="  119.645">  1  3  2 -1</clus>
</clustering>
</event>
<event>
 6    0  0.8777103E+002  0.1298051E+03  0.7546771E-02  0.1227745E+00
         21   -1    0    0  503  501  0.00000000000E+00  0.00000000000E+00  0.12016364691E+04  0.12016364691E+04  0.00000000000E+00 0. -1.
         21   -1    0    0  505  502 -0.00000000000E+00 -0.00000000000E+00 -0.42187704002E+03  0.42187704002E+03  0.00000000000E+00 0.  1.
         21    1    1    2  503  506 -0.84858266592E+02 -0.71402201894E+02  0.30544657965E+03  0.32495663228E+03  0.00000000000E+00 0. -1.
         21    1    1    2  504  501  0.17272287046E+03 -0.19700570376E+02  0.69532360073E+03  0.71672603704E+03  0.00000000000E+00 0. -1.
         21    1    1    2  505  504 -0.32091206019E+02  0.72120178030E+02  0.16945841300E+03  0.18694202127E+03  0.00000000000E+00 0. -1.
         21    1    1    2  506  502 -0.55773397847E+02  0.18982594240E+02 -0.39046916426E+03  0.39488881856E+03  0.00000000000E+00 0.  1.
<scales pt_clust_3="129.80507" pt_clust_4="14000.00000" pt_clust_5="91.83577" pt_clust_6="58.91528"></scales>
<clustering>
<clus scale="   58.915">  2  6  1 -1</clus>
<clus scale="   91.836">  2  5  1 -1</clus>
<clus scale="  129.805">  1  3  2 -1</clus>
<clus scale="  129.805">  1  3  2 -1</clus>
</clustering>
</event>
<event>
 6    0  0.8777103E+002  0.6316279E+02  0.7546771E-02  0.1385019E+00
         21   -1    0    0  506  501  0.00000000000E+00  0.00000000000E+00  0.25226579535E+03  0.25226579535E+03  0.00000000000E+00 0.  1.
         21   -1    0    0  504  502 -0.00000000000E+00 -0.00000000000E+00 -0.94940423118E+03  0.94940423118E+03  0.00000000000E+00 0. -1.
         21    1    1    2  503  502  0.11725416580E+02 -0.32547119448E+02 -0.41430926158E+03  0.41575108492E+03  0.00000000000E+00 0. -1.
         21    1    1    2  504  505  0.51243530581E+02  0.28869978458E+02 -0.50751838631E+03  0.51091514709E+03  0.00000000000E+00 0. -1.
         21    1    1    2  505  501  0.34697305884E+02  0.39577278965E+02  0.96275296790E+02  0.10972327382E+03  0.00000000000E+00 0.  1.
         21    1    1    2  506  503 -0.97666253045E+02 -0.35900137975E+02  0.12841391527E+03  0.16528052071E+03  0.00000000000E+00 0.  1.
<scales pt_clust_3="34.59480" pt_clust_4="14000.00000" pt_clust_5="52.42399" pt_clust_6="63.16279"></scales>
<clustering>
<clus scale="   34.595">  2  3  1 -1</clus>
<clus scale="   52.424">  1  5  2 -1</clus>
<clus scale="   63.163">  1  6  2 -1</clus>
<clus scale="   52.424">  1  3  2 -1</clus>
</clustering>
</event>
<event>
 6    0  0.8777103E+002  0.1422346E+03  0.7546771E-02  0.1210353E+00
         21   -1    0    0  503  501  0.00000000000E+00  0.00000000000E+00  0.40280432648E+03  0.40280432648E+03  0.00000000000E+00 0. -1.
         21   -1    0    0  501  502 -0.00000000000E+00 -0.00000000000E+00 -0.17986016295E+04  0.17986016295E+04  0.00000000000E+00 0.  1.
         21    1    1    2  503  506 -0.90449934036E+01 -0.31851167993E+02  0.24001785845E+03  0.24229090198E+03  0.00000000000E+00 0. -1.
         21    1    1    2  504  505  0.62013910927E+02  0.90410693845E+02 -0.11174351074E+04  0.11228005334E+04  0.00000000000E+00 0.  1.
         21    1    1    2  505  502  0.53727024172E+02 -0.45846509417E+01 -0.65359418367E+03  0.65581473686E+03  0.00000000000E+00 0. -1.
         21    1    1    2  506  504 -0.10669594170E+03 -0.53974874910E+02  0.13521412954E+03  0.18049978372E+03  0.00000000000E+00 0. -1.
<scales pt_clust_3="33.11055" pt_clust_4="14000.00000" pt_clust_5="53.87944" pt_clust_6="142.23462"></scales>
<clustering>
<clus scale="   33.111">  1  3  2 -1</clus>
<clus scale="   53.879">  2  5  1 -1</clus>
<clus scale="  142.235">  1  6  2 -1</clus>
<clus scale="   33.111">  1  3  2 -1</clus>
</clustering>
</event>
<event>
 6    0  0.8777103E+002  0.1592739E+03  0.7546771E-02  0.1189519E+00
         21   -1    0    0  505  501  0.00000000000E+00  0.00000000000E+00  0.25584845207E+03  0.25584845207E+03  0.00000000000E+00 0.  1.
         21   -1    0    0  506  502 -0.00000000000E+00 -0.00000000000E+00 -0.13782556091E+04  0.13782556091E+04  0.00000000000E+00 0. -1.
         21    1    1    2  503  501 -0.12190881190E+03 -0.36100898307E+02  0.18507758007E+02  0.12848179008E+03  0.00000000000E+00 0.  1.
         21    1    1    2  504  502 -0.53006630220E+02  0.48663788337E+02 -0.12179548834E+04  0.12200786717E+04  0.00000000000E+00 0. -1.
         21    1    1    2  505  504  0.19059950614E+03  0.14430001505E+02  0.12494895328E+03  0.22836076197E+03  0.00000000000E+00 0.  1.
         21    1    1    2  506  503 -0.15684064018E+02 -0.26992891535E+02 -0.47908984872E+02  0.57182837364E+02  0.00000000000E+00 0. -1.
<scales pt_clust_3="14000.00000" pt_clust_4="71.51991" pt_clust_5="159.27389" pt_clust_6="31.21868"></scales>
<clustering>
<clus scale="   31.219">  2  6  1 -1</clus>
<clus scale="   71.520">  2  4  1 -1</clus>
<clus scale="  159.274">  1  5  2 -1</clus>
<clus scale="  159.274">  1  3  2 -1</clus>
</clustering>
</event>
<event>
 6    0  0.8777103E+002  0.6852688E+02  0.7546771E-02  0.1365175E+00
         21   -1    0    0  503  501  0.00000000000E+00  0.00000000000E+00  0.28128580753E+03  0.28128580753E+03  0.00000000000E+00 0. -1.
         21   -1    0    0  504  502 -0.00000000000E+00 -0.00000000000E+00 -0.31127904209E+03  0.31127904209E+03  0.00000000000E+00 0. -1.
         21    1    1    2  503  506 -0.23442689774E+02 -0.68858700983E+02  0.36724932221E+02  0.81484974392E+02  0.00000000000E+00 0. -1.
         21    1    1    2  504  505  0.92268258533E+02  0.93983076591E+01  0.41807564144E+02  0.10173314179E+03  0.00000000000E+00 0. -1.
         21    1    1    2  505  501 -0.35638569954E+02  0.53363419094E+01  0.14426898526E+03  0.14870146039E+03  0.00000000000E+00 0.  1.
         21    1    1    2  506  502 -0.33186998806E+02  0.54124051415E+02 -0.25279471618E+03  0.26064527304E+03  0.00000000000E+00 0. -1.
<scales pt_clust_3="14000.00000" pt_clust_4="68.52688" pt_clust_5="36.03587" pt_clust_6="64.16847"></scales>
<clustering>
<clus scale="   36.036">  1  5  2 -1</clus>
<clus scale="   64.168">  2  6  1 -1</clus>
<clus scale="   68.527">  1  4  2 -1</clus>
<clus scale="   36.036">  1  3  2 -1</clus>
</clustering>
</event>
<event>
 6    0  0.8777103E+002  0.1008020E+03  0.7546771E-02  0.1278618E+00
         21   -1    0    0  506  501  0.00000000000E+00  0.00000000000E+00  0.12808586474E+03  0.12808586474E+03  0.00000000000E+00 0.  1.
         21   -1    0    0  505  502 -0.00000000000E+00 -0.00000000000E+00 -0.53940573969E+03  0.53940573969E+03  0.00000000000E+00 0.  1.
         21    1    1    2  503  501 -0.47656884993E+01  0.91250934718E+02  0.62934656077E+02  0.11095141193E+03  0.00000000000E+00 0.  1.
         21    1    1    2  504  502  0.44108926822E+02 -0.16830092005E+02 -0.37778001324E+03  0.38071851522E+03  0.00000000000E+00 0.  1.
         21    1    1    2  505  503 -0.67988135694E+02 -0.87373661754E+02 -0.92241207019E+02  0.14410060248E+03  0.00000000000E+00 0.  1.
         21    1    1    2  506  504  0.28644897371E+02  0.12952819042E+02 -0.42333107574E+01  0.31721074800E+02  0.00000000000E+00 0.  1.
<scales pt_clust_3="100.80201" pt_clust_4="47.49612" pt_clust_5="14000.00000" pt_clust_6="31.43733"></scales>
<clustering>
<clus scale="   31.437">  1  6  2 -1</clus>
<clus scale="   47.496">  2  4  1 -1</clus>
<clus scale="  100.802">  1  3  2 -1</clus>
<clus scale="   31.437">  1  3  2 -1</clus>
</clustering>
</event>
<event>
 6    0  0.8777103E+002  0.1170197E+03  0.7546771E-02  0.1248096E+00
         21   -1    0    0  506  501  0.00000000000E+00  0.00000000000E+00  0.40596816257E+03  0.40596816257E+03  0.00000000000E+00 0. -1.
         21   -1    0    0  503  502 -0.00000000000E+00 -0.00000000000E+00 -0.32545503807E+03  0.32545503807E+03  0.00000000000E+00 0. -1.
         21    1    1    2  503  505  0.90240140001E+01  0.13773065182E+03  0.45482220113E+02  0.14532652072E+03  0.00000000000E+00 0. -1.
         21    1    1    2  504  502  0.11460532901E+02 -0.30520831261E+02 -0.21139849395E+03  0.21389761148E+03  0.00000000000E+00 0. -1.
         21    1    1    2  505  501  0.96922204772E+02 -0.47271329315E+02  0.20897853038E+03  0.23516062280E+03  0.00000000000E+00 0. -1.
         21    1    1    2  506  504 -0.11740675167E+03 -0.59938491242E+02  0.37450867959E+02  0.13703844563E+03  0.00000000000E+00 0. -1.
<scales pt_clust_3="14000.00000" pt_clust_4="32.60161" pt_clust_5="110.61408" pt_clust_6="117.01968"></scales>
<clustering>
<clus scale="   32.602">  2  4  1 -1</clus>
<clus scale="  110.614">  1  5  2 -1</clus>
<clus scale="  117.020">  1  6  2 -1</clus>
<clus scale="  110.614">  1  3  2 -1</clus>
</clustering>
</event>
<event>
 6    0  0.8777103E+002  0.8712651E+02  0.7546771E-02  0.1309963E+00
         21   -1    0    0  503  501  0.00000000000E+00  0.00000000000E+00  0.88481910215E+03  0.88481910215E+03  0.00000000000E+00 0. -1.
         21   -1    0    0  504  502 -0.00000000000E+00 -0.00000000000E+00 -0.76452871355E+02  0.76452871355E+02  0.00000000000E+00 0. -1.
         21    1    1    2  503  506  0.22978417204E+02 -0.59983820837E+02  0.65558917588E+03  0.65872849790E+03  0.00000000000E+00 0. -1.
         21    1    1    2  504  501 -0.43437121985E+01 -0.35821358003E+02  0.53677470857E+01  0.36480820078E+02  0.00000000000E+00 0. -1.
         21    1    1    2  505  502  0.81168333276E+02  0.59274539925E+02  0.24258770672E+02  0.10339370080E+03  0.00000000000E+00 0. -1.
         21    1    1    2  506  505 -0.99803038281E+02  0.36530638914E+02  0.12315053716E+03  0.16266895473E+03  0.00000000000E+00 0. -1.
<scales pt_clust_3="65.05809" pt_clust_4="36.08376" pt_clust_5="87.12651" pt_clust_6="14000.00000"></scales>
<clustering>
<clus scale="   36.084">  2  4  1 -1</clus>
<clus scale="   65.058">  1  3  2 -1</clus>
<clus scale="   87.127">  2  5  1 -1</clus>
<clus scale="   65.058">  1  3  2 -1</clus>
</clustering>
</event>
<event>
 6    0  0.8777103E+002  0.9593857E+02  0.7546771E-02  0.1289076E+00
         21   -1    0    0  503  501  0.00000000000E+00  0.00000000000E+00  0.18570624074E+03  0.18570624074E+03  0.00000000000E+00 0. -1.
         21   -1    0    0  505  502 -0.00000000000E+00 -0.00000000000E+00 -0.17723001477E+03  0.17723001477E+03  0.00000000000E+00 0. -1.
         21    1    1    2  503  506 -0.10552669998E+03 -0.61462913280E+01 -0.50002365797E+02  0.11693544326E+03  0.00000000000E+00 0. -1.
         21    1    1    2  504  501  0.74339541030E+02  0.63434636704E+02  0.10257938600E+03  0.14167868904E+03  0.00000000000E+00 0. -1.
         21    1    1    2  505  504  0.36388831239E+02 -0.80244906672E+01 -0.39918881594E+02  0.54608209979E+02  0.00000000000E+00 0.  1.
         21    1    1    2  506  502 -0.52016722888E+01 -0.49263854709E+02 -0.41819126414E+01  0.49713913231E+02  0.00000000000E+00 0. -1.
<scales pt_clust_3="95.93857" pt_clust_4="14000.00000" pt_clust_5="37.26311" pt_clust_6="50.98158"></scales>
<clustering>
<clus scale="   37.263">  2  5  1 -1</clus>
<clus scale="   50.982">  2  6  1 -1</clus>
<clus scale="   95.939">  2  3  1 -1</clus>
<clus scale="   95.939">  1  3  2 -1</clus>
</clustering>
</event>
<event>
 6    0  0.8777103E+002  0.1425120E+03  0.7546771E-02  0.1209988E+00
         21   -1    0    0  505  501  0.00000000000E+00  0.00000000000E+00  0.21243953495E+03  0.21243953495E+03  0.00000000000E+00 0.  1.
         21   -1    0    0  506  502 -0.00000000000E+00 -0.00000000000E+00 -0.45288924951E+03  0.45288924951E+03  0.00000000000E+00 0.  1.
         21    1    1    2  503  502  0.74615975353E+02  0.14061986676E+03  0.49900949156E+02  0.16682804151E+03  0.00000000000E+00 0.  1.
         21    1    1    2  504  501 -0.25836453577E+02 -0.10810151780E+03 -0.86901957945E+02  0.14108653649E+03  0.00000000000E+00 0.  1.
         21    1    1    2  505  503  0.41298092626E+02 -0.16137468410E+02  0.62225703251E+02  0.76406730635E+02  0.00000000000E+00 0.  1.
         21    1    1    2  506  504 -0.90077614402E+02 -0.16380880554E+02 -0.26567440902E+03  0.28100747583E+03  0.00000000000E+00 0.  1.
<scales pt_clust_3="142.51201" pt_clust_4="14000.00000" pt_clust_5="44.33904" pt_clust_6="89.54181"></scales>
<clustering>
<clus scale="   44.339">  1  5  2 -1</clus>
<clus scale="   89.542">  2  6  1 -1</clus>
<clus scale="  142.512">  1  3  2 -1</clus>
<clus scale="   44.339">  1  3  2 -1</clus>
</clustering>
</event>
<event>
 6    0  0.8777103E+002  0.9042202E+02  0.7546771E-02  0.1301833E+00
         21   -1    0    0  503  501  0.00000000000E+00  0.00000000000E+00  0.14171124738E+04  0.14171124738E+04  0.00000000000E+00 0.  1.
         21   -1    0    0  506  502 -0.00000000000E+00 -0.00000000000E+00 -0.26586128678E+02  0.26586128678E+02  0.00000000000E+00 0.  1.
         21    1    1    2  503  505 -0.36954082607E+01 -0.10946761367E+03  0.91660199035E+03  0.92312297296E+03  0.00000000000E+00 0.  1.
         21    1    1    2  504  501  0.13640599587E+02  0.27770108192E+02  0.23522304804E+03  0.23724908260E+03  0.00000000000E+00 0. -1.
         21    1    1    2  505  502 -0.53955114337E+02  0.91674374185E+02  0.18264134750E+03  0.21136037249E+03  0.00000000000E+00 0.  1.
         21    1    1    2  506  504  0.44009923011E+02 -0.99768687046E+01  0.56059959244E+02  0.71966174436E+02  0.00000000000E+00 0.  1.
<scales pt_clust_3="14000.00000" pt_clust_4="30.93937" pt_clust_5="90.42202" pt_clust_6="45.54417"></scales>
<clustering>
<clus scale="   30.939">  1  4  2 -1</clus>
<clus scale="   45.544">  2  6  1 -1</clus>
<clus scale="   90.422">  2  5  1 -1</clus>
<clus scale="   30.939">  1  3  2 -1</clus>
</clustering>
</event>
<event>
 6    0  0.8777103E+002  0.1301960E+03  0.7546771E-02  0.1227165E+00
         21   -1    0    0  503  501  0.00000000000E+00  0.00000000000E+00  0.38907196240E+03  0.38907196240E+03  0.00000000000E+00 0. -1.
         21   -1    0    0  504  502 -0.00000000000E+00 -0.00000000000E+00 -0.20697741110E+03  0.20697741110E+03  0.00000000000E+00 0. -1.
         21    1    1    2  503  505  0.21469878470E+01  0.93539663310E+02  0.57392900143E+02  0.10976439840E+03  0.00000000000E+00 0. -1.
         21    1    1    2  504  506  0.44487241221E+01  0.39053417156E+02 -0.20371225300E+02  0.44271292709E+02  0.00000000000E+00 0. -1.
         21    1    1    2  505  502 -0.13293202657E+03 -0.28001539218E+02 -0.84415592333E+02  0.15994062059E+03  0.00000000000E+00 0. -1.
         21    1    1    2  506  501  0.12633631460E+03 -0.10459154125E+03  0.22948846879E+03  0.28207306180E+03  0.00000000000E+00 0. -1.
<scales pt_clust_3="99.43467" pt_clust_4="39.30599" pt_clust_5="14000.00000" pt_clust_6="130.19599"></scales>
<clustering>
<clus scale="   39.306">  2  4  1 -1</clus>
<clus scale="   99.435">  1  3  2 -1</clus>
<clus scale="  130.196">  1  6  2 -1</clus>
<clus scale="   99.435">  1  3  2 -1</clus>
</clustering>
</event>
<event>
 6    0  0.8777103E+002  0.7158454E+02  0.7546771E-02  0.1354786E+00
         21   -1    0    0  505  501  0.00000000000E+00  0.00000000000E+00  0.12833854895E+04  0.12833854895E+04  0.00000000000E+00 0. -1.
         21   -1    0    0  504  502 -0.00000000000E+00 -0.00000000000E+00 -0.20869462965E+03  0.20869462965E+03  0.00000000000E+00 0. -1.
         21    1    1    2  503  502  0.23229958485E+02  0.61389612221E+02 -0.15452745428E+03  0.16788999252E+03  0.00000000000E+00 0. -1.
         21    1    1    2  504  506  0.20670695363E+02 -0.92382254301E+02  0.63407988705E+02  0.11394003505E+03  0.00000000000E+00 0. -1.
         21    1    1    2  505  503 -0.86499907481E+02  0.98221481275E+01  0.65582490662E+02  0.10899436531E+03  0.00000000000E+00 0.  1.
         21    1    1    2  506  501  0.42599253633E+02  0.21170493953E+02  0.11002278348E+04  0.11012557263E+04  0.00000000000E+00 0. -1.
<scales pt_clust_3="66.92404" pt_clust_4="14000.00000" pt_clust_5="71.58454" pt_clust_6="47.56980"></scales>
<clustering>
<clus scale="   47.570">  1  6  2 -1</clus>
<clus scale="   66.924">  2  3  1 -1</clus>
<clus scale="   71.585">  1  5  2 -1</clus>
<clus scale="   47.570">  1  3  2 -1</clus>
</clustering>
</event>
<event>
 6    0  0.8777103E+002  0.7455709E+02  0.7546771E-02  0.1345248E+00
         21   -1    0    0  506  501  0.00000000000E+00  0.00000000000E+00  0.66188090013E+03  0.66188090013E+03  0.00000000000E+00 0.  1.
         21   -1    0    0  504  502 -0.00000000000E+00 -0.00000000000E+00 -0.43234469799E+03  0.43234469799E+03  0.00000000000E+00 0.  1.
         21    1    1    2  503  505  0.64230106410E+02 -0.35681967137E+02  0.15000434268E+03  0.16703296732E+03  0.00000000000E+00 0.  1.
         21    1    1    2  504  503 -0.26804634166E+02  0.26900112826E+02 -0.40352392332E+03  0.40530687284E+03  0.00000000000E+00 0.  1.
         21    1    1    2  505  501 -0.69261225156E+01 -0.72969866127E+02  0.37929979572E+03  0.38631710753E+03  0.00000000000E+00 0.  1.
         21    1    1    2  506  502 -0.30499349729E+02  0.81751720438E+02  0.10375598706E+03  0.13556865043E+03  0.00000000000E+00 0.  1.
<scales pt_clust_3="62.43236" pt_clust_4="37.97505" pt_clust_5="14000.00000" pt_clust_6="74.55709"></scales>
<clustering>
<clus scale="   37.975">  2  4  1 -1</clus>
<clus scale="   62.432">  2  3  1 -1</clus>
<clus scale="   74.557">  2  6  1 -1</clus>
<clus scale="   74.557">  1  3  2 -1</clus>
</clustering>
</event>
<event>
 6    0  0.8777103E+002  0.1280060E+03  0.7546771E-02  0.1230445E+00
         21   -1    0    0  506  501  0.00000000000E+00  0.00000000000E+00  0.27027866416E+03  0.27027866416E+03  0.00000000000E+00 0. -1.
         21   -1    0    0  504  502 -0.00000000000E+00 -0.00000000000E+00 -0.25825895954E+03  0.25825895954E+03  0.00000000000E+00 0. -1.
         21    1    1    2  503  505  0.84179304171E+01  0.63903604905E+02  0.12479025770E+03  0.14045333990E+03  0.00000000000E+00 0. -1.
         21    1    1    2  504  503  0.52702129815E+01  0.29705009367E+02 -0.19806356959E+02  0.36089534526E+02  0.00000000000E+00 0. -1.
         21    1    1    2  505  501  0.49714399008E+02  0.35633735536E+02  0.96373702445E+02  0.11414541208E+03  0.00000000000E+00 0. -1.
         21    1    1    2  506  502 -0.63402542406E+02 -0.12924234981E+03 -0.18933789856E+03  0.23784933718E+03  0.00000000000E+00 0. -1.
<scales pt_clust_3="49.80852" pt_clust_4="30.16890" pt_clust_5="49.80852" pt_clust_6="117.32673"></scales>
<clustering>
<clus scale="   30.169">  2  4  1 -1</clus>
<clus scale="   49.809">  3  5 -1 -1</clus>
<clus scale="  117.327">  2  6  1 -1</clus>
<clus scale="  128.006">  1  3  2 -1</clus>
</clustering>
</event>
<event>
 6    0  0.8777103E+002  0.5713296E+02  0.7546771E-02  0.1410273E+00
         21   -1    0    0  506  501  0.00000000000E+00  0.00000000000E+00  0.22031607927E+03  0.22031607927E+03  0.00000000000E+00 0.  1.
         21   -1    0    0  505  502 -0.00000000000E+00 -0.00000000000E+00 -0.19563248588E+04  0.19563248588E+04  0.00000000000E+00 0.  1.
         21    1    1    2  503  504  0.94411471147E+02  0.15375826755E+01 -0.82280403443E+01  0.94781805704E+02  0.00000000000E+00 0.  1.
         21    1    1    2  504  501 -0.53992327670E+02 -0.15979259231E+01  0.16509669426E+03  0.17370850086E+03  0.00000000000E+00 0.  1.
         21    1    1    2  505  503  0.16830443537E+02  0.32361062074E+02 -0.17552734334E+04  0.17556523939E+04  0.00000000000E+00 0.  1.
         21    1    1    2  506  502 -0.57249587014E+02 -0.32300718826E+02 -0.13760400003E+03  0.15249823761E+03  0.00000000000E+00 0.  1.
<scales pt_clust_3="57.13296" pt_clust_4="14000.00000" pt_clust_5="36.47605" pt_clust_6="45.97154"></scales>
<clustering>
<clus scale="   36.476">  2  5  1 -1</clus>
<clus scale="   45.972">  2  6  1 -1</clus>
<clus scale="   57.133">  2  3  1 -1</clus>
<clus scale="   57.133">  1  3  2 -1</clus>
</clustering>
</event>
<event>
 6    0  0.8777103E+002  0.9905593E+02  0.7546771E-02  0.1282294E+00
         21   -1    0    0  502  501  0.00000000000E+00  0.00000000000E+00  0.98692473861E+02  0.98692473861E+02  0.00000000000E+00 0. -1.
         21   -1    0    0  506  502 -0.00000000000E+00 -0.00000000000E+00 -0.33085954228E+03  0.33085954228E+03  0.00000000000E+00 0. -1.
         21    1    1    2  503  504 -0.44879844883E+02  0.41842448308E+01 -0.26397129134E+00  0.45075248888E+02  0.00000000000E+00 0. -1.
         21    1    1    2  504  501  0.15970065793E+02 -0.85946565860E+02 -0.22768711410E+01  0.87447351743E+02  0.00000000000E+00 0. -1.
         21    1    1    2  505  503 -0.36987159846E+02  0.55393147046E+02 -0.11431203713E+02  0.67580493868E+02  0.00000000000E+00 0. -1.
         21    1    1    2  506  505  0.65896938935E+02  0.26369173984E+02 -0.21819502228E+03  0.22944892164E+03  0.00000000000E+00 0. -1.
<scales pt_clust_3="39.47670" pt_clust_4="86.65570" pt_clust_5="39.47670" pt_clust_6="70.97704"></scales>
<clustering>
<clus scale="   39.477">  3  5 -1 -1</clus>
<clus scale="   70.977">  2  6  1 -1</clus>
<clus scale="   86.656">  1  4  2 -1</clus>
<clus scale="   86.656">  1  3  2 -1</clus>
</clustering>
</event>
<event>
 6    0  0.8777103E+002  0.1122045E+03  0.7546771E-02  0.1256541E+00
         21   -1    0    0  505  501  0.00000000000E+00  0.00000000000E+00  0.63252433323E+03  0.63252433323E+03  0.00000000000E+00 0. -1.
         21   -1    0    0  503  502 -0.00000000000E+00 -0.00000000000E+00 -0.35288775583E+03  0.35288775583E+03  0.00000000000E+00 0. -1.
         21    1    1    2  503  504  0.29511752812E+02 -0.26154765019E+02 -0.10666579811E+03  0.11372162404E+03  0.00000000000E+00 0. -1.
         21    1    1    2  504  501  0.85553712525E+02  0.61051591052E+02  0.60772758083E+03  0.61674917673E+03  0.00000000000E+00 0. -1.
         21    1    1    2  505  506 -0.75036068676E+02 -0.10225073735E+02 -0.10570732146E+03  0.13003461672E+03  0.00000000000E+00 0. -1.
         21    1    1    2  506  502 -0.40029396661E+02 -0.24671752299E+02 -0.11571788386E+03  0.12490667158E+03  0.00000000000E+00 0. -1.
<scales pt_clust_3="39.43368" pt_clust_4="105.26999" pt_clust_5="30.60063" pt_clust_6="30.60063"></scales>
<clustering>
<clus scale="   30.601">  5  6 -1 -1</clus>
<clus scale="   39.434">  2  3  1 -1</clus>
<clus scale="  105.270">  1  4  2 -1</clus>
<clus scale="  105.270">  1  3  2 -1</clus>
</clustering>
</event>
<event>
 6    0  0.8777103E+002  0.9921175E+02  0.7546771E-02  0.1281962E+00
         21   -1    0    0  506  501  0.00000000000E+00  0.00000000000E+00  0.33862532006E+03  0.33862532006E+03  0.00000000000E+00 0. -1.
         21   -1    0    0  504  502 -0.00000000000E+00 -0.00000000000E+00 -0.90072148878E+02  0.90072148878E+02  0.00000000000E+00 0. -1.
         21    1    1    2  503  505 -0.65040233543E+02 -0.41389941611E+02  0.39663372699E+02  0.86697995246E+02  0.00000000000E+00 0. -1.
         21    1    1    2  504  501  0.14466572159E+03 -0.41599497840E+01  0.92253365695E+02  0.17162796878E+03  0.00000000000E+00 0. -1.
         21    1    1    2  505  502 -0.23284171068E+02  0.27050564935E+02 -0.40325728932E+01  0.35918620934E+02  0.00000000000E+00 0.  1.
         21    1    1    2  506  503 -0.56341316977E+02  0.18499326460E+02  0.12066900568E+03  0.13445288398E+03  0.00000000000E+00 0. -1.
<scales pt_clust_3="14000.00000" pt_clust_4="99.21175" pt_clust_5="35.69154" pt_clust_6="62.33179"></scales>
<clustering>
<clus scale="   35.692">  2  5  1 -1</clus>
<clus scale="   62.332">  1  6  2 -1</clus>
<clus scale="   99.212">  1  4  2 -1</clus>
<clus scale="   62.332">  1  3  2 -1</clus>
</clustering>
</event>
<event>
 6    0  0.8777103E+002  0.7914811E+02  0.7546771E-02  0.1331487E+00
         21   -1    0    0  506  501  0.00000000000E+00  0.00000000000E+00  0.84222003522E+03  0.84222003522E+03  0.00000000000E+00 0. -1.
         21   -1    0    0  503  502 -0.00000000000E+00 -0.00000000000E+00 -0.11510557895E+04  0.11510557895E+04  0.00000000000E+00 0.  1.
         21    1    1    2  503  504 -0.87977311723E+02 -0.42760759489E+02 -0.66693736900E+03  0.67407265491E+03  0.00000000000E+00 0.  1.
         21    1    1    2  504  501  0.76625755655E+02  0.41066643137E+02 -0.42316095626E+02  0.96688301036E+02  0.00000000000E+00 0.  1.
         21    1    1    2  505  502  0.11223974708E+02  0.35105320533E+02 -0.40987745766E+03  0.41153115488E+03  0.00000000000E+00 0.  1.
         21    1    1    2  506  505  0.12758135958E+00 -0.33411204180E+02  0.81029516803E+03  0.81098371388E+03  0.00000000000E+00 0. -1.
<scales pt_clust_3="79.14811" pt_clust_4="14000.00000" pt_clust_5="36.02475" pt_clust_6="33.41145"></scales>
<clustering>
<clus scale="   33.411">  1  6  2 -1</clus>
<clus scale="   36.025">  2  5  1 -1</clus>
<clus scale="   79.148">  2  3  1 -1</clus>
<clus scale="   33.411">  1  3  2 -1</clus>
</clustering>
</event>
<event>
 6    0  0.8777103E+002  0.9755989E+02  0.7546771E-02  0.1285512E+00
         21   -1    0    0  506  501  0.00000000000E+00  0.00000000000E+00  0.26177554617E+03  0.26177554617E+03  0.00000000000E+00 0. -1.
         21   -1    0    0  504  502 -0.00000000000E+00 -0.00000000000E+00 -0.56362554871E+03  0.56362554871E+03  0.00000000000E+00 0. -1.
         21    1    1    2  503  502  0.30120653341E+02  0.11647691714E+02 -0.53086895685E+02  0.62138079899E+02  0.00000000000E+00 0. -1.
         21    1    1    2  504  501  0.47389862371E+02 -0.13327582107E+03  0.19522422201E+03  0.24108243486E+03  0.00000000000E+00 0. -1.
         21    1    1    2  505  503 -0.85604645277E+02  0.65561452627E+02 -0.45225614964E+03  0.46493234374E+03  0.00000000000E+00 0. -1.
         21    1    1    2  506  505  0.80941295655E+01  0.56066676727E+02  0.82688207799E+01  0.57248236390E+02  0.00000000000E+00 0.  1.
<scales pt_clust_3="32.29431" pt_clust_4="97.55989" pt_clust_5="14000.00000" pt_clust_6="57.43031"></scales>
<clustering>
<clus scale="   32.294">  2  3  1 -1</clus>
<clus scale="   57.430">  1  6  2 -1</clus>
<clus scale="   97.560">  1  4  2 -1</clus>
<clus scale="   57.430">  1  3  2 -1</clus>
</clustering>
</event>
<event>
 6    0  0.8777103E+002  0.8879534E+02  0.7546771E-02  0.1305795E+00
         21   -1    0    0  504  501  0.00000000000E+00  0.00000000000E+00  0.15504342613E+03  0.15504342613E+03  0.00000000000E+00 0. -1.
         21   -1    0    0  506  502 -0.00000000000E+00 -0.00000000000E+00 -0.16907318146E+03  0.16907318146E+03  0.00000000000E+00 0. -1.
         21    1    1    2  503  502 -0.63291662398E+02  0.59845422513E+02 -0.50228272208E+02  0.10054943289E+03  0.00000000000E+00 0. -1.
         21    1    1    2  504  503  0.17528533837E+02  0.54833956417E+02  0.22818150438E+02  0.61924795230E+02  0.00000000000E+00 0. -1.
         21    1    1    2  505  501  0.12067330270E+02 -0.12241815426E+03  0.24294388372E+02  0.12538756820E+03  0.00000000000E+00 0. -1.
         21    1    1    2  506  505  0.33695798290E+02  0.77387753320E+01 -0.10914021929E+02  0.36254811277E+02  0.00000000000E+00 0. -1.
<scales pt_clust_3="88.79534" pt_clust_4="60.07017" pt_clust_5="14000.00000" pt_clust_6="34.57305"></scales>
<clustering>
<clus scale="   34.573">  2  6  1 -1</clus>
<clus scale="   60.070">  1  4  2 -1</clus>
<clus scale="   88.795">  2  3  1 -1</clus>
<clus scale="   60.070">  1  3  2 -1</clus>
</clustering>
</event>
<event>
 6    0  0.8777103E+002  0.8868905E+02  0.7546771E-02  0.1306058E+00
         21   -1    0    0  505  501  0.00000000000E+00  0.00000000000E+00  0.28345431152E+03  0.28345431152E+03  0.00000000000E+00 0.  1.
         21   -1    0    0  504  502 -0.00000000000E+00 -0.00000000000E+00 -0.11766069725E+03  0.11766069725E+03  0.00000000000E+00 0.  1.
         21    1    1    2  503  502  0.42156970994E+02 -0.30853536409E+02  0.13410718702E+02  0.53935130374E+02  0.00000000000E+00 0.  1.
         21    1    1    2  504  506 -0.20066448986E+02 -0.38662066427E+02  0.12530311424E+02  0.45325781402E+02  0.00000000000E+00 0.  1.
         21    1    1    2  505  503  0.69590234064E+02  0.62936580807E+02 -0.38333700963E+02  0.10135722229E+03  0.00000000000E+00 0.  1.
         21    1    1    2  506  501 -0.91680756072E+02  0.65790220287E+01  0.17818628511E+03  0.20049687471E+03  0.00000000000E+00 0.  1.
<scales pt_clust_3="54.25821" pt_clust_4="43.55936" pt_clust_5="88.68905" pt_clust_6="14000.00000"></scales>
<clustering>
<clus scale="   43.559">  2  4  1 -1</clus>
<clus scale="   54.258">  2  3  1 -1</clus>
<clus scale="   88.689">  2  5  1 -1</clus>
<clus scale="   88.689">  1  3  2 -1</clus>
</clustering>
</event>
<event>
 6    0  0.8777103E+002  0.1032059E+03  0.7546771E-02  0.1273695E+00
         21   -1    0    0  505  501  0.00000000000E+00  0.00000000000E+00  0.41743537819E+02  0.41743537819E+02  0.00000000000E+00 0. -1.
         21   -1    0    0  503  502 -0.00000000000E+00 -0.00000000000E+00 -0.21635413699E+04  0.21635413699E+04  0.00000000000E+00 0.  1.
         21    1    1    2  503  506 -0.10205826628E+03 -0.27557444678E+02 -0.43109535426E+03  0.44386766827E+03  0.00000000000E+00 0.  1.
         21    1    1    2  504  502  0.50578073360E+02 -0.16219243765E+02 -0.11465483522E+04  0.11477779965E+04  0.00000000000E+00 0.  1.
         21    1    1    2  505  504 -0.30393543263E+02 -0.29842567896E+02  0.13916347174E+02  0.44810836294E+02  0.00000000000E+00 0. -1.
         21    1    1    2  506  501  0.81873736186E+02  0.73619256339E+02 -0.55807047285E+03  0.56882840668E+03  0.00000000000E+00 0.  1.
<scales pt_clust_3="103.20595" pt_clust_4="52.16386" pt_clust_5="42.59514" pt_clust_6="14000.00000"></scales>
<clustering>
<clus scale="   42.595">  1  5  2 -1</clus>
<clus scale="   52.164">  2  4  1 -1</clus>
<clus scale="  103.206">  2  3  1 -1</clus>
<clus scale="   42.595">  1  3  2 -1</clus>
</clustering>
</event>
<event>
 6    0  0.8777103E+002  0.9779515E+02  0.7546771E-02  0.1285002E+00
         21   -1    0    0  506  501  0.00000000000E+00  0.00000000000E+00  0.13015875892E+03  0.13015875892E+03  0.00000000000E+00 0.  1.
         21   -1    0    0  503  502 -0.00000000000E+00 -0.00000000000E+00 -0.19686938178E+04  0.19686938178E+04  0.00000000000E+00 0.  1.
         21    1    1    2  503  501 -0.23782079159E+02 -0.11821631819E+03 -0.42137650301E+03  0.43829081951E+03  0.00000000000E+00 0.  1.
         21    1    1    2  504  502 -0.30446752744E+02  0.28638599756E+02 -0.15013758121E+04  0.15019575571E+04  0.00000000000E+00 0.  1.
         21    1    1    2  505  504  0.36803796877E+02  0.52581486268E+02 -0.88296425399E+00  0.64188096939E+02  0.00000000000E+00 0.  1.
         21    1    1    2  506  505  0.17425035026E+02  0.36996232162E+02  0.85100220406E+02  0.94416103250E+02  0.00000000000E+00 0.  1.
<scales pt_clust_3="14000.00000" pt_clust_4="41.89126" pt_clust_5="97.79515" pt_clust_6="40.89441"></scales>
<clustering>
<clus scale="   40.894">  1  6  2 -1</clus>
<clus scale="   41.891">  2  4  1 -1</clus>
<clus scale="   97.795">  1  5  2 -1</clus>
<clus scale="   40.894">  1  3  2 -1</clus>
</clustering>
</event>
<event>
 6    0  0.8777103E+002  0.8959066E+02  0.7546771E-02  0.1303846E+00
         21   -1    0    0  503  501  0.00000000000E+00  0.00000000000E+00  0.21995746829E+04  0.21995746829E+04  0.00000000000E+00 0. -1.
         21   -1    0    0  506  502 -0.00000000000E+00 -0.00000000000E+00 -0.67330412014E+02  0.67330412014E+02  0.00000000000E+00 0. -1.
         21    1    1    2  503  504  0.72682946239E+02  0.51787942083E+02  0.18435651598E+04  0.18457240585E+04  0.00000000000E+00 0. -1.
         21    1    1    2  504  505 -0.22081108922E+02  0.57350404607E+02  0.25343465913E+03  0.26077916084E+03  0.00000000000E+00 0.  1.
         21    1    1    2  505  502  0.16586555926E+02 -0.33008719841E+02 -0.22832071773E+02  0.43428020039E+02  0.00000000000E+00 0. -1.
         21    1    1    2  506  501 -0.67188393243E+02 -0.76129626849E+02  0.58076523688E+02  0.11697385552E+03  0.00000000000E+00 0. -1.
<scales pt_clust_3="89.59066" pt_clust_4="57.50820" pt_clust_5="36.94170" pt_clust_6="14000.00000"></scales>
<clustering>
<clus scale="   36.942">  2  5  1 -1</clus>
<clus scale="   57.508">  2  4  1 -1</clus>
<clus scale="   89.591">  1  3  2 -1</clus>
<clus scale="   89.591">  1  3  2 -1</clus>
</clustering>
</event>
<event>
 6    0  0.8777103E+002  0.1050864E+03  0.7546771E-02  0.1269950E+00
         21   -1    0    0  506  501  0.00000000000E+00  0.00000000000E+00  0.23535122539E+03  0.23535122539E+03  0.00000000000E+00 0. -1.
         21   -1    0    0  504  502 -0.00000000000E+00 -0.00000000000E+00 -0.96936482257E+02  0.96936482257E+02  0.00000000000E+00 0. -1.
         21    1    1    2  503  502  0.24239967038E+02 -0.20494306165E+02 -0.16758750225E+01  0.31786807708E+02  0.00000000000E+00 0.  1.
         21    1    1    2  504  505  0.73315398657E+02  0.78407314286E+02  0.12319608783E+02  0.10804918960E+03  0.00000000000E+00 0. -1.
         21    1    1    2  505  501 -0.36528971794E+02  0.22345074679E+02  0.43593918788E+02  0.61107265509E+02  0.00000000000E+00 0. -1.
         21    1    1    2  506  503 -0.61026393900E+02 -0.80258082800E+02  0.84177090586E+02  0.13134444483E+03  0.00000000000E+00 0. -1.
<scales pt_clust_3="31.74260" pt_clust_4="14000.00000" pt_clust_5="39.39970" pt_clust_6="105.08639"></scales>
<clustering>
<clus scale="   31.743">  2  3  1 -1</clus>
<clus scale="   39.400">  1  5  2 -1</clus>
<clus scale="  105.086">  1  6  2 -1</clus>
<clus scale="   39.400">  1  3  2 -1</clus>
</clustering>
</event>
<event>
 6    0  0.8777103E+002  0.1151799E+03  0.7546771E-02  0.1251267E+00
         21   -1    0    0  504  501  0.00000000000E+00  0.00000000000E+00  0.86858766941E+03  0.86858766941E+03  0.00000000000E+00 0.  1.
         21   -1    0    0  506  502 -0.00000000000E+00 -0.00000000000E+00 -0.16809257637E+03  0.16809257637E+03  0.00000000000E+00 0.  1.
         21    1    1    2  503  505  0.34708037952E+01  0.94057938703E+02 -0.33345094160E+02  0.99854081622E+02  0.00000000000E+00 0.  1.
         21    1    1    2  504  502 -0.69607794706E+02 -0.79191968245E+02  0.30627643546E+03  0.32391645193E+03  0.00000000000E+00 0.  1.
         21    1    1    2  505  501  0.48995345786E+02 -0.44496295013E+02  0.51488348922E+03  0.51911990104E+03  0.00000000000E+00 0.  1.
         21    1    1    2  506  503  0.17141645125E+02  0.29630324554E+02 -0.87319737476E+02  0.93789811193E+02  0.00000000000E+00 0.  1.
<scales pt_clust_3="14000.00000" pt_clust_4="115.17992" pt_clust_5="65.99387" pt_clust_6="34.23145"></scales>
<clustering>
<clus scale="   34.231">  2  6  1 -1</clus>
<clus scale="   65.994">  1  5  2 -1</clus>
<clus scale="  115.180">  1  4  2 -1</clus>
<clus scale="   65.994">  1  3  2 -1</clus>
</clustering>
</event>
<event>
 6    0  0.8777103E+002  0.8314441E+02  0.7546771E-02  0.1320358E+00
         21   -1    0    0  503  501  0.00000000000E+00  0.00000000000E+00  0.55447541550E+03  0.55447541550E+03  0.00000000000E+00 0.  1.
         21   -1    0    0  505  502 -0.00000000000E+00 -0.00000000000E+00 -0.16925692872E+04  0.16925692872E+04  0.00000000000E+00 0.  1.
         21    1    1    2  503  502  0.32131263972E+02  0.40028643371E+02 -0.16489935429E+04  0.16497922338E+04  0.00000000000E+00 0.  1.
         21    1    1    2  504  506  0.91722388224E+02 -0.26176822462E+02  0.23572542022E+03  0.25429254074E+03  0.00000000000E+00 0.  1.
         21    1    1    2  505  504 -0.97719317833E+02  0.12181965118E+01  0.39573134230E+02  0.10543520301E+03  0.00000000000E+00 0.  1.
         21    1    1    2  506  501 -0.26134334362E+02 -0.15070017421E+02  0.23560111669E+03  0.23752472512E+03  0.00000000000E+00 0.  1.
<scales pt_clust_3="51.29412" pt_clust_4="83.14441" pt_clust_5="14000.00000" pt_clust_6="30.16801"></scales>
<clustering>
<clus scale="   30.168">  1  6  2 -1</clus>
<clus scale="   51.294">  2  3  1 -1</clus>
<clus scale="   83.144">  1  4  2 -1</clus>
<clus scale="   30.168">  1  3  2 -1</clus>
</clustering>
</event>
<event>
 6    0  0.8777103E+002  0.3477946E+03  0.7546771E-02  0.1063524E+00
         21   -1    0    0  503  501  0.00000000000E+00  0.00000000000E+00  0.13855711103E+03  0.13855711103E+03  0.00000000000E+00 0. -1.
         21   -1    0    0  505  502 -0.00000000000E+00 -0.00000000000E+00 -0.16147196333E+04  0.16147196333E+04  0.00000000000E+00 0. -1.
         21    1    1    2  503  504 -0.16604117126E+03 -0.32731816414E+03 -0.24804490128E+03  0.44298208110E+03  0.00000000000E+00 0. -1.
         21    1    1    2  504  502  0.31532317223E+02 -0.92622690999E+01 -0.33136862258E+03  0.33299435534E+03  0.00000000000E+00 0. -1.
         21    1    1    2  505  506  0.28777418231E+02  0.41363871384E+02 -0.28963201218E+03  0.29398267319E+03  0.00000000000E+00 0. -1.
         21    1    1    2  506  501  0.10573143580E+03  0.29521656186E+03 -0.60711698625E+03  0.68331763470E+03  0.00000000000E+00 0. -1.
<scales pt_clust_3="347.79461" pt_clust_4="32.86452" pt_clust_5="53.23158" pt_clust_6="14000.00000"></scales>
<clustering>
<clus scale="   32.865">  2  4  1 -1</clus>
<clus scale="   53.232">  2  5  1 -1</clus>
<clus scale="  347.795">  1  3  2 -1</clus>
<clus scale="  347.795">  1  3  2 -1</clus>
</clustering>
</event>
<event>
 6    0  0.8777103E+002  0.3587136E+03  0.7546771E-02  0.1059094E+00
         21   -1    0    0  506  501  0.00000000000E+00  0.00000000000E+00  0.10555252262E+04  0.10555252262E+04  0.00000000000E+00 0. -1.
         21   -1    0    0  503  502 -0.00000000000E+00 -0.00000000000E+00 -0.22363512669E+03  0.22363512669E+03  0.00000000000E+00 0.  1.
         21    1    1    2  503  504  0.52842287237E+02  0.61658217729E+02  0.10203503603E+03  0.13040395589E+03  0.00000000000E+00 0.  1.
         21    1    1    2  504  505  0.27431882422E+03  0.61929466232E+02  0.11614796081E+03  0.30426374235E+03  0.00000000000E+00 0.  1.
         21    1    1    2  505  501 -0.31253425655E+03 -0.89734697697E+02  0.68832294205E+03  0.76126109191E+03  0.00000000000E+00 0. -1.
         21    1    1    2  506  502 -0.14626854899E+02 -0.33852986265E+02 -0.74615839340E+02  0.83231562785E+02  0.00000000000E+00 0.  1.
<scales pt_clust_3="74.32151" pt_clust_4="74.32151" pt_clust_5="331.13678" pt_clust_6="36.87777"></scales>
<clustering>
<clus scale="   36.878">  2  6  1 -1</clus>
<clus scale="   74.322">  3  4 -1 -1</clus>
<clus scale="  331.137">  1  5  2 -1</clus>
<clus scale="  331.137">  1  3  2 -1</clus>
</clustering>
</event>
<event>
 6    0  0.8777103E+002  0.6970935E+02  0.7546771E-02  0.1361084E+00
         21   -1    0    0  503  501  0.00000000000E+00  0.00000000000E+00  0.28555773164E+03  0.28555773164E+03  0.00000000000E+00 0. -1.
         21   -1    0    0  506  502 -0.00000000000E+00 -0.00000000000E+00 -0.15955422242E+03  0.15955422242E+03  0.00000000000E+00 0. -1.
         21    1    1    2  503  502  0.41842521558E+02 -0.42939498855E+02  0.12735359358E+02  0.61292630472E+02  0.00000000000E+00 0. -1.
         21    1    1    2  504  501 -0.67898235774E+02  0.28536047766E+02  0.18593896990E+03  0.19999444235E+03  0.00000000000E+00 0. -1.
         21    1    1    2  505  504  0.37702717003E+02  0.59753752653E+02  0.25455700032E+02  0.75099923367E+02  0.00000000000E+00 0. -1.
         21    1    1    2  506  505 -0.11647002786E+02 -0.45350301565E+02 -0.98126520067E+02  0.10872495788E+03  0.00000000000E+00 0. -1.
<scales pt_clust_3="14000.00000" pt_clust_4="69.70935" pt_clust_5="51.33785" pt_clust_6="46.82203"></scales>
<clustering>
<clus scale="   46.822">  2  6  1 -1</clus>
<clus scale="   51.338">  2  5  1 -1</clus>
<clus scale="   69.709">  1  4  2 -1</clus>
<clus scale="   69.709">  1  3  2 -1</clus>
</clustering>
</event>
<event>
 6    0  0.8777103E+002  0.2766586E+03  0.7546771E-02  0.1097528E+00
         21   -1    0    0  504  501  0.00000000000E+00  0.00000000000E+00  0.79698234175E+03  0.79698234175E+03  0.00000000000E+00 0. -1.
         21   -1    0    0  506  502 -0.00000000000E+00 -0.00000000000E+00 -0.22332752145E+04  0.22332752145E+04  0.00000000000E+00 0. -1.
         21    1    1    2  503  501 -0.20432811253E+02 -0.22510618664E+02  0.60528629689E+03  0.60604927929E+03  0.00000000000E+00 0. -1.
         21    1    1    2  504  505 -0.25434153541E+03 -0.43901009664E+02  0.25023332277E+02  0.25931271169E+03  0.00000000000E+00 0. -1.
         21    1    1    2  505  502 -0.81402997136E+01  0.31309064617E+02 -0.17008760623E+04  0.17011836766E+04  0.00000000000E+00 0. -1.
         21    1    1    2  506  503  0.28291464638E+03  0.35102563711E+02 -0.36572643957E+03  0.46371188869E+03  0.00000000000E+00 0. -1.
<scales pt_clust_3="30.40111" pt_clust_4="276.65863" pt_clust_5="32.33662" pt_clust_6="14000.00000"></scales>
<clustering>
<clus scale="   30.401">  1  3  2 -1</clus>
<clus scale="   32.337">  2  5  1 -1</clus>
<clus scale="  276.659">  1  4  2 -1</clus>
<clus scale="   30.401">  1  3  2 -1</clus>
</clustering>
</event>
<event>
 6    0  0.8777103E+002  0.1144510E+03  0.7546771E-02  0.1252542E+00
         21   -1    0    0  504  501  0.00000000000E+00  0.00000000000E+00  0.98861893679E+03  0.98861893679E+03  0.00000000000E+00 0. -1.
         21   -1    0    0  503  502 -0.00000000000E+00 -0.00000000000E+00 -0.18060331068E+03  0.18060331068E+03  0.00000000000E+00 0. -1.
         21    1    1    2  503  505 -0.31583383536E+02  0.35137258624E+02 -0.14168016523E+03  0.14934994570E+03  0.00000000000E+00 0. -1.
         21    1    1    2  504  506  0.14403118260E+03  0.33939529966E+02  0.72453499390E+03  0.73949160282E+03  0.00000000000E+00 0. -1.
         21    1    1    2  505  501 -0.23897153457E+02 -0.47274712291E+02  0.15933717555E+03  0.16791160733E+03  0.00000000000E+00 0. -1.
         21    1    1    2  506  502 -0.88550645611E+02 -0.21802076300E+02  0.65823621893E+02  0.11246909161E+03  0.00000000000E+00 0. -1.
<scales pt_clust_3="47.24550" pt_clust_4="114.45098" pt_clust_5="51.16457" pt_clust_6="14000.00000"></scales>
<clustering>
<clus scale="   47.245">  2  3  1 -1</clus>
<clus scale="   51.165">  1  5  2 -1</clus>
<clus scale="  114.451">  1  4  2 -1</clus>
<clus scale="   51.165">  1  3  2 -1</clus>
</clustering>
</event>
<event>
 6    0  0.8777103E+002  0.1422972E+03  0.7546771E-02  0.1210271E+00
         21   -1    0    0  504  501  0.00000000000E+00  0.00000000000E+00  0.13370835530E+04  0.13370835530E+04  0.00000000000E+00 0. -1.
         21   -1    0    0  505  502 -0.00000000000E+00 -0.00000000000E+00 -0.57659167032E+02  0.57659167032E+02  0.00000000000E+00 0. -1.
         21    1    1    2  503  501 -0.67550794760E+01  0.31787745178E+02  0.49088504371E+03  0.49195956946E+03  0.00000000000E+00 0. -1.
         21    1    1    2  504  506  0.26329429220E+02 -0.98964865728E+02  0.28345746936E+03  0.30138915114E+03  0.00000000000E+00 0. -1.
         21    1    1    2  505  503  0.10237029752E+02  0.18891895607E+03  0.37906979249E+03  0.42366151149E+03  0.00000000000E+00 0. -1.
         21    1    1    2  506  502 -0.29811379495E+02 -0.12174183552E+03  0.12601208042E+03  0.17773248795E+03  0.00000000000E+00 0.  1.
<scales pt_clust_3="32.49757" pt_clust_4="91.18620" pt_clust_5="14000.00000" pt_clust_6="142.29716"></scales>
<clustering>
<clus scale="   32.498">  1  3  2 -1</clus>
<clus scale="   91.186">  1  4  2 -1</clus>
<clus scale="  142.297">  2  6  1 -1</clus>
<clus scale="   32.498">  1  3  2 -1</clus>
</clustering>
</event>
<event>
 6    0  0.8777103E+002  0.8889812E+02  0.7546771E-02  0.1305542E+00
         21   -1    0    0  505  501  0.00000000000E+00  0.00000000000E+00  0.80082951704E+02  0.80082951704E+02  0.00000000000E+00 0.  1.
         21   -1    0    0  503  502 -0.00000000000E+00 -0.00000000000E+00 -0.47141973115E+03  0.47141973115E+03  0.00000000000E+00 0. -1.
         21    1    1    2  503  501 -0.68923862264E+02  0.83185927791E+02 -0.10712728567E+03  0.15214024026E+03  0.00000000000E+00 0. -1.
         21    1    1    2  504  506  0.40152648375E+02 -0.28575662894E+02 -0.27469852715E+02  0.56421595950E+02  0.00000000000E+00 0. -1.
         21    1    1    2  505  504  0.30348243542E+02  0.34372796417E+02  0.21624195840E+02  0.50696260862E+02  0.00000000000E+00 0.  1.
         21    1    1    2  506  502 -0.15770296539E+01 -0.88983061314E+02 -0.27836383690E+03  0.29224458578E+03  0.00000000000E+00 0. -1.
<scales pt_clust_3="88.89812" pt_clust_4="53.03735" pt_clust_5="45.85308" pt_clust_6="14000.00000"></scales>
<clustering>
<clus scale="   45.853">  1  5  2 -1</clus>
<clus scale="   53.037">  1  4  2 -1</clus>
<clus scale="   88.898">  1  3  2 -1</clus>
<clus scale="   45.853">  1  3  2 -1</clus>
</clustering>
</event>
<event>
 6    0  0.8777103E+002  0.8324870E+02  0.7546771E-02  0.1320077E+00
         21   -1    0    0  506  501  0.00000000000E+00  0.00000000000E+00  0.39109657713E+03  0.39109657713E+03  0.00000000000E+00 0.  1.
         21   -1    0    0  503  502 -0.00000000000E+00 -0.00000000000E+00 -0.14848923485E+03  0.14848923485E+03  0.00000000000E+00 0. -1.
         21    1    1    2  503  504  0.37946638256E+02  0.11391328614E+02 -0.32823623459E+02  0.51449975506E+02  0.00000000000E+00 0. -1.
         21    1    1    2  504  501 -0.78640903415E+02 -0.33656019863E+02  0.28514745313E+03  0.29770151056E+03  0.00000000000E+00 0.  1.
         21    1    1    2  505  502 -0.42192335952E+02  0.29281587364E+02 -0.70633489487E+02  0.87330947601E+02  0.00000000000E+00 0. -1.
         21    1    1    2  506  505  0.82886601111E+02 -0.70168961157E+01  0.60917002106E+02  0.10310337832E+03  0.00000000000E+00 0.  1.
<scales pt_clust_3="39.61956" pt_clust_4="83.24870" pt_clust_5="40.25825" pt_clust_6="14000.00000"></scales>
<clustering>
<clus scale="   39.620">  2  3  1 -1</clus>
<clus scale="   40.258">  2  5  1 -1</clus>
<clus scale="   83.249">  1  4  2 -1</clus>
<clus scale="   83.249">  1  3  2 -1</clus>
</clustering>
</event>
<event>
 6    0  0.8777103E+002  0.1284565E+03  0.7546771E-02  0.1229764E+00
         21   -1    0    0  505  501  0.00000000000E+00  0.00000000000E+00  0.59804246242E+03  0.59804246242E+03  0.00000000000E+00 0.  1.
         21   -1    0    0  506  502 -0.00000000000E+00 -0.00000000000E+00 -0.18597375263E+04  0.18597375263E+04  0.00000000000E+00 0. -1.
         21    1    1    2  503  501  0.12031386199E+02 -0.50746944430E+02  0.42310362220E+02  0.67157824369E+02  0.00000000000E+00 0.  1.
         21    1    1    2  504  502 -0.38095884754E+02  0.19174883357E+03 -0.93634296015E+03  0.95653387323E+03  0.00000000000E+00 0.  1.
         21    1    1    2  505  504 -0.21813927156E+02 -0.77093769570E+02  0.52841762651E+03  0.53445718700E+03  0.00000000000E+00 0.  1.
         21    1    1    2  506  503  0.47878425710E+02 -0.63908119572E+02 -0.89608009246E+03  0.89963110412E+03  0.00000000000E+00 0. -1.
<scales pt_clust_3="52.15368" pt_clust_4="14000.00000" pt_clust_5="128.45652" pt_clust_6="80.00989"></scales>
<clustering>
<clus scale="   52.154">  1  3  2 -1</clus>
<clus scale="   80.010">  2  6  1 -1</clus>
<clus scale="  128.457">  1  5  2 -1</clus>
<clus scale="   52.154">  1  3  2 -1</clus>
</clustering>
</event>
<event>
 6    0  0.8777103E+002  0.1154453E+03  0.7546771E-02  0.1250806E+00
         21   -1    0    0  503  501  0.00000000000E+00  0.00000000000E+00  0.18620908734E+04  0.18620908734E+04  0.00000000000E+00 0.  1.
         21   -1    0    0  504  502 -0.00000000000E+00 -0.00000000000E+00 -0.27839428528E+03  0.27839428528E+03  0.00000000000E+00 0.  1.
         21    1    1    2  503  506  0.38869648557E+02  0.10226692512E+03  0.49700878344E+03  0.50890775625E+03  0.00000000000E+00 0. -1.
         21    1    1    2  504  505 -0.63538567833E+02 -0.37869820860E+02 -0.24191454385E+03  0.25297019481E+03  0.00000000000E+00 0.  1.
         21    1    1    2  505  501  0.73872398791E+02 -0.91039342724E+01  0.12953134161E+04  0.12974501373E+04  0.00000000000E+00 0.  1.
         21    1    1    2  506  502 -0.49203479515E+02 -0.55293169984E+02  0.33288932487E+02  0.81157070360E+02  0.00000000000E+00 0. -1.
<scales pt_clust_3="115.44526" pt_clust_4="73.96805" pt_clust_5="72.43139" pt_clust_6="14000.00000"></scales>
<clustering>
<clus scale="   73.968">  2  4  1 -1</clus>
<clus scale="   72.431">  1  5  2 -1</clus>
<clus scale="  115.445">  1  3  2 -1</clus>
<clus scale="   72.431">  1  3  2 -1</clus>
</clustering>
</event>
<event>
 6    0  0.8777103E+002  0.8991810E+02  0.7546771E-02  0.1303050E+00
         21   -1    0    0  503  501  0.00000000000E+00  0.00000000000E+00  0.70839977667E+03  0.70839977667E+03  0.00000000000E+00 0.  1.
         21   -1    0    0  504  502 -0.00000000000E+00 -0.00000000000E+00 -0.31456540839E+02  0.31456540839E+02  0.00000000000E+00 0. -1.
         21    1    1    2  503  506  0.45052427471E+02  0.60035782996E+02  0.20267531263E+03  0.21612796860E+03  0.00000000000E+00 0. -1.
         21    1    1    2  504  505 -0.41035354921E+02  0.21964514009E+02  0.82850211533E+02  0.95028931280E+02  0.00000000000E+00 0.  1.
         21    1    1    2  505  501 -0.12372651002E+02 -0.11856872826E+03  0.36171238192E+03  0.38085098536E+03  0.00000000000E+00 0.  1.
         21    1    1    2  506  502  0.83555784519E+01  0.36568431251E+02  0.29705329742E+02  0.47848432268E+02  0.00000000000E+00 0. -1.
<scales pt_clust_3="89.91810" pt_clust_4="50.20867" pt_clust_5="14000.00000" pt_clust_6="37.51088"></scales>
<clustering>
<clus scale="   37.511">  2  6  1 -1</clus>
<clus scale="   50.209">  2  4  1 -1</clus>
<clus scale="   89.918">  1  3  2 -1</clus>
<clus scale="   89.918">  1  3  2 -1</clus>
</clustering>
</event>
<event>
 6    0  0.8777103E+002  0.7293476E+02  0.7546771E-02  0.1350388E+00
         21   -1    0    0  504  501  0.00000000000E+00  0.00000000000E+00  0.42326600840E+03  0.42326600840E+03  0.00000000000E+00 0.  1.
         21   -1    0    0  505  502 -0.00000000000E+00 -0.00000000000E+00 -0.96076053571E+02  0.96076053571E+02  0.00000000000E+00 0. -1.
         21    1    1    2  503  501  0.25732594773E+02  0.38308087638E+02  0.10203012498E+03  0.11198134852E+03  0.00000000000E+00 0. -1.
         21    1    1    2  504  506 -0.88464907355E+02 -0.33976561840E+02  0.24943884840E+03  0.26683362922E+03  0.00000000000E+00 0.  1.
         21    1    1    2  505  503  0.92836493789E+02 -0.76979499361E+01  0.11256436916E+02  0.93832725551E+02  0.00000000000E+00 0. -1.
         21    1    1    2  506  502 -0.30104181207E+02  0.33664241379E+01 -0.35535455472E+02  0.46694358687E+02  0.00000000000E+00 0. -1.
<scales pt_clust_3="44.94760" pt_clust_4="14000.00000" pt_clust_5="72.93476" pt_clust_6="30.29182"></scales>
<clustering>
<clus scale="   30.292">  2  6  1 -1</clus>
<clus scale="   44.948">  1  3  2 -1</clus>
<clus scale="   72.935">  2  5  1 -1</clus>
<clus scale="   44.948">  1  3  2 -1</clus>
</clustering>
</event>
<event>
 6    0  0.8777103E+002  0.8832083E+02  0.7546771E-02  0.1306970E+00
         21   -1    0    0  506  501  0.00000000000E+00  0.00000000000E+00  0.51847471875E+03  0.51847471875E+03  0.00000000000E+00 0.  1.
         21   -1    0    0  504  502 -0.00000000000E+00 -0.00000000000E+00 -0.11454907770E+03  0.11454907770E+03  0.00000000000E+00 0.  1.
         21    1    1    2  503  502 -0.60373554012E+02  0.26727261094E+02  0.81074952418E+02  0.10455840674E+03  0.00000000000E+00 0.  1.
         21    1    1    2  504  505  0.95455996913E+02  0.11803398644E+02 -0.72104783745E+02  0.12020926506E+03  0.00000000000E+00 0.  1.
         21    1    1    2  505  501  0.19615503163E+02 -0.30987171406E+02  0.74038202077E+02  0.82623411470E+02  0.00000000000E+00 0. -1.
         21    1    1    2  506  503 -0.54697946065E+02 -0.75434883325E+01  0.32091727030E+03  0.32563271318E+03  0.00000000000E+00 0.  1.
<scales pt_clust_3="14000.00000" pt_clust_4="88.32083" pt_clust_5="36.67387" pt_clust_6="50.41440"></scales>
<clustering>
<clus scale="   36.674">  1  5  2 -1</clus>
<clus scale="   50.414">  1  6  2 -1</clus>
<clus scale="   88.321">  2  4  1 -1</clus>
<clus scale="   36.674">  1  3  2 -1</clus>
</clustering>
</event>
<event>
 6    0  0.8777103E+002  0.9417732E+02  0.7546771E-02  0.1293040E+00
         21   -1    0    0  506  501  0.00000000000E+00  0.00000000000E+00  0.12252431088E+04  0.12252431088E+04  0.00000000000E+00 0. -1.
         21   -1    0    0  505  502 -0.00000000000E+00 -0.00000000000E+00 -0.26585445020E+02  0.26585445020E+02  0.00000000000E+00 0.  1.
         21    1    1    2  503  504  0.87482008509E+02  0.52290044462E+02  0.42962556109E+03  0.44154894780E+03  0.00000000000E+00 0.  1.
         21    1    1    2  504  502  0.84302629454E+01  0.34667675163E+02  0.24260509682E+02  0.43144980757E+02  0.00000000000E+00 0.  1.
         21    1    1    2  505  501 -0.57841690534E+02  0.20999313991E+01  0.10345235705E+03  0.11854307679E+03  0.00000000000E+00 0.  1.
         21    1    1    2  506  503 -0.38070580921E+02 -0.89057651023E+02  0.64131923592E+03  0.64859154843E+03  0.00000000000E+00 0. -1.
<scales pt_clust_3="14000.00000" pt_clust_4="35.67796" pt_clust_5="56.84633" pt_clust_6="94.17732"></scales>
<clustering>
<clus scale="   35.678">  2  4  1 -1</clus>
<clus scale="   56.846">  2  5  1 -1</clus>
<clus scale="   94.177">  1  6  2 -1</clus>
<clus scale="   94.177">  1  3  2 -1</clus>
</clustering>
</event>
<event>
 6    0  0.8777103E+002  0.1122147E+03  0.7546771E-02  0.1256523E+00
         21   -1    0    0  506  501  0.00000000000E+00  0.00000000000E+00  0.10933831102E+04  0.10933831102E+04  0.00000000000E+00 0. -1.
         21   -1    0    0  505  502 -0.00000000000E+00 -0.00000000000E+00 -0.36578621959E+02  0.36578621959E+02  0.00000000000E+00 0. -1.
         21    1    1    2  503  502  0.98999632000E+02  0.34914764082E+02  0.30960391297E+03  0.32691673376E+03  0.00000000000E+00 0. -1.
         21    1    1    2  504  501  0.49241632615E+02 -0.27440480041E+02  0.45105268341E+03  0.45456159268E+03  0.00000000000E+00 0. -1.
         21    1    1    2  505  504 -0.32790639031E+02  0.26078042173E+02  0.18260016068E+02  0.45702499696E+02  0.00000000000E+00 0. -1.
         21    1    1    2  506  503 -0.11545062558E+03 -0.33552326214E+02  0.27788787584E+03  0.30278090607E+03  0.00000000000E+00 0.  1.
<scales pt_clust_3="112.21474" pt_clust_4="53.20089" pt_clust_5="41.89618" pt_clust_6="14000.00000"></scales>
<clustering>
<clus scale="   41.896">  2  5  1 -1</clus>
<clus scale="   53.201">  1  4  2 -1</clus>
<clus scale="  112.215">  2  3  1 -1</clus>
<clus scale="   53.201">  1  3  2 -1</clus>
</clustering>
</event>
<event>
 6    0  0.8777103E+002  0.9850946E+02  0.7546771E-02  0.1283462E+00
         21   -1    0    0  504  501  0.00000000000E+00  0.00000000000E+00  0.60319318387E+03  0.60319318387E+03  0.00000000000E+00 0. -1.
         21   -1    0    0  506  502 -0.00000000000E+00 -0.00000000000E+00 -0.24212416966E+03  0.24212416966E+03  0.00000000000E+00 0.  1.
         21    1    1    2  503  505  0.16386504941E+02  0.79818715632E+02 -0.15009195554E+03  0.17078389862E+03  0.00000000000E+00 0.  1.
         21    1    1    2  504  503  0.40457300098E+01 -0.45094704682E+02  0.52231851982E+03  0.52427715616E+03  0.00000000000E+00 0. -1.
         21    1    1    2  505  502 -0.34154335900E+02  0.42048112540E+02 -0.39750434343E+02  0.67191215642E+02  0.00000000000E+00 0.  1.
         21    1    1    2  506  501  0.13722100949E+02 -0.76772123490E+02  0.28592884278E+02  0.83065083103E+02  0.00000000000E+00 0.  1.
<scales pt_clust_3="14000.00000" pt_clust_4="45.27582" pt_clust_5="47.91981" pt_clust_6="98.50946"></scales>
<clustering>
<clus scale="   45.276">  1  4  2 -1</clus>
<clus scale="   47.920">  2  5  1 -1</clus>
<clus scale="   98.509">  1  6  2 -1</clus>
<clus scale="   45.276">  1  3  2 -1</clus>
</clustering>
</event>
<event>
 6    0  0.8777103E+002  0.1631705E+03  0.7546771E-02  0.1185163E+00
         21   -1    0    0  503  501  0.00000000000E+00  0.00000000000E+00  0.10545872961E+04  0.10545872961E+04  0.00000000000E+00 0. -1.
         21   -1    0    0  504  502 -0.00000000000E+00 -0.00000000000E+00 -0.17061294936E+04  0.17061294936E+04  0.00000000000E+00 0. -1.
         21    1    1    2  503  506 -0.12356637514E+03  0.28185275302E+02  0.42319605241E+03  0.44176685886E+03  0.00000000000E+00 0. -1.
         21    1    1    2  504  505  0.26515950209E+03 -0.14287182266E+03 -0.26831828497E+03  0.40338148360E+03  0.00000000000E+00 0. -1.
         21    1    1    2  505  501 -0.34741124021E+02  0.80748357811E+01  0.54980955420E+03  0.55096523898E+03  0.00000000000E+00 0. -1.
         21    1    1    2  506  502 -0.10685200293E+03  0.10661171158E+03 -0.13562295191E+04  0.13646032083E+04  0.00000000000E+00 0. -1.
<scales pt_clust_3="14000.00000" pt_clust_4="163.17054" pt_clust_5="35.66719" pt_clust_6="151.19340"></scales>
<clustering>
<clus scale="   35.667">  1  5  2 -1</clus>
<clus scale="  151.193">  2  6  1 -1</clus>
<clus scale="  163.171">  2  4  1 -1</clus>
<clus scale="   35.667">  1  3  2 -1</clus>
</clustering>
</event>
<event>
 6    0  0.8777103E+002  0.2084679E+03  0.7546771E-02  0.1142785E+00
         21   -1    0    0  506  501  0.00000000000E+00  0.00000000000E+00  0.12869393646E+03  0.12869393646E+03  0.00000000000E+00 0.  1.
         21   -1    0    0  504  502 -0.00000000000E+00 -0.00000000000E+00 -0.84922735363E+03  0.84922735363E+03  0.00000000000E+00 0. -1.
         21    1    1    2  503  505  0.24834956876E+02 -0.36665563050E+02 -0.85088418606E+02  0.95922768818E+02  0.00000000000E+00 0.  1.
         21    1    1    2  504  503 -0.95635053914E+01 -0.87587096750E+02 -0.35088603544E+03  0.36177889660E+03  0.00000000000E+00 0. -1.
         21    1    1    2  505  501 -0.20704443978E+03  0.26579373965E+00 -0.14048025072E+03  0.25020425962E+03  0.00000000000E+00 0. -1.
         21    1    1    2  506  502  0.19177298829E+03  0.12398686606E+03 -0.14407871240E+03  0.27001536505E+03  0.00000000000E+00 0.  1.
<scales pt_clust_3="43.38652" pt_clust_4="139.34522" pt_clust_5="208.46792" pt_clust_6="14000.00000"></scales>
<clustering>
<clus scale="   43.387">  3  4 -1 -1</clus>
<clus scale="  139.345">  2  3  1 -1</clus>
<clus scale="  208.468">  1  5  2 -1</clus>
<clus scale="  208.468">  1  3  2 -1</clus>
</clustering>
</event>
<event>
 6    0  0.8777103E+002  0.7509897E+02  0.7546771E-02  0.1343565E+00
         21   -1    0    0  506  501  0.00000000000E+00  0.00000000000E+00  0.73542751865E+02  0.73542751865E+02  0.00000000000E+00 0. -1.
         21   -1    0    0  503  502 -0.00000000000E+00 -0.00000000000E+00 -0.36855773410E+03  0.36855773410E+03  0.00000000000E+00 0. -1.
         21    1    1    2  503  501 -0.52349237505E+02  0.54885703285E+02  0.41455276214E+01  0.75960966895E+02  0.00000000000E+00 0. -1.
         21    1    1    2  504  502 -0.39841896815E+02 -0.68707343463E+02 -0.17516158847E+03  0.19232695563E+03  0.00000000000E+00 0. -1.
         21    1    1    2  505  504  0.69558433763E+02  0.33564587334E+02 -0.12110967339E+03  0.14364021101E+03  0.00000000000E+00 0. -1.
         21    1    1    2  506  505  0.22632700558E+02 -0.19742947156E+02 -0.28892479951E+01  0.30172352426E+02  0.00000000000E+00 0. -1.
<scales pt_clust_3="55.88031" pt_clust_4="75.09897" pt_clust_5="14000.00000" pt_clust_6="30.03370"></scales>
<clustering>
<clus scale="   30.034">  1  6  2 -1</clus>
<clus scale="   55.880">  1  3  2 -1</clus>
<clus scale="   75.099">  2  4  1 -1</clus>
<clus scale="   30.034">  1  3  2 -1</clus>
</clustering>
</event>
<event>
 6    0  0.8777103E+002  0.9855193E+02  0.7546771E-02  0.1283371E+00
         21   -1    0    0  504  501  0.00000000000E+00  0.00000000000E+00  0.11033658240E+03  0.11033658240E+03  0.00000000000E+00 0.  1.
         21   -1    0    0  503  502 -0.00000000000E+00 -0.00000000000E+00 -0.20280942229E+04  0.20280942229E+04  0.00000000000E+00 0. -1.
         21    1    1    2  503  505 -0.66498621089E+02 -0.97435535890E+02 -0.60209714711E+02  0.13244228934E+03  0.00000000000E+00 0.  1.
         21    1    1    2  504  502  0.50220430673E+01  0.41609438386E+02 -0.18602719742E+04  0.18607440405E+04  0.00000000000E+00 0. -1.
         21    1    1    2  505  506  0.95979997232E+02  0.31347622691E+02 -0.89310707811E+01  0.10136368848E+03  0.00000000000E+00 0.  1.
         21    1    1    2  506  501 -0.34503419211E+02  0.24478474814E+02  0.11655119146E+02  0.43880787011E+02  0.00000000000E+00 0.  1.
<scales pt_clust_3="98.55193" pt_clust_4="41.91141" pt_clust_5="14000.00000" pt_clust_6="44.36730"></scales>
<clustering>
<clus scale="   41.911">  2  4  1 -1</clus>
<clus scale="   44.367">  1  6  2 -1</clus>
<clus scale="   98.552">  2  3  1 -1</clus>
<clus scale="   44.367">  1  3  2 -1</clus>
</clustering>
</event>
<event>
 6    0  0.8777103E+002  0.8393989E+02  0.7546771E-02  0.1318228E+00
         21   -1    0    0  504  501  0.00000000000E+00  0.00000000000E+00  0.27834822350E+03  0.27834822350E+03  0.00000000000E+00 0.  1.
         21   -1    0    0  503  502 -0.00000000000E+00 -0.00000000000E+00 -0.79382710961E+02  0.79382710961E+02  0.00000000000E+00 0. -1.
         21    1    1    2  503  506  0.99132636843E+01  0.36508821202E+02  0.28312203233E+01  0.37936560611E+02  0.00000000000E+00 0.  1.
         21    1    1    2  504  502 -0.28329444494E+02  0.18162494759E+02  0.32196748658E+02  0.46573214033E+02  0.00000000000E+00 0.  1.
         21    1    1    2  505  501  0.11454862621E+01  0.61747990419E+02  0.14014153659E+03  0.15314625930E+03  0.00000000000E+00 0.  1.
         21    1    1    2  506  505  0.17270694548E+02 -0.11641930638E+03  0.23796006974E+02  0.12007490052E+03  0.00000000000E+00 0. -1.
<scales pt_clust_3="38.78944" pt_clust_4="33.65165" pt_clust_5="14000.00000" pt_clust_6="83.93989"></scales>
<clustering>
<clus scale="   33.652">  1  4  2 -1</clus>
<clus scale="   38.789">  2  3  1 -1</clus>
<clus scale="   83.940">  2  6  1 -1</clus>
<clus scale="   33.652">  1  3  2 -1</clus>
</clustering>
</event>
<event>
 6    0  0.8777103E+002  0.1886323E+03  0.7546771E-02  0.1159701E+00
         21   -1    0    0  503  501  0.00000000000E+00  0.00000000000E+00  0.61566624811E+03  0.61566624811E+03  0.00000000000E+00 0. -1.
         21   -1    0    0  504  502 -0.00000000000E+00 -0.00000000000E+00 -0.45249139109E+03  0.45249139109E+03  0.00000000000E+00 0. -1.
         21    1    1    2  503  502  0.85315884000E+02 -0.15930032047E+03  0.40620102013E+03  0.44458369394E+03  0.00000000000E+00 0. -1.
         21    1    1    2  504  505  0.20051179519E+02  0.23090154639E+02 -0.13664093567E+03  0.14002124961E+03  0.00000000000E+00 0. -1.
         21    1    1    2  505  506 -0.35788785096E+02  0.16860801874E+03 -0.25993433805E+03  0.31188998256E+03  0.00000000000E+00 0. -1.
         21    1    1    2  506  501 -0.69578278424E+02 -0.32397852907E+02  0.15354911061E+03  0.17166271310E+03  0.00000000000E+00 0. -1.
<scales pt_clust_3="14000.00000" pt_clust_4="30.58112" pt_clust_5="188.63226" pt_clust_6="75.94711"></scales>
<clustering>
<clus scale="   30.581">  2  4  1 -1</clus>
<clus scale="   75.947">  1  6  2 -1</clus>
<clus scale="  188.632">  2  5  1 -1</clus>
<clus scale="   75.947">  1  3  2 -1</clus>
</clustering>
</event>
<event>
 6    0  0.8777103E+002  0.1471852E+03  0.7546771E-02  0.1203975E+00
         21   -1    0    0  506  501  0.00000000000E+00  0.00000000000E+00  0.69002590074E+03  0.69002590074E+03  0.00000000000E+00 0. -1.
         21   -1    0    0  503  502 -0.00000000000E+00 -0.00000000000E+00 -0.59287242939E+03  0.59287242939E+03  0.00000000000E+00 0.  1.
         21    1    1    2  503  505 -0.12927262137E+03 -0.15809521203E+02 -0.54991194426E+03  0.56512343611E+03  0.00000000000E+00 0.  1.
         21    1    1    2  504  501  0.57959795746E+02 -0.44884789232E+02  0.45637970460E+03  0.46222983136E+03  0.00000000000E+00 0. -1.
         21    1    1    2  505  504  0.63748379604E+02 -0.11836334407E+02  0.16655816265E+03  0.17873325449E+03  0.00000000000E+00 0. -1.
         21    1    1    2  506  502  0.75644460182E+01  0.72530644842E+02  0.24127548352E+02  0.76811808170E+02  0.00000000000E+00 0.  1.
<scales pt_clust_3="130.04450" pt_clust_4="64.82988" pt_clust_5="64.82988" pt_clust_6="72.92404"></scales>
<clustering>
<clus scale="   64.830">  4  5 -1 -1</clus>
<clus scale="   72.924">  1  6  2 -1</clus>
<clus scale="  130.045">  2  3  1 -1</clus>
<clus scale="   72.924">  1  3  2 -1</clus>
</clustering>
</event>
<event>
 6    0  0.8777103E+002  0.4348846E+03  0.7546771E-02  0.1032328E+00
         21   -1    0    0  503  501  0.00000000000E+00  0.00000000000E+00  0.10961799643E+04  0.10961799643E+04  0.00000000000E+00 0.  1.
         21   -1    0    0  506  502 -0.00000000000E+00 -0.00000000000E+00 -0.15790710556E+03  0.15790710556E+03  0.00000000000E+00 0.  1.
         21    1    1    2  503  504  0.17745272612E+03  0.19061364789E+03  0.31993630532E+03  0.41253154090E+03  0.00000000000E+00 0.  1.
         21    1    1    2  504  505  0.10193506845E+02  0.73921825280E+02  0.87359809016E+02  0.11489160137E+03  0.00000000000E+00 0.  1.
         21    1    1    2  505  502 -0.14552896319E+02  0.92384130067E+02  0.60997521368E+02  0.11165711752E+03  0.00000000000E+00 0. -1.
         21    1    1    2  506  501 -0.17309333665E+03 -0.35691960324E+03  0.46997922306E+03  0.61500681010E+03  0.00000000000E+00 0.  1.
<scales pt_clust_3="132.89157" pt_clust_4="36.14891" pt_clust_5="132.89157" pt_clust_6="396.67733"></scales>
<clustering>
<clus scale="   36.149">  4  5 -1 -1</clus>
<clus scale="  132.892">  3  4 -1 -1</clus>
<clus scale="  396.677">  1  6  2 -1</clus>
<clus scale="  396.677">  1  3  2 -1</clus>
</clustering>
</event>
<event>
 6    0  0.8777103E+002  0.1414463E+03  0.7546771E-02  0.1211396E+00
         21   -1    0    0  504  501  0.00000000000E+00  0.00000000000E+00  0.32292883683E+03  0.32292883683E+03  0.00000000000E+00 0. -1.
         21   -1    0    0  505  502 -0.00000000000E+00 -0.00000000000E+00 -0.13355027695E+03  0.13355027695E+03  0.00000000000E+00 0. -1.
         21    1    1    2  503  506 -0.65500304441E+02  0.13349330918E+03  0.23473076422E+02  0.15053816391E+03  0.00000000000E+00 0. -1.
         21    1    1    2  504  502 -0.49859103701E+02 -0.35688780748E+02  0.72246553406E+02  0.94758555140E+02  0.00000000000E+00 0.  1.
         21    1    1    2  505  503  0.81589715365E+02 -0.10833538413E+03  0.30833869383E+02  0.13908330097E+03  0.00000000000E+00 0. -1.
         21    1    1    2  506  501  0.33769692777E+02  0.10530855697E+02  0.62825060673E+02  0.72099093757E+02  0.00000000000E+00 0. -1.
<scales pt_clust_3="141.44629" pt_clust_4="50.46701" pt_clust_5="14000.00000" pt_clust_6="35.37359"></scales>
<clustering>
<clus scale="   35.374">  1  6  2 -1</clus>
<clus scale="   50.467">  1  4  2 -1</clus>
<clus scale="  141.446">  1  3  2 -1</clus>
<clus scale="   35.374">  1  3  2 -1</clus>
</clustering>
</event>
<event>
 6    0  0.8777103E+002  0.1377692E+03  0.7546771E-02  0.1216363E+00
         21   -1    0    0  503  501  0.00000000000E+00  0.00000000000E+00  0.15186085461E+04  0.15186085461E+04  0.00000000000E+00 0.  1.
         21   -1    0    0  504  502 -0.00000000000E+00 -0.00000000000E+00 -0.28010169855E+03  0.28010169855E+03  0.00000000000E+00 0. -1.
         21    1    1    2  503  502  0.38823586711E+02 -0.73534136092E+02  0.83755697746E+03  0.84167465837E+03  0.00000000000E+00 0.  1.
         21    1    1    2  504  505 -0.13036008801E+03  0.49288820185E+02 -0.25444383590E+03  0.29011171291E+03  0.00000000000E+00 0. -1.
         21    1    1    2  505  506  0.59136272365E+02  0.81255312886E+01  0.16985582496E+03  0.18003922973E+03  0.00000000000E+00 0. -1.
         21    1    1    2  506  501  0.32400228939E+02  0.16119784618E+02  0.48553788101E+03  0.48688464361E+03  0.00000000000E+00 0.  1.
<scales pt_clust_3="137.76922" pt_clust_4="14000.00000" pt_clust_5="65.53238" pt_clust_6="36.18870"></scales>
<clustering>
<clus scale="   36.189">  1  6  2 -1</clus>
<clus scale="   65.532">  1  5  2 -1</clus>
<clus scale="  137.769">  1  3  2 -1</clus>
<clus scale="   36.189">  1  3  2 -1</clus>
</clustering>
</event>
<event>
 6    0  0.8777103E+002  0.9358941E+02  0.7546771E-02  0.1294385E+00
         21   -1    0    0  503  501  0.00000000000E+00  0.00000000000E+00  0.15324168035E+04  0.15324168035E+04  0.00000000000E+00 0.  1.
         21   -1    0    0  504  502 -0.00000000000E+00 -0.00000000000E+00 -0.68376245829E+03  0.68376245829E+03  0.00000000000E+00 0. -1.
         21    1    1    2  503  505  0.65445375754E+02  0.67290518410E+02  0.14839288245E+04  0.14868947062E+04  0.00000000000E+00 0.  1.
         21    1    1    2  504  501  0.57857329212E+02  0.32243367925E+02 -0.55397514075E+02  0.86348074005E+02  0.00000000000E+00 0. -1.
         21    1    1    2  505  506 -0.88416104547E+02 -0.24807482794E+02 -0.45962860943E+02  0.10269081425E+03  0.00000000000E+00 0.  1.
         21    1    1    2  506  502 -0.34886600418E+02 -0.74726403541E+02 -0.53391410431E+03  0.54024566731E+03  0.00000000000E+00 0. -1.
<scales pt_clust_3="14000.00000" pt_clust_4="66.23523" pt_clust_5="93.58941" pt_clust_6="49.08840"></scales>
<clustering>
<clus scale="   66.235">  2  4  1 -1</clus>
<clus scale="   49.088">  2  6  1 -1</clus>
<clus scale="   93.589">  2  5  1 -1</clus>
<clus scale="   93.589">  1  3  2 -1</clus>
</clustering>
</event>
<event>
 6    0  0.8777103E+002  0.1177153E+03  0.7546771E-02  0.1246914E+00
         21   -1    0    0  505  501  0.00000000000E+00  0.00000000000E+00  0.24122809436E+02  0.24122809436E+02  0.00000000000E+00 0. -1.
         21   -1    0    0  504  502 -0.00000000000E+00 -0.00000000000E+00 -0.12744544681E+04  0.12744544681E+04  0.00000000000E+00 0. -1.
         21    1    1    2  503  506  0.39768127937E+02 -0.18903829526E+02 -0.22247206885E+03  0.22678774259E+03  0.00000000000E+00 0. -1.
         21    1    1    2  504  501 -0.77166830639E+02  0.12393001130E+03 -0.58936351027E+03  0.60717601624E+03  0.00000000000E+00 0. -1.
         21    1    1    2  505  503  0.30009258135E+02 -0.49400148984E+02 -0.65235576676E+02  0.87158538065E+02  0.00000000000E+00 0. -1.
         21    1    1    2  506  502  0.73894445669E+01 -0.55626032791E+02 -0.37326050291E+03  0.37745498069E+03  0.00000000000E+00 0. -1.
<scales pt_clust_3="43.69765" pt_clust_4="106.88052" pt_clust_5="57.80078" pt_clust_6="43.69765"></scales>
<clustering>
<clus scale="   43.698">  3  6 -1 -1</clus>
<clus scale="   57.801">  1  5  2 -1</clus>
<clus scale="  106.881">  1  4  2 -1</clus>
<clus scale="   57.801">  1  3  2 -1</clus>
</clustering>
</event>
<event>
 6    0  0.8777103E+002  0.8214789E+02  0.7546771E-02  0.1323064E+00
         21   -1    0    0  505  501  0.00000000000E+00  0.00000000000E+00  0.30918575786E+03  0.30918575786E+03  0.00000000000E+00 0. -1.
         21   -1    0    0  503  502 -0.00000000000E+00 -0.00000000000E+00 -0.70189898229E+03  0.70189898229E+03  0.00000000000E+00 0.  1.
         21    1    1    2  503  506 -0.24493772478E+02  0.78655856733E+02 -0.61571196535E+03  0.62119877090E+03  0.00000000000E+00 0.  1.
         21    1    1    2  504  502  0.62047013951E+02  0.44834514678E+02 -0.10059521547E+02  0.77208546291E+02  0.00000000000E+00 0. -1.
         21    1    1    2  505  504 -0.13443104700E+02 -0.52487149459E+02 -0.12771049043E+02  0.55666126288E+02  0.00000000000E+00 0. -1.
         21    1    1    2  506  501 -0.24110136773E+02 -0.71003221953E+02  0.24582931150E+03  0.25701129667E+03  0.00000000000E+00 0. -1.
<scales pt_clust_3="82.14789" pt_clust_4="71.80606" pt_clust_5="54.18134" pt_clust_6="14000.00000"></scales>
<clustering>
<clus scale="   54.181">  1  5  2 -1</clus>
<clus scale="   71.806">  1  4  2 -1</clus>
<clus scale="   82.148">  2  3  1 -1</clus>
<clus scale="   54.181">  1  3  2 -1</clus>
</clustering>
</event>
<event>
 6    0  0.8777103E+002  0.9734335E+02  0.7546771E-02  0.1285984E+00
         21   -1    0    0  506  501  0.00000000000E+00  0.00000000000E+00  0.41818185444E+02  0.41818185444E+02  0.00000000000E+00 0. -1.
         21   -1    0    0  504  502 -0.00000000000E+00 -0.00000000000E+00 -0.19776740812E+04  0.19776740812E+04  0.00000000000E+00 0.  1.
         21    1    1    2  503  502  0.62278157834E+02 -0.54762866831E+02 -0.84935565754E+03  0.85339473488E+03  0.00000000000E+00 0.  1.
         21    1    1    2  504  505 -0.10765374707E+03  0.96666191151E+02 -0.78236488188E+03  0.79563087557E+03  0.00000000000E+00 0. -1.
         21    1    1    2  505  501 -0.34258581286E+02 -0.52119694395E+01  0.16268975858E+02  0.38281778859E+02  0.00000000000E+00 0. -1.
         21    1    1    2  506  503  0.79634170525E+02 -0.36691354880E+02 -0.32040433224E+03  0.33218487737E+03  0.00000000000E+00 0.  1.
<scales pt_clust_3="14000.00000" pt_clust_4="97.34335" pt_clust_5="34.65278" pt_clust_6="76.35308"></scales>
<clustering>
<clus scale="   34.653">  1  5  2 -1</clus>
<clus scale="   76.353">  1  6  2 -1</clus>
<clus scale="   97.343">  1  4  2 -1</clus>
<clus scale="   34.653">  1  3  2 -1</clus>
</clustering>
</event>
<event>
 6    0  0.8777103E+002  0.1224530E+03  0.7546771E-02  0.1239104E+00
         21   -1    0    0  502  501  0.00000000000E+00  0.00000000000E+00  0.88673185246E+03  0.88673185246E+03  0.00000000000E+00 0. -1.
         21   -1    0    0  504  502 -0.00000000000E+00 -0.00000000000E+00 -0.68792379381E+03  0.68792379381E+03  0.00000000000E+00 0. -1.
         21    1    1    2  503  505  0.66661067792E+02  0.23500764414E+02  0.11153683535E+03  0.13204714888E+03  0.00000000000E+00 0.  1.
         21    1    1    2  504  506 -0.98630715329E+02 -0.54250044851E+02 -0.66372036549E+03  0.67319819440E+03  0.00000000000E+00 0. -1.
         21    1    1    2  505  501 -0.46623900925E+01  0.52914783855E+02  0.70336213779E+03  0.70536516012E+03  0.00000000000E+00 0. -1.
         21    1    1    2  506  503  0.36632037630E+02 -0.22165503418E+02  0.47629451003E+02  0.64045142872E+02  0.00000000000E+00 0.  1.
<scales pt_clust_3="38.50064" pt_clust_4="112.01652" pt_clust_5="53.11979" pt_clust_6="38.50064"></scales>
<clustering>
<clus scale="   38.501">  3  6 -1 -1</clus>
<clus scale="   53.120">  1  5  2 -1</clus>
<clus scale="  112.017">  2  4  1 -1</clus>
<clus scale="   53.120">  1  3  2 -1</clus>
</clustering>
</event>
<event>
 6    0  0.8777103E+002  0.1206535E+03  0.7546771E-02  0.1242023E+00
         21   -1    0    0  504  501  0.00000000000E+00  0.00000000000E+00  0.75370956066E+02  0.75370956066E+02  0.00000000000E+00 0.  1.
         21   -1    0    0  506  502 -0.00000000000E+00 -0.00000000000E+00 -0.18248728357E+04  0.18248728357E+04  0.00000000000E+00 0.  1.
         21    1    1    2  503  505 -0.79643481428E+02  0.72976853750E+02 -0.87964593871E+02  0.13930712506E+03  0.00000000000E+00 0.  1.
         21    1    1    2  504  502  0.22710889905E+02 -0.31423476598E+02 -0.28779825216E+03  0.29039809460E+03  0.00000000000E+00 0.  1.
         21    1    1    2  505  501  0.80264713066E+02 -0.10421536981E+03 -0.43394590103E+02  0.13851482924E+03  0.00000000000E+00 0.  1.
         21    1    1    2  506  503 -0.23332121542E+02  0.62661992658E+02 -0.13303444435E+04  0.13320237429E+04  0.00000000000E+00 0.  1.
<scales pt_clust_3="14000.00000" pt_clust_4="38.77137" pt_clust_5="120.65345" pt_clust_6="35.61185"></scales>
<clustering>
<clus scale="   38.771">  2  4  1 -1</clus>
<clus scale="   35.612">  2  6  1 -1</clus>
<clus scale="  120.653">  1  5  2 -1</clus>
<clus scale="  120.653">  1  3  2 -1</clus>
</clustering>
</event>
<event>
 6    0  0.8777103E+002  0.1532919E+03  0.7546771E-02  0.1196485E+00
         21   -1    0    0  503  501  0.00000000000E+00  0.00000000000E+00  0.51822595154E+02  0.51822595154E+02  0.00000000000E+00 0. -1.
         21   -1    0    0  504  502 -0.00000000000E+00 -0.00000000000E+00 -0.64533552594E+03  0.64533552594E+03  0.00000000000E+00 0. -1.
         21    1    1    2  503  506 -0.27885682394E+02 -0.35341704560E+02 -0.21742296786E+02  0.49993747942E+02  0.00000000000E+00 0.  1.
         21    1    1    2  504  505 -0.48286822372E+02 -0.15995618195E+02 -0.12327222935E+03  0.13335486323E+03  0.00000000000E+00 0.  1.
         21    1    1    2  505  501 -0.82478434595E+02  0.39870519282E+02 -0.16728585964E+03  0.19072731665E+03  0.00000000000E+00 0. -1.
         21    1    1    2  506  502  0.15865093936E+03  0.11466803473E+02 -0.28121254500E+03  0.32308219327E+03  0.00000000000E+00 0. -1.
<scales pt_clust_3="45.01830" pt_clust_4="40.37416" pt_clust_5="40.37416" pt_clust_6="143.39709"></scales>
<clustering>
<clus scale="   40.374">  4  5 -1 -1</clus>
<clus scale="   45.018">  1  3  2 -1</clus>
<clus scale="  143.397">  1  6  2 -1</clus>
<clus scale="   45.018">  1  3  2 -1</clus>
</clustering>
</event>
<event>
 6    0  0.8777103E+002  0.1319219E+03  0.7546771E-02  0.1224632E+00
         21   -1    0    0  506  501  0.00000000000E+00  0.00000000000E+00  0.51425174080E+02  0.51425174080E+02  0.00000000000E+00 0. -1.
         21   -1    0    0  501  502 -0.00000000000E+00 -0.00000000000E+00 -0.72997709549E+03  0.72997709549E+03  0.00000000000E+00 0.  1.
         21    1    1    2  503  505  0.47025350950E+02  0.23359230915E+02 -0.15515313328E+02  0.54751824158E+02  0.00000000000E+00 0. -1.
         21    1    1    2  504  502 -0.78443665716E+02 -0.86362056669E+02 -0.49745788522E+03  0.51095612443E+03  0.00000000000E+00 0.  1.
         21    1    1    2  505  504  0.68707261346E+02  0.70718400443E+02 -0.10413647693E+03  0.14340915504E+03  0.00000000000E+00 0. -1.
         21    1    1    2  506  503 -0.37288946580E+02 -0.77155746886E+01 -0.61442245929E+02  0.72285165938E+02  0.00000000000E+00 0.  1.
<scales pt_clust_3="37.96514" pt_clust_4="121.23037" pt_clust_5="37.96514" pt_clust_6="38.07881"></scales>
<clustering>
<clus scale="   37.965">  3  5 -1 -1</clus>
<clus scale="   38.079">  1  6  2 -1</clus>
<clus scale="  121.230">  2  4  1 -1</clus>
<clus scale="   38.079">  1  3  2 -1</clus>
</clustering>
</event>
<event>
 6    0  0.8777103E+002  0.8622823E+02  0.7546771E-02  0.1312251E+00
         21   -1    0    0  505  501  0.00000000000E+00  0.00000000000E+00  0.95473633221E+03  0.95473633221E+03  0.00000000000E+00 0. -1.
         21   -1    0    0  501  502 -0.00000000000E+00 -0.00000000000E+00 -0.79416212664E+02  0.79416212664E+02  0.00000000000E+00 0. -1.
         21    1    1    2  503  504 -0.17214724128E+02  0.61721366500E+02  0.21307321880E+03  0.22249959635E+03  0.00000000000E+00 0. -1.
         21    1    1    2  504  506 -0.11413381045E+03 -0.47333519891E+02  0.45260479445E+03  0.46916744213E+03  0.00000000000E+00 0. -1.
         21    1    1    2  505  503  0.48624493708E+02  0.65090138132E+01  0.24519310133E+03  0.25005272562E+03  0.00000000000E+00 0.  1.
         21    1    1    2  506  502  0.82724040870E+02 -0.20896860422E+02 -0.35550995034E+02  0.92432780772E+02  0.00000000000E+00 0. -1.
<scales pt_clust_3="63.76541" pt_clust_4="14000.00000" pt_clust_5="49.05822" pt_clust_6="86.22823"></scales>
<clustering>
<clus scale="   49.058">  1  5  2 -1</clus>
<clus scale="   63.765">  1  3  2 -1</clus>
<clus scale="   86.228">  2  6  1 -1</clus>
<clus scale="   49.058">  1  3  2 -1</clus>
</clustering>
</event>
<event>
 6    0  0.8777103E+002  0.1321994E+03  0.7546771E-02  0.1224228E+00
         21   -1    0    0  505  501  0.00000000000E+00  0.00000000000E+00  0.28753133339E+03  0.28753133339E+03  0.00000000000E+00 0.  1.
         21   -1    0    0  503  502 -0.00000000000E+00 -0.00000000000E+00 -0.89688138599E+03  0.89688138599E+03  0.00000000000E+00 0.  1.
         21    1    1    2  503  504  0.13997118539E+02  0.36089339829E+02 -0.85557169173E+02  0.93906277605E+02  0.00000000000E+00 0. -1.
         21    1    1    2  504  501  0.12078412958E+03  0.64952059344E+01  0.25055450283E+03  0.27822392518E+03  0.00000000000E+00 0.  1.
         21    1    1    2  505  506  0.86045685409E+01 -0.34847583386E+02 -0.14053442362E+02  0.38547268513E+02  0.00000000000E+00 0. -1.
         21    1    1    2  506  502 -0.14338581666E+03 -0.77369623774E+01 -0.76029394389E+03  0.77373524808E+03  0.00000000000E+00 0.  1.
<scales pt_clust_3="38.26443" pt_clust_4="14000.00000" pt_clust_5="35.89419" pt_clust_6="132.19945"></scales>
<clustering>
<clus scale="   35.894">  1  5  2 -1</clus>
<clus scale="   38.264">  2  3  1 -1</clus>
<clus scale="  132.199">  2  6  1 -1</clus>
<clus scale="   35.894">  1  3  2 -1</clus>
</clustering>
</event>
<event>
 6    0  0.8777103E+002  0.1947796E+03  0.7546771E-02  0.1154220E+00
         21   -1    0    0  505  501  0.00000000000E+00  0.00000000000E+00  0.10366440341E+03  0.10366440341E+03  0.00000000000E+00 0. -1.
         21   -1    0    0  504  502 -0.00000000000E+00 -0.00000000000E+00 -0.13292859778E+04  0.13292859778E+04  0.00000000000E+00 0.  1.
         21    1    1    2  503  506 -0.17414223961E+02 -0.64628517452E+02 -0.24142549379E+03  0.25053217262E+03  0.00000000000E+00 0.  1.
         21    1    1    2  504  501  0.33212027469E+02 -0.32654335505E+02  0.78914141410E+01  0.47240012839E+02  0.00000000000E+00 0. -1.
         21    1    1    2  505  503  0.66884617119E+02  0.17427551145E+03 -0.59718817110E+02  0.19598939516E+03  0.00000000000E+00 0. -1.
         21    1    1    2  506  502 -0.82682420628E+02 -0.76992658492E+02 -0.93236867761E+03  0.93918880058E+03  0.00000000000E+00 0.  1.
<scales pt_clust_3="67.68149" pt_clust_4="46.57622" pt_clust_5="174.27495" pt_clust_6="67.68149"></scales>
<clustering>
<clus scale="   46.576">  1  4  2 -1</clus>
<clus scale="   67.681">  3  6 -1 -1</clus>
<clus scale="  174.275">  1  5  2 -1</clus>
<clus scale="   46.576">  1  3  2 -1</clus>
</clustering>
</event>
<event>
 6    0  0.8777103E+002  0.1149749E+03  0.7546771E-02  0.1251625E+00
         21   -1    0    0  506  501  0.00000000000E+00  0.00000000000E+00  0.48442279113E+03  0.48442279113E+03  0.00000000000E+00 0. -1.
         21   -1    0    0  503  502 -0.00000000000E+00 -0.00000000000E+00 -0.54737695452E+03  0.54737695452E+03  0.00000000000E+00 0.  1.
         21    1    1    2  503  505  0.83041451862E+01 -0.10773701680E+03 -0.64230505848E+02  0.12570513712E+03  0.00000000000E+00 0.  1.
         21    1    1    2  504  502 -0.53603863633E+02  0.75777493872E+01 -0.41337669467E+03  0.41690657009E+03  0.00000000000E+00 0.  1.
         21    1    1    2  505  501  0.13851068262E+01 -0.74416121659E+02  0.16876668628E+03  0.18445018862E+03  0.00000000000E+00 0. -1.
         21    1    1    2  506  504  0.43914611621E+02  0.17457538907E+03  0.24588635085E+03  0.30473784983E+03  0.00000000000E+00 0. -1.
<scales pt_clust_3="14000.00000" pt_clust_4="54.13683" pt_clust_5="73.98849" pt_clust_6="114.97494"></scales>
<clustering>
<clus scale="   54.137">  2  4  1 -1</clus>
<clus scale="   73.988">  1  5  2 -1</clus>
<clus scale="  114.975">  1  6  2 -1</clus>
<clus scale="   73.988">  1  3  2 -1</clus>
</clustering>
</event>
<event>
 6    0  0.8777103E+002  0.6344330E+02  0.7546771E-02  0.1383925E+00
         21   -1    0    0  505  501  0.00000000000E+00  0.00000000000E+00  0.13069664059E+03  0.13069664059E+03  0.00000000000E+00 0. -1.
         21   -1    0    0  503  502 -0.00000000000E+00 -0.00000000000E+00 -0.60372730268E+03  0.60372730268E+03  0.00000000000E+00 0.  1.
         21    1    1    2  503  501 -0.55326270151E+02 -0.58461817225E+02 -0.97405191780E+02  0.12635882093E+03  0.00000000000E+00 0. -1.
         21    1    1    2  504  502  0.63166301112E+02  0.55518606070E+01 -0.38875321874E+03  0.39389068260E+03  0.00000000000E+00 0.  1.
         21    1    1    2  505  506  0.40713466802E+02  0.15085945064E+01  0.96564345371E+02  0.10480713255E+03  0.00000000000E+00 0. -1.
         21    1    1    2  506  504 -0.48553497764E+02  0.51401362112E+02 -0.83436596940E+02  0.10936730719E+03  0.00000000000E+00 0. -1.
<scales pt_clust_3="63.44330" pt_clust_4="14000.00000" pt_clust_5="40.74141" pt_clust_6="60.56666"></scales>
<clustering>
<clus scale="   40.741">  1  5  2 -1</clus>
<clus scale="   60.567">  1  6  2 -1</clus>
<clus scale="   63.443">  1  3  2 -1</clus>
<clus scale="   40.741">  1  3  2 -1</clus>
</clustering>
</event>
<event>
 6    0  0.8777103E+002  0.3728531E+03  0.7546771E-02  0.1053607E+00
         21   -1    0    0  505  501  0.00000000000E+00  0.00000000000E+00  0.22309381665E+04  0.22309381665E+04  0.00000000000E+00 0.  1.
         21   -1    0    0  503  502 -0.00000000000E+00 -0.00000000000E+00 -0.23679994426E+03  0.23679994426E+03  0.00000000000E+00 0. -1.
         21    1    1    2  503  504  0.31794227824E+01 -0.14200161744E+03  0.15160203766E+03  0.20774442449E+03  0.00000000000E+00 0. -1.
         21    1    1    2  504  501 -0.22891926758E+03 -0.25926255756E+03  0.13539181605E+04  0.13973959676E+04  0.00000000000E+00 0.  1.
         21    1    1    2  505  506  0.19723822987E+03  0.50656270134E+03  0.51665926072E+03  0.74996365338E+03  0.00000000000E+00 0. -1.
         21    1    1    2  506  502  0.28501614926E+02 -0.10529852633E+03 -0.28041236705E+02  0.11263406526E+03  0.00000000000E+00 0. -1.
<scales pt_clust_3="159.95799" pt_clust_4="372.85312" pt_clust_5="14000.00000" pt_clust_6="109.08768"></scales>
<clustering>
<clus scale="  109.088">  2  6  1 -1</clus>
<clus scale="  159.958">  2  3  1 -1</clus>
<clus scale="  372.853">  1  4  2 -1</clus>
<clus scale="  372.853">  1  3  2 -1</clus>
</clustering>
</event>
<event>
 6    0  0.8777103E+002  0.7384912E+02  0.7546771E-02  0.1347472E+00
         21   -1    0    0  506  501  0.00000000000E+00  0.00000000000E+00  0.61814732498E+03  0.61814732498E+03  0.00000000000E+00 0. -1.
         21   -1    0    0  505  502 -0.00000000000E+00 -0.00000000000E+00 -0.11046297107E+03  0.11046297107E+03  0.00000000000E+00 0. -1.
         21    1    1    2  503  502  0.31758901886E+02 -0.52595993308E+02 -0.54170452535E+02  0.81910953413E+02  0.00000000000E+00 0. -1.
         21    1    1    2  504  501 -0.24937248186E+02  0.17801015537E+02  0.31405344746E+03  0.31554446654E+03  0.00000000000E+00 0. -1.
         21    1    1    2  505  504 -0.41770687823E+02  0.10783789873E+03  0.68481917570E+02  0.13440080281E+03  0.00000000000E+00 0. -1.
         21    1    1    2  506  503  0.34949034123E+02 -0.73042920955E+02  0.17931944141E+03  0.19675407329E+03  0.00000000000E+00 0. -1.
<scales pt_clust_3="60.15717" pt_clust_4="30.63891" pt_clust_5="14000.00000" pt_clust_6="73.84912"></scales>
<clustering>
<clus scale="   30.639">  1  4  2 -1</clus>
<clus scale="   60.157">  2  3  1 -1</clus>
<clus scale="   73.849">  1  6  2 -1</clus>
<clus scale="   30.639">  1  3  2 -1</clus>
</clustering>
</event>
<event>
 6    0  0.8777103E+002  0.1471129E+03  0.7546771E-02  0.1204066E+00
         21   -1    0    0  505  501  0.00000000000E+00  0.00000000000E+00  0.12713997318E+04  0.12713997318E+04  0.00000000000E+00 0.  1.
         21   -1    0    0  501  502 -0.00000000000E+00 -0.00000000000E+00 -0.84254672738E+02  0.84254672738E+02  0.00000000000E+00 0. -1.
         21    1    1    2  503  506 -0.53860218777E+02 -0.13670444873E+02  0.25419882442E+03  0.26020154989E+03  0.00000000000E+00 0.  1.
         21    1    1    2  504  502  0.25290690961E+02  0.61385241443E+02 -0.39011705467E+02  0.77004415976E+02  0.00000000000E+00 0. -1.
         21    1    1    2  505  503 -0.69706830140E+02 -0.60438929696E+02  0.87485810063E+03  0.87970938533E+03  0.00000000000E+00 0.  1.
         21    1    1    2  506  504  0.98276357956E+02  0.12724133126E+02  0.97099839492E+02  0.13873905336E+03  0.00000000000E+00 0.  1.
<scales pt_clust_3="48.25677" pt_clust_4="66.39102" pt_clust_5="48.25677" pt_clust_6="133.32603"></scales>
<clustering>
<clus scale="   48.257">  3  5 -1 -1</clus>
<clus scale="   66.391">  2  4  1 -1</clus>
<clus scale="  133.326">  2  6  1 -1</clus>
<clus scale="  147.113">  1  3  2 -1</clus>
</clustering>
</event>
<event>
 6    0  0.8777103E+002  0.2347452E+03  0.7546771E-02  0.1123344E+00
         21   -1    0    0  504  501  0.00000000000E+00  0.00000000000E+00  0.93714150184E+02  0.93714150184E+02  0.00000000000E+00 0.  1.
         21   -1    0    0  503  502 -0.00000000000E+00 -0.00000000000E+00 -0.98611414660E+03  0.98611414660E+03  0.00000000000E+00 0.  1.
         21    1    1    2  503  506  0.15007818653E+02  0.48941832221E+02 -0.11467474143E+03  0.12558198073E+03  0.00000000000E+00 0.  1.
         21    1    1    2  504  505  0.42361222248E+02  0.99023783506E-01 -0.23490604996E+02  0.48438532999E+02  0.00000000000E+00 0.  1.
         21    1    1    2  505  502  0.20666853022E+03 -0.72950430444E+02 -0.46129148433E+03  0.51070880176E+03  0.00000000000E+00 0.  1.
         21    1    1    2  506  501 -0.26403757112E+03  0.23909574440E+02 -0.29294316566E+03  0.39509898129E+03  0.00000000000E+00 0.  1.
<scales pt_clust_3="52.10211" pt_clust_4="42.36134" pt_clust_5="234.74518" pt_clust_6="14000.00000"></scales>
<clustering>
<clus scale="   42.361">  1  4  2 -1</clus>
<clus scale="   52.102">  2  3  1 -1</clus>
<clus scale="  234.745">  2  5  1 -1</clus>
<clus scale="   42.361">  1  3  2 -1</clus>
</clustering>
</event>
<event>
 6    0  0.8777103E+002  0.2242381E+03  0.7546771E-02  0.1130762E+00
         21   -1    0    0  505  501  0.00000000000E+00  0.00000000000E+00  0.18999748862E+04  0.18999748862E+04  0.00000000000E+00 0.  1.
         21   -1    0    0  503  502 -0.00000000000E+00 -0.00000000000E+00 -0.28860757028E+03  0.28860757028E+03  0.00000000000E+00 0. -1.
         21    1    1    2  503  504 -0.67915705065E+02 -0.11217468786E+03  0.31172402555E+03  0.33818274896E+03  0.00000000000E+00 0. -1.
         21    1    1    2  504  501 -0.66870383542E+02 -0.65799250333E+02  0.15227163811E+04  0.15256036074E+04  0.00000000000E+00 0.  1.
         21    1    1    2  505  506 -0.11927830507E+01  0.41474539476E+02 -0.56524469428E+02  0.70118298613E+02  0.00000000000E+00 0.  1.
         21    1    1    2  506  502  0.13597887166E+03  0.13649939872E+03 -0.16654862124E+03  0.25467780160E+03  0.00000000000E+00 0. -1.
<scales pt_clust_3="210.69849" pt_clust_4="93.81466" pt_clust_5="35.61135" pt_clust_6="35.61135"></scales>
<clustering>
<clus scale="   35.611">  5  6 -1 -1</clus>
<clus scale="   93.815">  1  4  2 -1</clus>
<clus scale="  210.698">  1  3  2 -1</clus>
<clus scale="   93.815">  1  3  2 -1</clus>
</clustering>
</event>
<event>
 6    0  0.8777103E+002  0.1520243E+03  0.7546771E-02  0.1198007E+00
         21   -1    0    0  504  501  0.00000000000E+00  0.00000000000E+00  0.45158954234E+03  0.45158954234E+03  0.00000000000E+00 0. -1.
         21   -1    0    0  505  502 -0.00000000000E+00 -0.00000000000E+00 -0.28045736884E+03  0.28045736884E+03  0.00000000000E+00 0. -1.
         21    1    1    2  503  502 -0.94767074860E+02 -0.10577590539E+03  0.36155476039E+03  0.38844714621E+03  0.00000000000E+00 0. -1.
         21    1    1    2  504  503 -0.32469689843E+02  0.47224367379E+01  0.32017690824E+02  0.45844461967E+02  0.00000000000E+00 0.  1.
         21    1    1    2  505  506  0.29064381989E+02  0.34528135343E+02 -0.15477162723E+03  0.16121782478E+03  0.00000000000E+00 0. -1.
         21    1    1    2  506  501  0.98172382714E+02  0.66525333310E+02 -0.67668650491E+02  0.13653747822E+03  0.00000000000E+00 0. -1.
<scales pt_clust_3="152.02426" pt_clust_4="32.81131" pt_clust_5="44.99779" pt_clust_6="14000.00000"></scales>
<clustering>
<clus scale="   32.811">  1  4  2 -1</clus>
<clus scale="   44.998">  2  5  1 -1</clus>
<clus scale="  152.024">  1  3  2 -1</clus>
<clus scale="   32.811">  1  3  2 -1</clus>
</clustering>
</event>
<event>
 6    0  0.8777103E+002  0.1717854E+03  0.7546771E-02  0.1175999E+00
         21   -1    0    0  505  501  0.00000000000E+00  0.00000000000E+00  0.20585094950E+03  0.20585094950E+03  0.00000000000E+00 0. -1.
         21   -1    0    0  504  502 -0.00000000000E+00 -0.00000000000E+00 -0.12454837089E+04  0.12454837089E+04  0.00000000000E+00 0.  1.
         21    1    1    2  503  502 -0.11527751460E+01  0.36777153297E+02 -0.41029229839E+03  0.41193890082E+03  0.00000000000E+00 0.  1.
         21    1    1    2  504  501  0.11283959453E+02 -0.14490915898E+03  0.14718512166E+03  0.20685611457E+03  0.00000000000E+00 0. -1.
         21    1    1    2  505  506 -0.68006494839E+02 -0.79747145144E+01 -0.29881393034E+02  0.74708614373E+02  0.00000000000E+00 0. -1.
         21    1    1    2  506  503  0.57875310532E+02  0.11610672020E+03 -0.74664418959E+03  0.75783102859E+03  0.00000000000E+00 0.  1.
<scales pt_clust_3="30.44821" pt_clust_4="161.99226" pt_clust_5="68.47247" pt_clust_6="30.44821"></scales>
<clustering>
<clus scale="   30.448">  3  6 -1 -1</clus>
<clus scale="   68.472">  1  5  2 -1</clus>
<clus scale="  161.992">  1  4  2 -1</clus>
<clus scale="   68.472">  1  3  2 -1</clus>
</clustering>
</event>
<event>
 6    0  0.8777103E+002  0.2141374E+03  0.7546771E-02  0.1138331E+00
         21   -1    0    0  505  501  0.00000000000E+00  0.00000000000E+00  0.93762383798E+03  0.93762383798E+03  0.00000000000E+00 0. -1.
         21   -1    0    0  501  502 -0.00000000000E+00 -0.00000000000E+00 -0.11702920724E+03  0.11702920724E+03  0.00000000000E+00 0. -1.
         21    1    1    2  503  504 -0.58056735906E+02 -0.20390041284E+02  0.15353727721E+03  0.16540868738E+03  0.00000000000E+00 0. -1.
         21    1    1    2  504  502  0.13685828384E+03  0.16183983456E+03  0.22084383201E+02  0.21309632068E+03  0.00000000000E+00 0. -1.
         21    1    1    2  505  506  0.17236412612E+02 -0.35533573166E+02  0.30194530426E+03  0.30451715142E+03  0.00000000000E+00 0. -1.
         21    1    1    2  506  503 -0.96037960544E+02 -0.10591622011E+03  0.34302766607E+03  0.37163088574E+03  0.00000000000E+00 0. -1.
<scales pt_clust_3="30.32208" pt_clust_4="209.08972" pt_clust_5="39.49340" pt_clust_6="30.32208"></scales>
<clustering>
<clus scale="   30.322">  3  6 -1 -1</clus>
<clus scale="   39.493">  1  5  2 -1</clus>
<clus scale="  209.090">  2  4  1 -1</clus>
<clus scale="   39.493">  1  3  2 -1</clus>
</clustering>
</event>
<event>
 6    0  0.8777103E+002  0.1048376E+03  0.7546771E-02  0.1270440E+00
         21   -1    0    0  504  501  0.00000000000E+00  0.00000000000E+00  0.30347277884E+03  0.30347277884E+03  0.00000000000E+00 0. -1.
         21   -1    0    0  503  502 -0.00000000000E+00 -0.00000000000E+00 -0.47052545328E+03  0.47052545328E+03  0.00000000000E+00 0.  1.
         21    1    1    2  503  506 -0.48879912048E+02  0.38819614012E+01 -0.37129866379E+02  0.61505629039E+02  0.00000000000E+00 0. -1.
         21    1    1    2  504  505  0.65551702020E+02  0.28681304460E+02 -0.19631902208E+03  0.20895167215E+03  0.00000000000E+00 0.  1.
         21    1    1    2  505  502  0.73725743681E+02 -0.21219249315E+02 -0.20413786677E+03  0.21807799172E+03  0.00000000000E+00 0.  1.
         21    1    1    2  506  501 -0.90397533652E+02 -0.11344016547E+02  0.27053408078E+03  0.28546293922E+03  0.00000000000E+00 0. -1.
<scales pt_clust_3="49.03382" pt_clust_4="48.62113" pt_clust_5="48.62113" pt_clust_6="91.95762"></scales>
<clustering>
<clus scale="   48.621">  4  5 -1 -1</clus>
<clus scale="   49.034">  2  3  1 -1</clus>
<clus scale="   91.958">  1  6  2 -1</clus>
<clus scale="   91.958">  1  3  2 -1</clus>
</clustering>
</event>
<event>
 6    0  0.8777103E+002  0.1299402E+03  0.7546771E-02  0.1227544E+00
         21   -1    0    0  505  501  0.00000000000E+00  0.00000000000E+00  0.55110160257E+03  0.55110160257E+03  0.00000000000E+00 0.  1.
         21   -1    0    0  506  502 -0.00000000000E+00 -0.00000000000E+00 -0.11624843885E+03  0.11624843885E+03  0.00000000000E+00 0. -1.
         21    1    1    2  503  501  0.42192102357E+02 -0.23617279184E+02  0.54816271400E+02  0.73094274657E+02  0.00000000000E+00 0.  1.
         21    1    1    2  504  502 -0.14102396108E+03 -0.67944245892E+01 -0.38802660854E+02  0.14642256757E+03  0.00000000000E+00 0. -1.
         21    1    1    2  505  504  0.67543979585E+02 -0.33837796083E+02  0.29815893220E+03  0.30758077715E+03  0.00000000000E+00 0.  1.
         21    1    1    2  506  503  0.31287879138E+02  0.64249499857E+02  0.12068062097E+03  0.14025242205E+03  0.00000000000E+00 0.  1.
<scales pt_clust_3="48.35235" pt_clust_4="129.94022" pt_clust_5="14000.00000" pt_clust_6="71.89536"></scales>
<clustering>
<clus scale="   48.352">  1  3  2 -1</clus>
<clus scale="   71.895">  1  6  2 -1</clus>
<clus scale="  129.940">  2  4  1 -1</clus>
<clus scale="   48.352">  1  3  2 -1</clus>
</clustering>
</event>
<event>
 6    0  0.8777103E+002  0.1391055E+03  0.7546771E-02  0.1214538E+00
         21   -1    0    0  504  501  0.00000000000E+00  0.00000000000E+00  0.54039275005E+03  0.54039275005E+03  0.00000000000E+00 0. -1.
         21   -1    0    0  505  502 -0.00000000000E+00 -0.00000000000E+00 -0.41646589757E+03  0.41646589757E+03  0.00000000000E+00 0.  1.
         21    1    1    2  503  506 -0.62628271646E+01  0.56057582702E+02 -0.14536752431E+03  0.15592752389E+03  0.00000000000E+00 0. -1.
         21    1    1    2  504  503 -0.23366056983E+02 -0.50410828425E+02  0.33650202136E+02  0.64958143025E+02  0.00000000000E+00 0. -1.
         21    1    1    2  505  501  0.89659420190E+02 -0.63410541247E+02  0.47239545254E+03  0.48499192978E+03  0.00000000000E+00 0. -1.
         21    1    1    2  506  502 -0.60030536042E+02  0.57763786970E+02 -0.23675127789E+03  0.25098105093E+03  0.00000000000E+00 0.  1.
<scales pt_clust_3="38.67989" pt_clust_4="55.56280" pt_clust_5="130.92224" pt_clust_6="38.67989"></scales>
<clustering>
<clus scale="   38.680">  3  6 -1 -1</clus>
<clus scale="   55.563">  1  4  2 -1</clus>
<clus scale="  130.922">  1  5  2 -1</clus>
<clus scale="   55.563">  1  3  2 -1</clus>
</clustering>
</event>
<event>
 6    0  0.8777103E+002  0.9584211E+02  0.7546771E-02  0.1289291E+00
         21   -1    0    0  505  501  0.00000000000E+00  0.00000000000E+00  0.84141795794E+02  0.84141795794E+02  0.00000000000E+00 0. -1.
         21   -1    0    0  504  502 -0.00000000000E+00 -0.00000000000E+00 -0.31458458896E+03  0.31458458896E+03  0.00000000000E+00 0. -1.
         21    1    1    2  503  501  0.11781517966E+03 -0.24663322110E+01 -0.48105928328E+02  0.12728189067E+03  0.00000000000E+00 0. -1.
         21    1    1    2  504  506 -0.25435352252E+02 -0.29335843647E+02 -0.93925011194E+02  0.10163393427E+03  0.00000000000E+00 0. -1.
         21    1    1    2  505  502 -0.30738527287E+02 -0.38744406655E+02 -0.18052374376E+02  0.52648592835E+02  0.00000000000E+00 0. -1.
         21    1    1    2  506  503 -0.61641300118E+02  0.70546582513E+02 -0.70359479267E+02  0.11716196698E+03  0.00000000000E+00 0. -1.
<scales pt_clust_3="95.84211" pt_clust_4="38.82717" pt_clust_5="55.78242" pt_clust_6="14000.00000"></scales>
<clustering>
<clus scale="   38.827">  2  4  1 -1</clus>
<clus scale="   55.782">  1  5  2 -1</clus>
<clus scale="   95.842">  1  3  2 -1</clus>
<clus scale="   55.782">  1  3  2 -1</clus>
</clustering>
</event>
<event>
 6    0  0.8777103E+002  0.7479929E+02  0.7546771E-02  0.1344494E+00
         21   -1    0    0  503  501  0.00000000000E+00  0.00000000000E+00  0.11929900699E+03  0.11929900699E+03  0.00000000000E+00 0.  1.
         21   -1    0    0  505  502 -0.00000000000E+00 -0.00000000000E+00 -0.35683898136E+03  0.35683898136E+03  0.00000000000E+00 0. -1.
         21    1    1    2  503  504  0.22259409977E+02 -0.43976619862E+02  0.66245525567E+02  0.82570540053E+02  0.00000000000E+00 0.  1.
         21    1    1    2  504  506 -0.14649362708E+02  0.11306048535E+03 -0.63992542867E+02  0.13073761019E+03  0.00000000000E+00 0.  1.
         21    1    1    2  505  501  0.27402735226E+02 -0.21027995109E+02 -0.33419610219E+02  0.48062010188E+02  0.00000000000E+00 0.  1.
         21    1    1    2  506  502 -0.35012782495E+02 -0.48055870378E+02 -0.20637334685E+03  0.21476782792E+03  0.00000000000E+00 0. -1.
<scales pt_clust_3="50.09472" pt_clust_4="74.79929" pt_clust_5="34.54108" pt_clust_6="14000.00000"></scales>
<clustering>
<clus scale="   34.541">  2  5  1 -1</clus>
<clus scale="   50.095">  1  3  2 -1</clus>
<clus scale="   74.799">  1  4  2 -1</clus>
<clus scale="   50.095">  1  3  2 -1</clus>
</clustering>
</event>
<event>
 6    0  0.8777103E+002  0.1166744E+03  0.7546771E-02  0.1248686E+00
         21   -1    0    0  506  501  0.00000000000E+00  0.00000000000E+00  0.95300375974E+02  0.95300375974E+02  0.00000000000E+00 0.  1.
         21   -1    0    0  503  502 -0.00000000000E+00 -0.00000000000E+00 -0.40239213173E+03  0.40239213173E+03  0.00000000000E+00 0.  1.
         21    1    1    2  503  501  0.10342707857E+03  0.21966988045E+02  0.23547666552E+02  0.10832452052E+03  0.00000000000E+00 0.  1.
         21    1    1    2  504  502 -0.10974101013E+02 -0.67483722401E+02 -0.20812858233E+03  0.21907074306E+03  0.00000000000E+00 0.  1.
         21    1    1    2  505  504 -0.53660868656E+02 -0.38126600784E+01 -0.42185456411E+02  0.68364010520E+02  0.00000000000E+00 0.  1.
         21    1    1    2  506  505 -0.38792108901E+02  0.49329394434E+02 -0.80325383563E+02  0.10193323360E+03  0.00000000000E+00 0.  1.
<scales pt_clust_3="101.19289" pt_clust_4="68.37020" pt_clust_5="53.77168" pt_clust_6="53.77168"></scales>
<clustering>
<clus scale="   53.772">  5  6 -1 -1</clus>
<clus scale="   68.370">  2  4  1 -1</clus>
<clus scale="  101.193">  1  3  2 -1</clus>
<clus scale="  101.193">  1  3  2 -1</clus>
</clustering>
</event>
<event>
 6    0  0.8777103E+002  0.2512898E+03  0.7546771E-02  0.1112492E+00
         21   -1    0    0  505  501  0.00000000000E+00  0.00000000000E+00  0.19113810048E+04  0.19113810048E+04  0.00000000000E+00 0. -1.
         21   -1    0    0  503  502 -0.00000000000E+00 -0.00000000000E+00 -0.14418557483E+03  0.14418557483E+03  0.00000000000E+00 0.  1.
         21    1    1    2  503  501 -0.33772148032E+02  0.26938693002E+02  0.53156056366E+02  0.68496842933E+02  0.00000000000E+00 0. -1.
         21    1    1    2  504  502  0.19537418548E+02 -0.29368924801E+02 -0.28380990869E+02  0.45273889939E+02  0.00000000000E+00 0.  1.
         21    1    1    2  505  506 -0.16686598337E+03  0.18691005130E+03  0.16474392205E+04  0.16663839920E+04  0.00000000000E+00 0. -1.
         21    1    1    2  506  504  0.18110071285E+03 -0.18447981950E+03  0.94981143934E+02  0.27541185468E+03  0.00000000000E+00 0.  1.
<scales pt_clust_3="40.80768" pt_clust_4="35.27385" pt_clust_5="251.28985" pt_clust_6="14000.00000"></scales>
<clustering>
<clus scale="   35.274">  2  4  1 -1</clus>
<clus scale="   40.808">  2  3  1 -1</clus>
<clus scale="  251.290">  1  5  2 -1</clus>
<clus scale="  251.290">  1  3  2 -1</clus>
</clustering>
</event>
<event>
 6    0  0.8777103E+002  0.1012631E+03  0.7546771E-02  0.1277662E+00
         21   -1    0    0  504  501  0.00000000000E+00  0.00000000000E+00  0.10449462437E+04  0.10449462437E+04  0.00000000000E+00 0.  1.
         21   -1    0    0  506  502 -0.00000000000E+00 -0.00000000000E+00 -0.19559335581E+03  0.19559335581E+03  0.00000000000E+00 0.  1.
         21    1    1    2  503  505  0.96460104755E+02 -0.18573844840E+02  0.19928736569E+03  0.22218234324E+03  0.00000000000E+00 0.  1.
         21    1    1    2  504  502 -0.93239542490E+02  0.15227026447E+02  0.47434062174E+03  0.48365742014E+03  0.00000000000E+00 0. -1.
         21    1    1    2  505  501 -0.80217523357E+01  0.43808078294E+02  0.35147653981E+03  0.35428696599E+03  0.00000000000E+00 0.  1.
         21    1    1    2  506  503  0.48011900709E+01 -0.40461259901E+02 -0.17575163935E+03  0.18041287015E+03  0.00000000000E+00 0.  1.
<scales pt_clust_3="101.26309" pt_clust_4="14000.00000" pt_clust_5="41.27379" pt_clust_6="40.74512"></scales>
<clustering>
<clus scale="   40.745">  2  6  1 -1</clus>
<clus scale="   41.274">  1  5  2 -1</clus>
<clus scale="  101.263">  2  3  1 -1</clus>
<clus scale="   41.274">  1  3  2 -1</clus>
</clustering>
</event>
<event>
 6    0  0.8777103E+002  0.2088414E+03  0.7546771E-02  0.1142487E+00
         21   -1    0    0  505  501  0.00000000000E+00  0.00000000000E+00  0.28777968629E+03  0.28777968629E+03  0.00000000000E+00 0.  1.
         21   -1    0    0  506  502 -0.00000000000E+00 -0.00000000000E+00 -0.41304463899E+03  0.41304463899E+03  0.00000000000E+00 0.  1.
         21    1    1    2  503  504  0.74485506553E+02 -0.18291424160E+02 -0.10718185134E+03  0.13179763329E+03  0.00000000000E+00 0.  1.
         21    1    1    2  504  502  0.74088677798E+02 -0.10823025324E+03 -0.19475349764E+03  0.23480171366E+03  0.00000000000E+00 0.  1.
         21    1    1    2  505  503 -0.23940238026E+02 -0.34815563629E+02  0.11300314213E+03  0.12064397457E+03  0.00000000000E+00 0.  1.
         21    1    1    2  506  501 -0.12463394632E+03  0.16133724103E+03  0.63667254153E+02  0.21358100377E+03  0.00000000000E+00 0.  1.
<scales pt_clust_3="54.11808" pt_clust_4="54.11808" pt_clust_5="42.25232" pt_clust_6="196.12915"></scales>
<clustering>
<clus scale="   42.252">  1  5  2 -1</clus>
<clus scale="   54.118">  3  4 -1 -1</clus>
<clus scale="  196.129">  1  6  2 -1</clus>
<clus scale="   42.252">  1  3  2 -1</clus>
</clustering>
</event>
<event>
 6    0  0.8777103E+002  0.7005879E+02  0.7546771E-02  0.1359893E+00
         21   -1    0    0  505  501  0.00000000000E+00  0.00000000000E+00  0.65699285371E+03  0.65699285371E+03  0.00000000000E+00 0.  1.
         21   -1    0    0  504  502 -0.00000000000E+00 -0.00000000000E+00 -0.76877719010E+02  0.76877719010E+02  0.00000000000E+00 0.  1.
         21    1    1    2  503  501 -0.62381425218E+02  0.39902998284E-01  0.61986558648E+02  0.87941897054E+02  0.00000000000E+00 0. -1.
         21    1    1    2  504  503 -0.35117444270E+02 -0.25416521765E+02 -0.27938892956E+02  0.51573406038E+02  0.00000000000E+00 0.  1.
         21    1    1    2  505  506  0.58192609307E+02 -0.46029891880E+02  0.48961530636E+03  0.49520528970E+03  0.00000000000E+00 0.  1.
         21    1    1    2  506  502  0.39306260181E+02  0.71406510647E+02  0.56452162650E+02  0.99149979930E+02  0.00000000000E+00 0.  1.
<scales pt_clust_3="14000.00000" pt_clust_4="43.35014" pt_clust_5="70.05879" pt_clust_6="59.91837"></scales>
<clustering>
<clus scale="   43.350">  2  4  1 -1</clus>
<clus scale="   59.918">  2  6  1 -1</clus>
<clus scale="   70.059">  1  5  2 -1</clus>
<clus scale="   70.059">  1  3  2 -1</clus>
</clustering>
</event>
<event>
 6    0  0.8777103E+002  0.1312379E+03  0.7546771E-02  0.1225630E+00
         21   -1    0    0  506  501  0.00000000000E+00  0.00000000000E+00  0.19165508893E+03  0.19165508893E+03  0.00000000000E+00 0.  1.
         21   -1    0    0  503  502 -0.00000000000E+00 -0.00000000000E+00 -0.54385470436E+03  0.54385470436E+03  0.00000000000E+00 0. -1.
         21    1    1    2  503  504  0.26217736728E+02 -0.11641679771E+03 -0.33839474707E+03  0.35881923771E+03  0.00000000000E+00 0. -1.
         21    1    1    2  504  501  0.48652414267E+02 -0.33267231758E+01 -0.26467033322E+02  0.55485388653E+02  0.00000000000E+00 0.  1.
         21    1    1    2  505  502 -0.79532081199E+02 -0.11542131955E+02 -0.11349672908E+03  0.13906861710E+03  0.00000000000E+00 0. -1.
         21    1    1    2  506  505  0.46619302046E+01  0.13128565284E+03  0.12615889404E+03  0.18213654982E+03  0.00000000000E+00 0.  1.
<scales pt_clust_3="14000.00000" pt_clust_4="48.76602" pt_clust_5="76.92811" pt_clust_6="131.23785"></scales>
<clustering>
<clus scale="   48.766">  1  4  2 -1</clus>
<clus scale="   76.928">  2  5  1 -1</clus>
<clus scale="  131.238">  1  6  2 -1</clus>
<clus scale="   48.766">  1  3  2 -1</clus>
</clustering>
</event>
<event>
 6    0  0.8777103E+002  0.8425377E+02  0.7546771E-02  0.1317396E+00
         21   -1    0    0  503  501  0.00000000000E+00  0.00000000000E+00  0.44987473783E+03  0.44987473783E+03  0.00000000000E+00 0.  1.
         21   -1    0    0  506  502 -0.00000000000E+00 -0.00000000000E+00 -0.51987173709E+02  0.51987173709E+02  0.00000000000E+00 0.  1.
         21    1    1    2  503  502  0.10529360928E+03 -0.11654892792E+02  0.17703547351E+03  0.20631078392E+03  0.00000000000E+00 0.  1.
         21    1    1    2  504  501  0.64573474184E+01  0.35883700887E+02  0.13814036273E+03  0.14287091076E+03  0.00000000000E+00 0.  1.
         21    1    1    2  505  504 -0.66977571958E+02 -0.10805596158E+02  0.81337675993E+02  0.10591776806E+03  0.00000000000E+00 0.  1.
         21    1    1    2  506  505 -0.44773384743E+02 -0.13423211937E+02  0.13740518912E+01  0.46762448809E+02  0.00000000000E+00 0.  1.
<scales pt_clust_3="14000.00000" pt_clust_4="36.46008" pt_clust_5="84.25377" pt_clust_6="45.52969"></scales>
<clustering>
<clus scale="   36.460">  1  4  2 -1</clus>
<clus scale="   45.530">  2  6  1 -1</clus>
<clus scale="   84.254">  1  5  2 -1</clus>
<clus scale="   36.460">  1  3  2 -1</clus>
</clustering>
</event>
<event>
 6    0  0.8777103E+002  0.1717150E+03  0.7546771E-02  0.1176071E+00
         21   -1    0    0  505  501  0.00000000000E+00  0.00000000000E+00  0.35120522746E+03  0.35120522746E+03  0.00000000000E+00 0. -1.
         21   -1    0    0  504  502 -0.00000000000E+00 -0.00000000000E+00 -0.31045479620E+03  0.31045479620E+03  0.00000000000E+00 0. -1.
         21    1    1    2  503  506  0.68561216719E+02  0.14216205980E+03 -0.43352124300E+02  0.16367681072E+03  0.00000000000E+00 0. -1.
         21    1    1    2  504  503 -0.72223574352E+02 -0.17102394503E+03 -0.17310129618E+02  0.18645394888E+03  0.00000000000E+00 0. -1.
         21    1    1    2  505  502  0.35824016957E+02  0.22563227494E+02 -0.99410006615E+02  0.10805002934E+03  0.00000000000E+00 0. -1.
         21    1    1    2  506  501 -0.32161659324E+02  0.62986577348E+01  0.20082269180E+03  0.20347923471E+03  0.00000000000E+00 0. -1.
<scales pt_clust_3="14000.00000" pt_clust_4="171.71498" pt_clust_5="41.65110" pt_clust_6="32.77263"></scales>
<clustering>
<clus scale="   32.773">  1  6  2 -1</clus>
<clus scale="   41.651">  2  5  1 -1</clus>
<clus scale="  171.715">  2  4  1 -1</clus>
<clus scale="   32.773">  1  3  2 -1</clus>
</clustering>
</event>
<event>
 6    0  0.8777103E+002  0.1477419E+03  0.7546771E-02  0.1203276E+00
         21   -1    0    0  506  501  0.00000000000E+00  0.00000000000E+00  0.10493144834E+03  0.10493144834E+03  0.00000000000E+00 0.  1.
         21   -1    0    0  505  502 -0.00000000000E+00 -0.00000000000E+00 -0.25983079492E+04  0.25983079492E+04  0.00000000000E+00 0. -1.
         21    1    1    2  503  502 -0.21384149112E+02  0.13861142249E+03 -0.29503693969E+03  0.32667599247E+03  0.00000000000E+00 0.  1.
         21    1    1    2  504  503  0.79663461616E+02 -0.18014263236E+03 -0.29049446728E+03  0.35097673802E+03  0.00000000000E+00 0.  1.
         21    1    1    2  505  501 -0.29507753577E+02 -0.42435093031E+02 -0.19327176605E+04  0.19334086479E+04  0.00000000000E+00 0. -1.
         21    1    1    2  506  504 -0.28771558928E+02  0.83966302895E+02  0.24872566676E+02  0.92178019061E+02  0.00000000000E+00 0.  1.
<scales pt_clust_3="14000.00000" pt_clust_4="147.74189" pt_clust_5="51.68602" pt_clust_6="87.23749"></scales>
<clustering>
<clus scale="   51.686">  2  5  1 -1</clus>
<clus scale="   87.237">  1  6  2 -1</clus>
<clus scale="  147.742">  1  4  2 -1</clus>
<clus scale="   87.237">  1  3  2 -1</clus>
</clustering>
</event>
<event>
 6    0  0.8777103E+002  0.1391014E+03  0.7546771E-02  0.1214543E+00
         21   -1    0    0  504  501  0.00000000000E+00  0.00000000000E+00  0.58825580686E+03  0.58825580686E+03  0.00000000000E+00 0.  1.
         21   -1    0    0  503  502 -0.00000000000E+00 -0.00000000000E+00 -0.17226858589E+04  0.17226858589E+04  0.00000000000E+00 0.  1.
         21    1    1    2  503  506 -0.13084664217E+03  0.58262354722E+02 -0.13608520290E+04  0.13683689526E+04  0.00000000000E+00 0.  1.
         21    1    1    2  504  505  0.67584736985E+02  0.77735649144E+02  0.37700901636E+03  0.39082774497E+03  0.00000000000E+00 0.  1.
         21    1    1    2  505  502  0.87134281007E+02 -0.10379741502E+03 -0.33586726400E+03  0.36217827836E+03  0.00000000000E+00 0.  1.
         21    1    1    2  506  501 -0.23872375826E+02 -0.32200588846E+02  0.18528022459E+03  0.18956668978E+03  0.00000000000E+00 0.  1.
<scales pt_clust_3="14000.00000" pt_clust_4="64.79879" pt_clust_5="139.10140" pt_clust_6="40.08451"></scales>
<clustering>
<clus scale="   40.085">  1  6  2 -1</clus>
<clus scale="   64.799">  1  4  2 -1</clus>
<clus scale="  139.101">  1  5  2 -1</clus>
<clus scale="   40.085">  1  3  2 -1</clus>
</clustering>
</event>
<event>
 6    0  0.8777103E+002  0.1368926E+03  0.7546771E-02  0.1217572E+00
         21   -1    0    0  505  501  0.00000000000E+00  0.00000000000E+00  0.10134013437E+04  0.10134013437E+04  0.00000000000E+00 0. -1.
         21   -1    0    0  504  502 -0.00000000000E+00 -0.00000000000E+00 -0.44561846920E+03  0.44561846920E+03  0.00000000000E+00 0.  1.
         21    1    1    2  503  501  0.36582807240E+02 -0.13380180093E+03  0.96510021802E+03  0.97501777140E+03  0.00000000000E+00 0. -1.
         21    1    1    2  504  503  0.30145642873E+02  0.13384840627E+02 -0.38369634836E+01  0.33205963796E+02  0.00000000000E+00 0. -1.
         21    1    1    2  505  506 -0.90779130674E+02  0.68798755146E+02 -0.99166339249E+02  0.15102344889E+03  0.00000000000E+00 0.  1.
         21    1    1    2  506  502  0.24050680560E+02  0.51618205162E+02 -0.29431404082E+03  0.29977262878E+03  0.00000000000E+00 0.  1.
<scales pt_clust_3="14000.00000" pt_clust_4="32.98354" pt_clust_5="136.89258" pt_clust_6="75.75384"></scales>
<clustering>
<clus scale="   32.984">  2  4  1 -1</clus>
<clus scale="   75.754">  2  6  1 -1</clus>
<clus scale="  136.893">  2  5  1 -1</clus>
<clus scale="  136.893">  1  3  2 -1</clus>
</clustering>
</event>
<event>
 6    0  0.8777103E+002  0.1036305E+03  0.7546771E-02  0.1272842E+00
         21   -1    0    0  506  501  0.00000000000E+00  0.00000000000E+00  0.26541303680E+03  0.26541303680E+03  0.00000000000E+00 0.  1.
         21   -1    0    0  503  502 -0.00000000000E+00 -0.00000000000E+00 -0.19206231928E+03  0.19206231928E+03  0.00000000000E+00 0.  1.
         21    1    1    2  503  505  0.24561876939E+02 -0.25607476651E+02 -0.82052450641E+02  0.89395935677E+02  0.00000000000E+00 0.  1.
         21    1    1    2  504  501 -0.43458792654E+01 -0.10761130137E+03  0.18168242798E+03  0.21120507448E+03  0.00000000000E+00 0.  1.
         21    1    1    2  505  504  0.40824616917E+01  0.40595504991E+02 -0.43434778348E+02  0.59592293874E+02  0.00000000000E+00 0. -1.
         21    1    1    2  506  502 -0.24298459366E+02  0.92623273033E+02  0.17155518525E+02  0.97282052049E+02  0.00000000000E+00 0.  1.
<scales pt_clust_3="35.48279" pt_clust_4="14000.00000" pt_clust_5="32.40514" pt_clust_6="103.63052"></scales>
<clustering>
<clus scale="   35.483">  2  3  1 -1</clus>
<clus scale="   32.405">  2  5  1 -1</clus>
<clus scale="  103.631">  2  6  1 -1</clus>
<clus scale="  103.631">  1  3  2 -1</clus>
</clustering>
</event>
<event>
 6    0  0.8777103E+002  0.1560466E+03  0.7546771E-02  0.1193234E+00
         21   -1    0    0  506  501  0.00000000000E+00  0.00000000000E+00  0.22011889610E+03  0.22011889610E+03  0.00000000000E+00 0. -1.
         21   -1    0    0  503  502 -0.00000000000E+00 -0.00000000000E+00 -0.15382658010E+04  0.15382658010E+04  0.00000000000E+00 0. -1.
         21    1    1    2  503  505  0.87402739143E+02  0.21147676630E+02 -0.13040484825E+04  0.13071453277E+04  0.00000000000E+00 0. -1.
         21    1    1    2  504  501  0.10550389050E+03  0.39111017948E+02 -0.56488491748E+02  0.12590350406E+03  0.00000000000E+00 0. -1.
         21    1    1    2  505  504 -0.59253052399E+02  0.69085048384E+02 -0.63814367677E+02  0.11115728339E+03  0.00000000000E+00 0. -1.
         21    1    1    2  506  502 -0.13365357724E+03 -0.12934374296E+03  0.10620443697E+03  0.21417858200E+03  0.00000000000E+00 0. -1.
<scales pt_clust_3="89.92476" pt_clust_4="14000.00000" pt_clust_5="81.43115" pt_clust_6="156.04664"></scales>
<clustering>
<clus scale="   89.925">  2  3  1 -1</clus>
<clus scale="   81.431">  2  5  1 -1</clus>
<clus scale="  156.047">  1  6  2 -1</clus>
<clus scale="  156.047">  1  3  2 -1</clus>
</clustering>
</event>
<event>
 6    0  0.8777103E+002  0.7085931E+02  0.7546771E-02  0.1357195E+00
         21   -1    0    0  503  501  0.00000000000E+00  0.00000000000E+00  0.57632828321E+03  0.57632828321E+03  0.00000000000E+00 0. -1.
         21   -1    0    0  504  502 -0.00000000000E+00 -0.00000000000E+00 -0.27305589262E+03  0.27305589262E+03  0.00000000000E+00 0. -1.
         21    1    1    2  503  506 -0.67318756894E+02  0.53562874580E+02  0.33627116187E+03  0.34710098079E+03  0.00000000000E+00 0. -1.
         21    1    1    2  504  505  0.49363342021E+02  0.61639303889E+02 -0.17861610274E+03  0.19529427917E+03  0.00000000000E+00 0. -1.
         21    1    1    2  505  501 -0.79611446014E+00 -0.42382643252E+02  0.20614584612E+03  0.21045909845E+03  0.00000000000E+00 0. -1.
         21    1    1    2  506  502  0.18751529333E+02 -0.72819535216E+02 -0.60528514668E+02  0.96529817410E+02  0.00000000000E+00 0. -1.
<scales pt_clust_3="69.52627" pt_clust_4="70.85931" pt_clust_5="42.39012" pt_clust_6="14000.00000"></scales>
<clustering>
<clus scale="   42.390">  1  5  2 -1</clus>
<clus scale="   69.526">  1  3  2 -1</clus>
<clus scale="   70.859">  2  4  1 -1</clus>
<clus scale="   42.390">  1  3  2 -1</clus>
</clustering>
</event>
<event>
 6    0  0.8777103E+002  0.1179698E+03  0.7546771E-02  0.1246484E+00
         21   -1    0    0  504  501  0.00000000000E+00  0.00000000000E+00  0.12262498132E+04  0.12262498132E+04  0.00000000000E+00 0.  1.
         21   -1    0    0  506  502 -0.00000000000E+00 -0.00000000000E+00 -0.35002751208E+03  0.35002751208E+03  0.00000000000E+00 0. -1.
         21    1    1    2  503  501 -0.10887058033E+03  0.45427463589E+02  0.11577681140E+04  0.11637626319E+04  0.00000000000E+00 0.  1.
         21    1    1    2  504  505  0.73941595508E+02 -0.12731705871E+03 -0.83934831175E+02  0.16947580615E+03  0.00000000000E+00 0. -1.
         21    1    1    2  505  502  0.38990275000E+02  0.45021142302E+02 -0.19714458531E+03  0.20594448843E+03  0.00000000000E+00 0. -1.
         21    1    1    2  506  503 -0.40612901757E+01  0.36868452816E+02 -0.46639644539E+00  0.37094398722E+02  0.00000000000E+00 0. -1.
<scales pt_clust_3="117.96978" pt_clust_4="14000.00000" pt_clust_5="76.70476" pt_clust_6="37.09147"></scales>
<clustering>
<clus scale="   37.091">  2  6  1 -1</clus>
<clus scale="   76.705">  2  5  1 -1</clus>
<clus scale="  117.970">  1  3  2 -1</clus>
<clus scale="  117.970">  1  3  2 -1</clus>
</clustering>
</event>
<event>
 6    0  0.8777103E+002  0.7483199E+02  0.7546771E-02  0.1344392E+00
         21   -1    0    0  505  501  0.00000000000E+00  0.00000000000E+00  0.39239020083E+03  0.39239020083E+03  0.00000000000E+00 0.  1.
         21   -1    0    0  506  502 -0.00000000000E+00 -0.00000000000E+00 -0.31941757931E+03  0.31941757931E+03  0.00000000000E+00 0. -1.
         21    1    1    2  503  504 -0.65878477404E+02  0.92470551512E+02  0.30528712237E+02  0.11757031493E+03  0.00000000000E+00 0. -1.
         21    1    1    2  504  502  0.28505252208E+02 -0.66544453761E+02 -0.25872702460E+03  0.26866407833E+03  0.00000000000E+00 0. -1.
         21    1    1    2  505  503 -0.28305905634E+02  0.14682731632E+02  0.17319084369E+03  0.17610188881E+03  0.00000000000E+00 0.  1.
         21    1    1    2  506  501  0.65679130829E+02 -0.40608829383E+02  0.12798009018E+03  0.14947149806E+03  0.00000000000E+00 0. -1.
<scales pt_clust_3="74.83199" pt_clust_4="14000.00000" pt_clust_5="31.88741" pt_clust_6="56.98166"></scales>
<clustering>
<clus scale="   31.887">  1  5  2 -1</clus>
<clus scale="   56.982">  1  6  2 -1</clus>
<clus scale="   74.832">  1  3  2 -1</clus>
<clus scale="   31.887">  1  3  2 -1</clus>
</clustering>
</event>
<event>
 6    0  0.8777103E+002  0.7821170E+02  0.7546771E-02  0.1334204E+00
         21   -1    0    0  503  501  0.00000000000E+00  0.00000000000E+00  0.99290750875E+03  0.99290750875E+03  0.00000000000E+00 0. -1.
         21   -1    0    0  504  502 -0.00000000000E+00 -0.00000000000E+00 -0.60534864418E+02  0.60534864418E+02  0.00000000000E+00 0.  1.
         21    1    1    2  503  505 -0.25231883394E+02  0.59333470006E+02  0.74121002448E+03  0.74400901137E+03  0.00000000000E+00 0. -1.
         21    1    1    2  504  501 -0.37298490242E+02 -0.69564093115E+01  0.78956405530E+02  0.87599560381E+02  0.00000000000E+00 0.  1.
         21    1    1    2  505  506 -0.62145418911E+01 -0.96812556633E+02  0.99556296655E+02  0.13900628711E+03  0.00000000000E+00 0.  1.
         21    1    1    2  506  502  0.68744915528E+02  0.44435495939E+02  0.12649917671E+02  0.82827514313E+02  0.00000000000E+00 0.  1.
<scales pt_clust_3="77.32568" pt_clust_4="37.94165" pt_clust_5="78.21170" pt_clust_6="14000.00000"></scales>
<clustering>
<clus scale="   37.942">  1  4  2 -1</clus>
<clus scale="   77.326">  1  3  2 -1</clus>
<clus scale="   78.212">  1  5  2 -1</clus>
<clus scale="   37.942">  1  3  2 -1</clus>
</clustering>
</event>
<event>
 6    0  0.8777103E+002  0.6689951E+02  0.7546771E-02  0.1370965E+00
         21   -1    0    0  506  501  0.00000000000E+00  0.00000000000E+00  0.45569419599E+03  0.45569419599E+03  0.00000000000E+00 0.  1.
         21   -1    0    0  503  502 -0.00000000000E+00 -0.00000000000E+00 -0.24525715926E+03  0.24525715926E+03  0.00000000000E+00 0.  1.
         21    1    1    2  503  505 -0.33670190049E+02  0.14734409481E+02 -0.50987102187E+02  0.62852757379E+02  0.00000000000E+00 0.  1.
         21    1    1    2  504  502 -0.29449057883E+02 -0.26499172057E+02  0.13914159622E+02  0.41988771927E+02  0.00000000000E+00 0.  1.
         21    1    1    2  505  501  0.11434671811E+03 -0.30239630861E+02 -0.15118169281E+03  0.19195184672E+03  0.00000000000E+00 0.  1.
         21    1    1    2  506  504 -0.51227470177E+02  0.42004393438E+02  0.39869167211E+03  0.40415797923E+03  0.00000000000E+00 0.  1.
<scales pt_clust_3="36.75302" pt_clust_4="40.82354" pt_clust_5="66.89951" pt_clust_6="14000.00000"></scales>
<clustering>
<clus scale="   36.753">  2  3  1 -1</clus>
<clus scale="   40.824">  2  4  1 -1</clus>
<clus scale="   66.900">  2  5  1 -1</clus>
<clus scale="   66.900">  1  3  2 -1</clus>
</clustering>
</event>
<event>
 6    0  0.8777103E+002  0.9294151E+02  0.7546771E-02  0.1295881E+00
         21   -1    0    0  505  501  0.00000000000E+00  0.00000000000E+00  0.45863491127E+03  0.45863491127E+03  0.00000000000E+00 0.  1.
         21   -1    0    0  504  502 -0.00000000000E+00 -0.00000000000E+00 -0.64338984502E+02  0.64338984502E+02  0.00000000000E+00 0.  1.
         21    1    1    2  503  501  0.12799245667E+02 -0.79727541960E+02  0.14060512233E+03  0.16214222788E+03  0.00000000000E+00 0.  1.
         21    1    1    2  504  503 -0.61629003836E+02 -0.10556580027E+02  0.10308066849E+03  0.12056201604E+03  0.00000000000E+00 0.  1.
         21    1    1    2  505  506  0.20448147891E+02  0.11682951049E+03  0.16106869034E+03  0.20002595902E+03  0.00000000000E+00 0.  1.
         21    1    1    2  506  502  0.28381610278E+02 -0.26545388504E+02 -0.10458554388E+02  0.40243692832E+02  0.00000000000E+00 0.  1.
<scales pt_clust_3="92.94151" pt_clust_4="57.67888" pt_clust_5="14000.00000" pt_clust_6="38.86095"></scales>
<clustering>
<clus scale="   38.861">  2  6  1 -1</clus>
<clus scale="   57.679">  2  4  1 -1</clus>
<clus scale="   92.942">  1  3  2 -1</clus>
<clus scale="   92.942">  1  3  2 -1</clus>
</clustering>
</event>
<event>
 6    0  0.8777103E+002  0.7703457E+02  0.7546771E-02  0.1337684E+00
         21   -1    0    0  505  501  0.00000000000E+00  0.00000000000E+00  0.70529794445E+03  0.70529794445E+03  0.00000000000E+00 0.  1.
         21   -1    0    0  504  502 -0.00000000000E+00 -0.00000000000E+00 -0.38826827672E+03  0.38826827672E+03  0.00000000000E+00 0. -1.
         21    1    1    2  503  501  0.52715941076E+02 -0.98279170935E+02  0.56948214760E+03  0.58029964873E+03  0.00000000000E+00 0.  1.
         21    1    1    2  504  503 -0.14773288015E+02  0.27035502687E+02 -0.83253168382E+01  0.31913623185E+02  0.00000000000E+00 0.  1.
         21    1    1    2  505  506  0.12219453862E+02  0.56206762749E+02  0.10959665232E+03  0.12377375098E+03  0.00000000000E+00 0.  1.
         21    1    1    2  506  502 -0.50162106923E+02  0.15036905499E+02 -0.35372381535E+03  0.35757919828E+03  0.00000000000E+00 0. -1.
<scales pt_clust_3="77.03457" pt_clust_4="30.80858" pt_clust_5="57.96924" pt_clust_6="14000.00000"></scales>
<clustering>
<clus scale="   30.809">  2  4  1 -1</clus>
<clus scale="   57.969">  1  5  2 -1</clus>
<clus scale="   77.035">  1  3  2 -1</clus>
<clus scale="   57.969">  1  3  2 -1</clus>
</clustering>
</event>
<event>
 6    0  0.8777103E+002  0.1189744E+03  0.7546771E-02  0.1244799E+00
         21   -1    0    0  505  501  0.00000000000E+00  0.00000000000E+00  0.23658531525E+04  0.23658531525E+04  0.00000000000E+00 0. -1.
         21   -1    0    0  506  502 -0.00000000000E+00 -0.00000000000E+00 -0.16412355634E+02  0.16412355634E+02  0.00000000000E+00 0. -1.
         21    1    1    2  503  504  0.10818314436E+03 -0.46017417035E+02  0.81331342494E+03  0.82176634306E+03  0.00000000000E+00 0. -1.
         21    1    1    2  504  501  0.14827948679E+02  0.65021096983E+02  0.53343957125E+03  0.53759221282E+03  0.00000000000E+00 0. -1.
         21    1    1    2  505  502 -0.13091387671E+03 -0.48284200409E+02  0.96248924680E+03  0.97255095359E+03  0.00000000000E+00 0. -1.
         21    1    1    2  506  503  0.79027836672E+01  0.29280520461E+02  0.40198553913E+02  0.50355998698E+02  0.00000000000E+00 0. -1.
<scales pt_clust_3="118.97436" pt_clust_4="72.24256" pt_clust_5="14000.00000" pt_clust_6="30.32825"></scales>
<clustering>
<clus scale="   30.328">  2  6  1 -1</clus>
<clus scale="   72.243">  1  4  2 -1</clus>
<clus scale="  118.974">  2  3  1 -1</clus>
<clus scale="   72.243">  1  3  2 -1</clus>
</clustering>
</event>
<event>
 6    0  0.8777103E+002  0.1236141E+03  0.7546771E-02  0.1237251E+00
         21   -1    0    0  503  501  0.00000000000E+00  0.00000000000E+00  0.90011944561E+02  0.90011944561E+02  0.00000000000E+00 0.  1.
         21   -1    0    0  506  502 -0.00000000000E+00 -0.00000000000E+00 -0.61400654650E+03  0.61400654650E+03  0.00000000000E+00 0.  1.
         21    1    1    2  503  505  0.39551283353E+02 -0.74371320030E+02 -0.10434075159E+03  0.13409843287E+03  0.00000000000E+00 0.  1.
         21    1    1    2  504  501  0.26529460598E+01 -0.31378034554E+02  0.14806272511E+02  0.34797196453E+02  0.00000000000E+00 0.  1.
         21    1    1    2  505  502 -0.17041325770E+02 -0.73704333110E+02 -0.30022853545E+03  0.30961251428E+03  0.00000000000E+00 0.  1.
         21    1    1    2  506  504 -0.25162903644E+02  0.17945368769E+03 -0.13423158742E+03  0.22551034745E+03  0.00000000000E+00 0.  1.
<scales pt_clust_3="14000.00000" pt_clust_4="31.48999" pt_clust_5="77.80854" pt_clust_6="123.61409"></scales>
<clustering>
<clus scale="   31.490">  1  4  2 -1</clus>
<clus scale="   77.809">  2  5  1 -1</clus>
<clus scale="  123.614">  1  6  2 -1</clus>
<clus scale="   31.490">  1  3  2 -1</clus>
</clustering>
</event>
<event>
 6    0  0.8777103E+002  0.9325956E+02  0.7546771E-02  0.1295145E+00
         21   -1    0    0  506  501  0.00000000000E+00  0.00000000000E+00  0.14541960881E+02  0.14541960881E+02  0.00000000000E+00 0. -1.
         21   -1    0    0  503  502 -0.00000000000E+00 -0.00000000000E+00 -0.21129431778E+04  0.21129431778E+04  0.00000000000E+00 0. -1.
         21    1    1    2  503  504  0.56337005237E+02  0.94859295204E+02 -0.75774356434E+03  0.76573327820E+03  0.00000000000E+00 0. -1.
         21    1    1    2  504  501  0.35873890053E+02 -0.42935074525E+01 -0.47107561234E+02  0.59367436522E+02  0.00000000000E+00 0. -1.
         21    1    1    2  505  502 -0.36755595253E+02 -0.77120844184E+02 -0.97735726142E+03  0.98108399989E+03  0.00000000000E+00 0. -1.
         21    1    1    2  506  505 -0.55455300037E+02 -0.13444943568E+02 -0.31619282990E+03  0.32130042404E+03  0.00000000000E+00 0. -1.
<scales pt_clust_3="14000.00000" pt_clust_4="36.12991" pt_clust_5="93.25956" pt_clust_6="46.94145"></scales>
<clustering>
<clus scale="   36.130">  1  4  2 -1</clus>
<clus scale="   46.941">  1  6  2 -1</clus>
<clus scale="   93.260">  2  5  1 -1</clus>
<clus scale="   36.130">  1  3  2 -1</clus>
</clustering>
</event>
<event>
 6    0  0.8777103E+002  0.1433787E+03  0.7546771E-02  0.1208854E+00
         21   -1    0    0  506  501  0.00000000000E+00  0.00000000000E+00  0.23636698549E+03  0.23636698549E+03  0.00000000000E+00 0. -1.
         21   -1    0    0  505  502 -0.00000000000E+00 -0.00000000000E+00 -0.24773745068E+03  0.24773745068E+03  0.00000000000E+00 0. -1.
         21    1    1    2  503  501  0.93023549874E+01  0.54008651011E+02  0.58872270592E+02  0.80432657777E+02  0.00000000000E+00 0. -1.
         21    1    1    2  504  503  0.98592365974E+02 -0.78093096188E+02 -0.56705484139E+02  0.13796556901E+03  0.00000000000E+00 0. -1.
         21    1    1    2  505  504  0.68406942643E+02  0.42748963863E+02 -0.33405923841E+02  0.87309446573E+02  0.00000000000E+00 0. -1.
         21    1    1    2  506  502 -0.17630166360E+03 -0.18664518686E+02  0.19868672194E+02  0.17839676281E+03  0.00000000000E+00 0. -1.
<scales pt_clust_3="54.80391" pt_clust_4="143.37867" pt_clust_5="86.82012" pt_clust_6="14000.00000"></scales>
<clustering>
<clus scale="   54.804">  1  3  2 -1</clus>
<clus scale="   86.820">  2  5  1 -1</clus>
<clus scale="  143.379">  2  4  1 -1</clus>
<clus scale="   54.804">  1  3  2 -1</clus>
</clustering>
</event>
<event>
 6    0  0.8777103E+002  0.6895546E+03  0.7546771E-02  0.9735264E-01
         21   -1    0    0  503  501  0.00000000000E+00  0.00000000000E+00  0.96342467892E+03  0.96342467892E+03  0.00000000000E+00 0.  1.
         21   -1    0    0  501  502 -0.00000000000E+00 -0.00000000000E+00 -0.28698623344E+04  0.28698623344E+04  0.00000000000E+00 0.  1.
         21    1    1    2  503  506  0.23774947237E+03 -0.70535308576E+03  0.60308786881E+03  0.95799935528E+03  0.00000000000E+00 0.  1.
         21    1    1    2  504  505  0.99992638294E+02  0.22924603480E+03 -0.82076626975E+03  0.85802653907E+03  0.00000000000E+00 0.  1.
         21    1    1    2  505  502 -0.39994570851E+02  0.61930067488E+01 -0.13808253088E+04  0.13814182757E+04  0.00000000000E+00 0.  1.
         21    1    1    2  506  504 -0.29774753981E+03  0.46991404421E+03 -0.30793394575E+03  0.63584284329E+03  0.00000000000E+00 0.  1.
<scales pt_clust_3="689.55463" pt_clust_4="245.28400" pt_clust_5="40.47121" pt_clust_6="14000.00000"></scales>
<clustering>
<clus scale="   40.471">  2  5  1 -1</clus>
<clus scale="  245.284">  2  4  1 -1</clus>
<clus scale="  689.555">  1  3  2 -1</clus>
<clus scale="  689.555">  1  3  2 -1</clus>
</clustering>
</event>
<event>
 6    0  0.8777103E+002  0.1411933E+03  0.7546771E-02  0.1211732E+00
         21   -1    0    0  506  501  0.00000000000E+00  0.00000000000E+00  0.12367604137E+04  0.12367604137E+04  0.00000000000E+00 0. -1.
         21   -1    0    0  504  502 -0.00000000000E+00 -0.00000000000E+00 -0.50340874376E+02  0.50340874376E+02  0.00000000000E+00 0. -1.
         21    1    1    2  503  501  0.87982446166E+02  0.85068815831E+02  0.79678903286E+03  0.80613297733E+03  0.00000000000E+00 0. -1.
         21    1    1    2  504  503  0.23711420720E+02  0.36541174518E+02  0.98516849496E+02  0.10771749413E+03  0.00000000000E+00 0. -1.
         21    1    1    2  505  502 -0.92571289873E+02 -0.15640713846E+03  0.18231007977E+03  0.25742882872E+03  0.00000000000E+00 0. -1.
         21    1    1    2  506  505 -0.19122577012E+02  0.34797148110E+02  0.10880357725E+03  0.11582198794E+03  0.00000000000E+00 0. -1.
<scales pt_clust_3="141.19335" pt_clust_4="45.39598" pt_clust_5="14000.00000" pt_clust_6="39.70535"></scales>
<clustering>
<clus scale="   39.705">  1  6  2 -1</clus>
<clus scale="   45.396">  2  4  1 -1</clus>
<clus scale="  141.193">  1  3  2 -1</clus>
<clus scale="   39.705">  1  3  2 -1</clus>
</clustering>
</event>
<event>
 6    0  0.8777103E+002  0.9224414E+02  0.7546771E-02  0.1297506E+00
         21   -1    0    0  503  501  0.00000000000E+00  0.00000000000E+00  0.63131276261E+03  0.63131276261E+03  0.00000000000E+00 0.  1.
         21   -1    0    0  504  502 -0.00000000000E+00 -0.00000000000E+00 -0.35719397231E+03  0.35719397231E+03  0.00000000000E+00 0.  1.
         21    1    1    2  503  505  0.18001984523E+02 -0.84384052200E+02  0.46018101117E+03  0.46820006702E+03  0.00000000000E+00 0.  1.
         21    1    1    2  504  501 -0.56871143637E+02  0.13098918304E+03  0.12481501241E+03  0.18966096166E+03  0.00000000000E+00 0.  1.
         21    1    1    2  505  506  0.54749609956E+02 -0.12009245748E+02 -0.26579924057E+03  0.27164494852E+03  0.00000000000E+00 0.  1.
         21    1    1    2  506  502 -0.15880450843E+02 -0.34595885096E+02 -0.45077992719E+02  0.59000757725E+02  0.00000000000E+00 0.  1.
<scales pt_clust_3="92.24414" pt_clust_4="14000.00000" pt_clust_5="58.87187" pt_clust_6="38.06657"></scales>
<clustering>
<clus scale="   38.067">  2  6  1 -1</clus>
<clus scale="   58.872">  2  5  1 -1</clus>
<clus scale="   92.244">  1  3  2 -1</clus>
<clus scale="   92.244">  1  3  2 -1</clus>
</clustering>
</event>
<event>
 6    0  0.8777103E+002  0.1550312E+03  0.7546771E-02  0.1194424E+00
         21   -1    0    0  505  501  0.00000000000E+00  0.00000000000E+00  0.96252489687E+03  0.96252489687E+03  0.00000000000E+00 0.  1.
         21   -1    0    0  503  502 -0.00000000000E+00 -0.00000000000E+00 -0.81642374205E+02  0.81642374205E+02  0.00000000000E+00 0.  1.
         21    1    1    2  503  506 -0.13173386085E+03  0.65314520439E+02  0.55785564262E+01  0.14714250564E+03  0.00000000000E+00 0.  1.
         21    1    1    2  504  501  0.38653001787E+02 -0.27487642438E+02  0.24976213612E+03  0.25422578483E+03  0.00000000000E+00 0.  1.
         21    1    1    2  505  502  0.68551726215E+00 -0.42581819445E+02  0.33966108999E+03  0.34232051842E+03  0.00000000000E+00 0.  1.
         21    1    1    2  506  504  0.92395341804E+02  0.47549414436E+01  0.28588074013E+03  0.30047846218E+03  0.00000000000E+00 0.  1.
<scales pt_clust_3="144.71211" pt_clust_4="39.82080" pt_clust_5="42.58734" pt_clust_6="39.82080"></scales>
<clustering>
<clus scale="   39.821">  4  6 -1 -1</clus>
<clus scale="   42.587">  1  5  2 -1</clus>
<clus scale="  144.712">  2  3  1 -1</clus>
<clus scale="   42.587">  1  3  2 -1</clus>
</clustering>
</event>
<event>
 6    0  0.8777103E+002  0.1959625E+03  0.7546771E-02  0.1153191E+00
         21   -1    0    0  505  501  0.00000000000E+00  0.00000000000E+00  0.70505045944E+03  0.70505045944E+03  0.00000000000E+00 0.  1.
         21   -1    0    0  503  502 -0.00000000000E+00 -0.00000000000E+00 -0.37888269776E+03  0.37888269776E+03  0.00000000000E+00 0.  1.
         21    1    1    2  503  506  0.76696288462E+02 -0.15951679158E+03  0.42227985911E+03  0.45787357084E+03  0.00000000000E+00 0.  1.
         21    1    1    2  504  502 -0.43520551152E+02  0.93518278730E+01 -0.31445697064E+02  0.54500705692E+02  0.00000000000E+00 0.  1.
         21    1    1    2  505  504 -0.65685297848E+02  0.15808887799E+03 -0.29377735420E+03  0.34001733123E+03  0.00000000000E+00 0.  1.
         21    1    1    2  506  501  0.32509560538E+02 -0.79239142855E+01  0.22911095384E+03  0.23154154943E+03  0.00000000000E+00 0.  1.
<scales pt_clust_3="14000.00000" pt_clust_4="43.70177" pt_clust_5="195.96252" pt_clust_6="33.46132"></scales>
<clustering>
<clus scale="   33.461">  1  6  2 -1</clus>
<clus scale="   43.702">  2  4  1 -1</clus>
<clus scale="  195.963">  2  5  1 -1</clus>
<clus scale="   33.461">  1  3  2 -1</clus>
</clustering>
</event>
<event>
 6    0  0.8777103E+002  0.1117577E+03  0.7546771E-02  0.1257349E+00
         21   -1    0    0  506  501  0.00000000000E+00  0.00000000000E+00  0.51360821207E+03  0.51360821207E+03  0.00000000000E+00 0. -1.
         21   -1    0    0  503  502 -0.00000000000E+00 -0.00000000000E+00 -0.25991670726E+03  0.25991670726E+03  0.00000000000E+00 0.  1.
         21    1    1    2  503  504 -0.76355754656E+02 -0.83679520741E+02 -0.20961725239E+03  0.23826845355E+03  0.00000000000E+00 0.  1.
         21    1    1    2  504  501  0.71461477164E+02  0.10007302067E+03  0.36666463328E+03  0.38673544638E+03  0.00000000000E+00 0. -1.
         21    1    1    2  505  502  0.35188862970E+02 -0.19750108738E+02 -0.65848495656E+01  0.40886221592E+02  0.00000000000E+00 0. -1.
         21    1    1    2  506  505 -0.30294585478E+02  0.33566088112E+01  0.10322897348E+03  0.10763479781E+03  0.00000000000E+00 0. -1.
<scales pt_clust_3="14000.00000" pt_clust_4="111.75774" pt_clust_5="39.17662" pt_clust_6="30.47997"></scales>
<clustering>
<clus scale="   30.480">  1  6  2 -1</clus>
<clus scale="   39.177">  2  5  1 -1</clus>
<clus scale="  111.758">  1  4  2 -1</clus>
<clus scale="   30.480">  1  3  2 -1</clus>
</clustering>
</event>
<event>
 6    0  0.8777103E+002  0.8513680E+02  0.7546771E-02  0.1315075E+00
         21   -1    0    0  503  501  0.00000000000E+00  0.00000000000E+00  0.15797007612E+03  0.15797007612E+03  0.00000000000E+00 0. -1.
         21   -1    0    0  506  502 -0.00000000000E+00 -0.00000000000E+00 -0.10329171508E+04  0.10329171508E+04  0.00000000000E+00 0. -1.
         21    1    1    2  503  505  0.66748062803E+02 -0.57514795495E+01  0.28534564906E+02  0.72818986531E+02  0.00000000000E+00 0. -1.
         21    1    1    2  504  501 -0.17028064018E+02  0.52519980518E+02  0.73301770666E+02  0.91768474438E+02  0.00000000000E+00 0. -1.
         21    1    1    2  505  502  0.73099098268E+01 -0.88274261258E+02 -0.94464447469E+03  0.94878815525E+03  0.00000000000E+00 0. -1.
         21    1    1    2  506  504 -0.57029908612E+02  0.41505760289E+02 -0.32138935558E+02  0.77511610694E+02  0.00000000000E+00 0. -1.
<scales pt_clust_3="62.69882" pt_clust_4="55.21144" pt_clust_5="14000.00000" pt_clust_6="85.13680"></scales>
<clustering>
<clus scale="   55.211">  1  4  2 -1</clus>
<clus scale="   62.699">  1  3  2 -1</clus>
<clus scale="   85.137">  1  6  2 -1</clus>
<clus scale="   55.211">  1  3  2 -1</clus>
</clustering>
</event>
<event>
 6    0  0.8777103E+002  0.2935003E+03  0.7546771E-02  0.1088536E+00
         21   -1    0    0  505  501  0.00000000000E+00  0.00000000000E+00  0.69744672088E+02  0.69744672088E+02  0.00000000000E+00 0.  1.
         21   -1    0    0  503  502 -0.00000000000E+00 -0.00000000000E+00 -0.26600983753E+04  0.26600983753E+04  0.00000000000E+00 0. -1.
         21    1    1    2  503  504  0.19100318070E+02  0.51146282432E+02 -0.17929311482E+03  0.18742141121E+03  0.00000000000E+00 0.  1.
         21    1    1    2  504  506  0.16393115119E+02 -0.40844439053E+02 -0.11996274325E+03  0.12778130611E+03  0.00000000000E+00 0. -1.
         21    1    1    2  505  502 -0.12218829715E+03  0.21110629796E+03 -0.20872231574E+04  0.21014272193E+04  0.00000000000E+00 0. -1.
         21    1    1    2  506  501  0.86694863964E+02 -0.22140814133E+03 -0.20387468774E+03  0.31321311082E+03  0.00000000000E+00 0.  1.
<scales pt_clust_3="54.59638" pt_clust_4="43.45479" pt_clust_5="275.57316" pt_clust_6="43.45479"></scales>
<clustering>
<clus scale="   43.455">  4  6 -1 -1</clus>
<clus scale="   54.596">  2  3  1 -1</clus>
<clus scale="  275.573">  2  5  1 -1</clus>
<clus scale="  293.500">  1  3  2 -1</clus>
</clustering>
</event>
<event>
 6    0  0.8777103E+002  0.9127607E+02  0.7546771E-02  0.1299791E+00
         21   -1    0    0  506  501  0.00000000000E+00  0.00000000000E+00  0.96412510571E+02  0.96412510571E+02  0.00000000000E+00 0.  1.
         21   -1    0    0  505  502 -0.00000000000E+00 -0.00000000000E+00 -0.80238946050E+03  0.80238946050E+03  0.00000000000E+00 0. -1.
         21    1    1    2  503  501  0.45246056573E+02  0.50428911617E+02  0.59043049998E+02  0.89868584696E+02  0.00000000000E+00 0.  1.
         21    1    1    2  504  503 -0.99702313618E+02  0.43770085322E+01 -0.39078382439E+03  0.40332580745E+03  0.00000000000E+00 0. -1.
         21    1    1    2  505  504 -0.91156701510E+01 -0.33733901132E+02 -0.31273142410E+03  0.31467763688E+03  0.00000000000E+00 0. -1.
         21    1    1    2  506  502  0.63571927196E+02 -0.21072019018E+02 -0.61504751426E+02  0.90929942048E+02  0.00000000000E+00 0. -1.
<scales pt_clust_3="66.76954" pt_clust_4="14000.00000" pt_clust_5="34.94383" pt_clust_6="91.27607"></scales>
<clustering>
<clus scale="   34.944">  2  5  1 -1</clus>
<clus scale="   66.770">  1  3  2 -1</clus>
<clus scale="   91.276">  1  6  2 -1</clus>
<clus scale="   66.770">  1  3  2 -1</clus>
</clustering>
</event>
<event>
 6    0  0.8777103E+002  0.8218538E+02  0.7546771E-02  0.1322962E+00
         21   -1    0    0  504  501  0.00000000000E+00  0.00000000000E+00  0.24204620600E+03  0.24204620600E+03  0.00000000000E+00 0.  1.
         21   -1    0    0  503  502 -0.00000000000E+00 -0.00000000000E+00 -0.13048445293E+04  0.13048445293E+04  0.00000000000E+00 0. -1.
         21    1    1    2  503  506  0.24333420942E+02  0.46946582318E+02 -0.50495628973E+03  0.50771739334E+03  0.00000000000E+00 0. -1.
         21    1    1    2  504  505 -0.10792579189E+02  0.77751500146E+02  0.13574555259E+03  0.15680762287E+03  0.00000000000E+00 0.  1.
         21    1    1    2  505  502  0.28758108129E+02 -0.10971354583E+03 -0.77828974273E+03  0.78651065762E+03  0.00000000000E+00 0. -1.
         21    1    1    2  506  501 -0.42298949882E+02 -0.14984536636E+02  0.84702156514E+02  0.95855061512E+02  0.00000000000E+00 0.  1.
<scales pt_clust_3="52.58079" pt_clust_4="14000.00000" pt_clust_5="82.18538" pt_clust_6="44.87469"></scales>
<clustering>
<clus scale="   44.875">  1  6  2 -1</clus>
<clus scale="   52.581">  2  3  1 -1</clus>
<clus scale="   82.185">  2  5  1 -1</clus>
<clus scale="   44.875">  1  3  2 -1</clus>
</clustering>
</event>
<event>
 6    0  0.8777103E+002  0.1495075E+03  0.7546771E-02  0.1201080E+00
         21   -1    0    0  506  501  0.00000000000E+00  0.00000000000E+00  0.60416847438E+03  0.60416847438E+03  0.00000000000E+00 0.  1.
         21   -1    0    0  504  502 -0.00000000000E+00 -0.00000000000E+00 -0.84965712785E+03  0.84965712785E+03  0.00000000000E+00 0.  1.
         21    1    1    2  503  502  0.36014323931E+02 -0.15300736926E+02 -0.71422749350E+03  0.71529857860E+03  0.00000000000E+00 0.  1.
         21    1    1    2  504  501 -0.10866569100E+03 -0.22428980888E+02  0.18674149883E+03  0.21721804476E+03  0.00000000000E+00 0.  1.
         21    1    1    2  505  503  0.13227030151E+03 -0.15570670284E+02 -0.76777654861E+02  0.15372926436E+03  0.00000000000E+00 0. -1.
         21    1    1    2  506  505 -0.59618934450E+02  0.53300388099E+02  0.35877499606E+03  0.36757971450E+03  0.00000000000E+00 0.  1.
<scales pt_clust_3="39.12984" pt_clust_4="149.50749" pt_clust_5="14000.00000" pt_clust_6="78.76295"></scales>
<clustering>
<clus scale="   39.130">  2  3  1 -1</clus>
<clus scale="   78.763">  1  6  2 -1</clus>
<clus scale="  149.507">  1  4  2 -1</clus>
<clus scale="   78.763">  1  3  2 -1</clus>
</clustering>
</event>
<event>
 6    0  0.8777103E+002  0.1201064E+03  0.7546771E-02  0.1242922E+00
         21   -1    0    0  505  501  0.00000000000E+00  0.00000000000E+00  0.30256547080E+03  0.30256547080E+03  0.00000000000E+00 0.  1.
         21   -1    0    0  501  502 -0.00000000000E+00 -0.00000000000E+00 -0.18039220145E+03  0.18039220145E+03  0.00000000000E+00 0.  1.
         21    1    1    2  503  504  0.93217894191E+02  0.61649171759E+02  0.34745939520E+02  0.11703621871E+03  0.00000000000E+00 0.  1.
         21    1    1    2  504  506 -0.15823032651E+03  0.64893091466E+02  0.91471076185E+02  0.19394562982E+03  0.00000000000E+00 0.  1.
         21    1    1    2  505  503  0.42572803783E+01 -0.31947167091E+02  0.39879604424E+02  0.51275030672E+02  0.00000000000E+00 0.  1.
         21    1    1    2  506  502  0.60755151937E+02 -0.94595096135E+02 -0.43923350788E+02  0.12070079305E+03  0.00000000000E+00 0.  1.
<scales pt_clust_3="107.94415" pt_clust_4="14000.00000" pt_clust_5="32.22958" pt_clust_6="120.10644"></scales>
<clustering>
<clus scale="   32.230">  1  5  2 -1</clus>
<clus scale="  107.944">  1  3  2 -1</clus>
<clus scale="  120.106">  2  6  1 -1</clus>
<clus scale="   32.230">  1  3  2 -1</clus>
</clustering>
</event>
<event>
 6    0  0.8777103E+002  0.1119988E+03  0.7546771E-02  0.1256913E+00
         21   -1    0    0  504  501  0.00000000000E+00  0.00000000000E+00  0.76727734598E+03  0.76727734598E+03  0.00000000000E+00 0.  1.
         21   -1    0    0  506  502 -0.00000000000E+00 -0.00000000000E+00 -0.87397046647E+02  0.87397046647E+02  0.00000000000E+00 0. -1.
         21    1    1    2  503  501  0.39159040206E+02 -0.10648832394E+02  0.14662529941E+03  0.15213745919E+03  0.00000000000E+00 0. -1.
         21    1    1    2  504  505  0.32060440583E+02  0.17364810635E+02  0.44807236908E+03  0.44955339664E+03  0.00000000000E+00 0.  1.
         21    1    1    2  505  502 -0.87238165873E+02 -0.98846035586E+02  0.86059086153E+01  0.13211774294E+03  0.00000000000E+00 0. -1.
         21    1    1    2  506  503  0.16018685084E+02  0.92130057346E+02  0.76576722232E+02  0.12086579386E+03  0.00000000000E+00 0.  1.
<scales pt_clust_3="54.25535" pt_clust_4="36.46105" pt_clust_5="111.99879" pt_clust_6="14000.00000"></scales>
<clustering>
<clus scale="   36.461">  1  4  2 -1</clus>
<clus scale="   54.255">  1  3  2 -1</clus>
<clus scale="  111.999">  2  5  1 -1</clus>
<clus scale="   36.461">  1  3  2 -1</clus>
</clustering>
</event>
<event>
 6    0  0.8777103E+002  0.1147793E+03  0.7546771E-02  0.1251967E+00
         21   -1    0    0  502  501  0.00000000000E+00  0.00000000000E+00  0.21099518074E+03  0.21099518074E+03  0.00000000000E+00 0.  1.
         21   -1    0    0  506  502 -0.00000000000E+00 -0.00000000000E+00 -0.60633147025E+03  0.60633147025E+03  0.00000000000E+00 0.  1.
         21    1    1    2  503  504 -0.11829960614E+03 -0.58780145660E+02  0.77487810489E+02  0.15314784723E+03  0.00000000000E+00 0.  1.
         21    1    1    2  504  501  0.37604369036E+02 -0.15712122619E+02  0.50614137913E+02  0.64982692500E+02  0.00000000000E+00 0.  1.
         21    1    1    2  505  503  0.13685586422E+03 -0.38583125872E+01 -0.11279534602E+03  0.17738997782E+03  0.00000000000E+00 0.  1.
         21    1    1    2  506  505 -0.56160627116E+02  0.78350580866E+02 -0.41064289189E+03  0.42180613345E+03  0.00000000000E+00 0.  1.
<scales pt_clust_3="114.77925" pt_clust_4="40.75487" pt_clust_5="14000.00000" pt_clust_6="95.13905"></scales>
<clustering>
<clus scale="   40.755">  1  4  2 -1</clus>
<clus scale="   95.139">  2  6  1 -1</clus>
<clus scale="  114.779">  1  3  2 -1</clus>
<clus scale="   40.755">  1  3  2 -1</clus>
</clustering>
</event>
<event>
 6    0  0.8777103E+002  0.9283191E+02  0.7546771E-02  0.1296135E+00
         21   -1    0    0  506  501  0.00000000000E+00  0.00000000000E+00  0.86211790300E+03  0.86211790300E+03  0.00000000000E+00 0.  1.
         21   -1    0    0  503  502 -0.00000000000E+00 -0.00000000000E+00 -0.13175895211E+03  0.13175895211E+03  0.00000000000E+00 0.  1.
         21    1    1    2  503  501  0.78475318190E+01 -0.76574917253E+02  0.47082537630E+02  0.90233403225E+02  0.00000000000E+00 0.  1.
         21    1    1    2  504  505 -0.60813778130E+01  0.10139683993E+03  0.22995464452E+03  0.25139101186E+03  0.00000000000E+00 0.  1.
         21    1    1    2  505  502  0.32810959542E+02 -0.18880433212E+02 -0.95282756520E+02  0.10252723304E+03  0.00000000000E+00 0.  1.
         21    1    1    2  506  504 -0.34577113548E+02 -0.59414894641E+01  0.54860452525E+03  0.54972520700E+03  0.00000000000E+00 0.  1.
<scales pt_clust_3="14000.00000" pt_clust_4="92.83191" pt_clust_5="37.54369" pt_clust_6="35.08387"></scales>
<clustering>
<clus scale="   35.084">  1  6  2 -1</clus>
<clus scale="   37.544">  2  5  1 -1</clus>
<clus scale="   92.832">  1  4  2 -1</clus>
<clus scale="   35.084">  1  3  2 -1</clus>
</clustering>
</event>
<event>
 6    0  0.8777103E+002  0.8971757E+02  0.7546771E-02  0.1303537E+00
         21   -1    0    0  506  501  0.00000000000E+00  0.00000000000E+00  0.35844962135E+03  0.35844962135E+03  0.00000000000E+00 0. -1.
         21   -1    0    0  505  502 -0.00000000000E+00 -0.00000000000E+00 -0.54314535560E+03  0.54314535560E+03  0.00000000000E+00 0.  1.
         21    1    1    2  503  502  0.15764486910E+01  0.38280101939E+02 -0.41410719791E+03  0.41587572994E+03  0.00000000000E+00 0.  1.
         21    1    1    2  504  501 -0.43665974706E+02  0.18956316832E+02  0.45728861003E+02  0.66008999564E+02  0.00000000000E+00 0. -1.
         21    1    1    2  505  504  0.37674501204E+02  0.48237444337E+02 -0.99875941618E+02  0.11713847699E+03  0.00000000000E+00 0. -1.
         21    1    1    2  506  503  0.44150248104E+01 -0.10547386311E+03  0.28355854428E+03  0.30257177046E+03  0.00000000000E+00 0. -1.
<scales pt_clust_3="38.31255" pt_clust_4="48.77693" pt_clust_5="14000.00000" pt_clust_6="89.71757"></scales>
<clustering>
<clus scale="   38.313">  2  3  1 -1</clus>
<clus scale="   48.777">  1  4  2 -1</clus>
<clus scale="   89.718">  1  6  2 -1</clus>
<clus scale="   48.777">  1  3  2 -1</clus>
</clustering>
</event>
<event>
 6    0  0.8777103E+002  0.1368423E+03  0.7546771E-02  0.1217642E+00
         21   -1    0    0  505  501  0.00000000000E+00  0.00000000000E+00  0.13831072181E+04  0.13831072181E+04  0.00000000000E+00 0. -1.
         21   -1    0    0  503  502 -0.00000000000E+00 -0.00000000000E+00 -0.57351997760E+02  0.57351997760E+02  0.00000000000E+00 0.  1.
         21    1    1    2  503  506  0.73919581201E+01 -0.66490477250E+02  0.12966863675E+03  0.14590949238E+03  0.00000000000E+00 0. -1.
         21    1    1    2  504  501 -0.14368634072E+03 -0.86664921675E+02  0.23191515194E+03  0.28625375257E+03  0.00000000000E+00 0.  1.
         21    1    1    2  505  502  0.43235971927E+02  0.13024342900E+03  0.84154812136E+03  0.85266402565E+03  0.00000000000E+00 0. -1.
         21    1    1    2  506  504  0.93058410677E+02  0.22911969925E+02  0.12262331032E+03  0.15563194530E+03  0.00000000000E+00 0. -1.
<scales pt_clust_3="66.90011" pt_clust_4="136.84230" pt_clust_5="14000.00000" pt_clust_6="95.53850"></scales>
<clustering>
<clus scale="   66.900">  2  3  1 -1</clus>
<clus scale="   95.539">  2  6  1 -1</clus>
<clus scale="  136.842">  2  4  1 -1</clus>
<clus scale="  136.842">  1  3  2 -1</clus>
</clustering>
</event>
<event>
 6    0  0.8777103E+002  0.9132969E+02  0.7546771E-02  0.1299663E+00
         21   -1    0    0  505  501  0.00000000000E+00  0.00000000000E+00  0.28948723223E+03  0.28948723223E+03  0.00000000000E+00 0.  1.
         21   -1    0    0  506  502 -0.00000000000E+00 -0.00000000000E+00 -0.58352275790E+03  0.58352275790E+03  0.00000000000E+00 0. -1.
         21    1    1    2  503  504  0.99902348077E+02  0.21965647132E+02 -0.10409767098E+03  0.14594277615E+03  0.00000000000E+00 0. -1.
         21    1    1    2  504  501 -0.39338422344E+02  0.47856594977E+02  0.25090556083E+03  0.25844025540E+03  0.00000000000E+00 0.  1.
         21    1    1    2  505  502 -0.91296868392E+02 -0.19030989165E+02 -0.32953203650E+03  0.34247431992E+03  0.00000000000E+00 0. -1.
         21    1    1    2  506  503  0.30732942658E+02 -0.50791252944E+02 -0.11131137902E+03  0.12615263866E+03  0.00000000000E+00 0. -1.
<scales pt_clust_3="14000.00000" pt_clust_4="61.47352" pt_clust_5="91.32969" pt_clust_6="59.36552"></scales>
<clustering>
<clus scale="   59.366">  2  6  1 -1</clus>
<clus scale="   61.474">  1  4  2 -1</clus>
<clus scale="   91.330">  2  5  1 -1</clus>
<clus scale="   61.474">  1  3  2 -1</clus>
</clustering>
</event>
<event>
 6    0  0.8777103E+002  0.1018040E+03  0.7546771E-02  0.1276548E+00
         21   -1    0    0  506  501  0.00000000000E+00  0.00000000000E+00  0.49661470343E+03  0.49661470343E+03  0.00000000000E+00 0. -1.
         21   -1    0    0  503  502 -0.00000000000E+00 -0.00000000000E+00 -0.12437111401E+03  0.12437111401E+03  0.00000000000E+00 0. -1.
         21    1    1    2  503  501  0.47893088749E+02  0.64086952270E+02  0.17541736233E+02  0.81906030982E+02  0.00000000000E+00 0. -1.
         21    1    1    2  504  502  0.40241857643E+02 -0.22321630735E+01 -0.65676117791E+02  0.77056746017E+02  0.00000000000E+00 0. -1.
         21    1    1    2  505  504 -0.13341327370E+03 -0.39562885497E+02  0.27634528856E+03  0.30940433420E+03  0.00000000000E+00 0. -1.
         21    1    1    2  506  505  0.45278327312E+02 -0.22291903699E+02  0.14403268241E+03  0.15261870625E+03  0.00000000000E+00 0. -1.
<scales pt_clust_3="101.80395" pt_clust_4="40.30372" pt_clust_5="14000.00000" pt_clust_6="53.48761"></scales>
<clustering>
<clus scale="   40.304">  2  4  1 -1</clus>
<clus scale="   53.488">  1  6  2 -1</clus>
<clus scale="  101.804">  2  3  1 -1</clus>
<clus scale="   53.488">  1  3  2 -1</clus>
</clustering>
</event>
<event>
 6    0  0.8777103E+002  0.7078851E+02  0.7546771E-02  0.1357432E+00
         21   -1    0    0  502  501  0.00000000000E+00  0.00000000000E+00  0.19515374395E+03  0.19515374395E+03  0.00000000000E+00 0. -1.
         21   -1    0    0  505  502 -0.00000000000E+00 -0.00000000000E+00 -0.29267205985E+03  0.29267205985E+03  0.00000000000E+00 0. -1.
         21    1    1    2  503  504 -0.77420755352E+02 -0.80127976196E+02  0.82456874984E+02  0.13861313849E+03  0.00000000000E+00 0. -1.
         21    1    1    2  504  506  0.44635286816E+02 -0.15465159965E+02  0.32909778332E+02  0.57571985477E+02  0.00000000000E+00 0. -1.
         21    1    1    2  505  503  0.20687970615E+02  0.66321638569E+02 -0.24005806208E+03  0.24990883345E+03  0.00000000000E+00 0. -1.
         21    1    1    2  506  501  0.12097497921E+02  0.29271497593E+02  0.27173092862E+02  0.41731846388E+02  0.00000000000E+00 0. -1.
<scales pt_clust_3="70.78851" pt_clust_4="48.58119" pt_clust_5="14000.00000" pt_clust_6="31.67286"></scales>
<clustering>
<clus scale="   31.673">  1  6  2 -1</clus>
<clus scale="   48.581">  1  4  2 -1</clus>
<clus scale="   70.789">  1  3  2 -1</clus>
<clus scale="   31.673">  1  3  2 -1</clus>
</clustering>
</event>
<event>
 6    0  0.8777103E+002  0.1426175E+03  0.7546771E-02  0.1209850E+00
         21   -1    0    0  503  501  0.00000000000E+00  0.00000000000E+00  0.64091739048E+03  0.64091739048E+03  0.00000000000E+00 0.  1.
         21   -1    0    0  501  502 -0.00000000000E+00 -0.00000000000E+00 -0.25183076158E+03  0.25183076158E+03  0.00000000000E+00 0. -1.
         21    1    1    2  503  504  0.23657630700E+02  0.21206834641E+02  0.46891301897E+03  0.46998811973E+03  0.00000000000E+00 0.  1.
         21    1    1    2  504  506  0.28033517119E+02 -0.62698771864E+02  0.23272300520E+02  0.72516301938E+02  0.00000000000E+00 0. -1.
         21    1    1    2  505  502  0.12914987126E+03  0.21092354529E+02 -0.10573089889E+03  0.16823673691E+03  0.00000000000E+00 0. -1.
         21    1    1    2  506  505 -0.18084101908E+03  0.20399582695E+02  0.26322082959E+01  0.18200699348E+03  0.00000000000E+00 0. -1.
<scales pt_clust_3="31.77127" pt_clust_4="66.50917" pt_clust_5="142.61752" pt_clust_6="14000.00000"></scales>
<clustering>
<clus scale="   31.771">  1  3  2 -1</clus>
<clus scale="   66.509">  1  4  2 -1</clus>
<clus scale="  142.618">  2  5  1 -1</clus>
<clus scale="   31.771">  1  3  2 -1</clus>
</clustering>
</event>
<event>
 6    0  0.8777103E+002  0.7697455E+02  0.7546771E-02  0.1337863E+00
         21   -1    0    0  503  501  0.00000000000E+00  0.00000000000E+00  0.62300227677E+03  0.62300227677E+03  0.00000000000E+00 0. -1.
         21   -1    0    0  506  502 -0.00000000000E+00 -0.00000000000E+00 -0.81925576819E+02  0.81925576819E+02  0.00000000000E+00 0.  1.
         21    1    1    2  503  502 -0.69275688110E+02  0.56700676982E+02  0.43720369820E+03  0.44627476004E+03  0.00000000000E+00 0. -1.
         21    1    1    2  504  501  0.45676057747E+02 -0.66121085103E+01  0.61584354386E+02  0.76958787252E+02  0.00000000000E+00 0.  1.
         21    1    1    2  505  504 -0.60463049581E+02 -0.33417668390E+02  0.63034370114E+02  0.93519264010E+02  0.00000000000E+00 0. -1.
         21    1    1    2  506  505  0.84062679945E+02 -0.16670900081E+02 -0.20745722749E+02  0.88175042282E+02  0.00000000000E+00 0.  1.
<scales pt_clust_3="61.01578" pt_clust_4="46.15216" pt_clust_5="76.97455" pt_clust_6="14000.00000"></scales>
<clustering>
<clus scale="   46.152">  1  4  2 -1</clus>
<clus scale="   61.016">  1  3  2 -1</clus>
<clus scale="   76.975">  1  5  2 -1</clus>
<clus scale="   46.152">  1  3  2 -1</clus>
</clustering>
</event>
<event>
 6    0  0.8777103E+002  0.7136677E+02  0.7546771E-02  0.1355506E+00
         21   -1    0    0  503  501  0.00000000000E+00  0.00000000000E+00  0.38122019619E+03  0.38122019619E+03  0.00000000000E+00 0.  1.
         21   -1    0    0  504  502 -0.00000000000E+00 -0.00000000000E+00 -0.10800734972E+03  0.10800734972E+03  0.00000000000E+00 0.  1.
         21    1    1    2  503  506  0.76953247667E+02 -0.15111770592E+02  0.47164318982E+01  0.78564703695E+02  0.00000000000E+00 0.  1.
         21    1    1    2  504  505 -0.39113284447E+02 -0.64956322663E+02  0.18839789648E+03  0.20308357952E+03  0.00000000000E+00 0.  1.
         21    1    1    2  505  501  0.19431696016E+02  0.39685212377E+02  0.11934360801E+03  0.12726116322E+03  0.00000000000E+00 0.  1.
         21    1    1    2  506  502 -0.57271659236E+02  0.40382880877E+02 -0.39245089916E+02  0.80318099468E+02  0.00000000000E+00 0.  1.
<scales pt_clust_3="14000.00000" pt_clust_4="42.51354" pt_clust_5="44.18718" pt_clust_6="71.36677"></scales>
<clustering>
<clus scale="   44.187">  1  5  2 -1</clus>
<clus scale="   42.514">  1  4  2 -1</clus>
<clus scale="   71.367">  2  6  1 -1</clus>
<clus scale="   44.187">  1  3  2 -1</clus>
</clustering>
</event>
<event>
 6    0  0.8777103E+002  0.1056974E+03  0.7546771E-02  0.1268752E+00
         21   -1    0    0  504  501  0.00000000000E+00  0.00000000000E+00  0.12402206030E+04  0.12402206030E+04  0.00000000000E+00 0.  1.
         21   -1    0    0  505  502 -0.00000000000E+00 -0.00000000000E+00 -0.20486857677E+04  0.20486857677E+04  0.00000000000E+00 0. -1.
         21    1    1    2  503  506  0.63863727845E+02  0.63406164247E+02 -0.15737309195E+04  0.15763019776E+04  0.00000000000E+00 0. -1.
         21    1    1    2  504  503  0.89606257033E+01 -0.34327683016E+02  0.11420223706E+04  0.11425733139E+04  0.00000000000E+00 0.  1.
         21    1    1    2  505  501 -0.11327921329E+03  0.14020385198E+02  0.60233386394E+02  0.12906127305E+03  0.00000000000E+00 0. -1.
         21    1    1    2  506  502  0.40454859739E+02 -0.43098866430E+02 -0.43699000223E+03  0.44096980624E+03  0.00000000000E+00 0. -1.
<scales pt_clust_3="14000.00000" pt_clust_4="35.47792" pt_clust_5="105.69741" pt_clust_6="59.74521"></scales>
<clustering>
<clus scale="   35.478">  1  4  2 -1</clus>
<clus scale="   59.745">  2  6  1 -1</clus>
<clus scale="  105.697">  1  5  2 -1</clus>
<clus scale="   35.478">  1  3  2 -1</clus>
</clustering>
</event>
<event>
 6    0  0.8777103E+002  0.7462631E+02  0.7546771E-02  0.1345032E+00
         21   -1    0    0  504  501  0.00000000000E+00  0.00000000000E+00  0.50777677679E+03  0.50777677679E+03  0.00000000000E+00 0. -1.
         21   -1    0    0  506  502 -0.00000000000E+00 -0.00000000000E+00 -0.13886109774E+03  0.13886109774E+03  0.00000000000E+00 0. -1.
         21    1    1    2  503  501 -0.36501728663E+02 -0.40611541268E+02  0.38041709458E+03  0.38431606696E+03  0.00000000000E+00 0. -1.
         21    1    1    2  504  502  0.35393148625E+02  0.82354093089E+00 -0.14293874917E+02  0.38179419186E+02  0.00000000000E+00 0. -1.
         21    1    1    2  505  503  0.72758903866E+02 -0.23843549660E+02  0.72655917510E+02  0.10555214494E+03  0.00000000000E+00 0. -1.
         21    1    1    2  506  505 -0.71650323828E+02  0.63631549997E+02 -0.69863458119E+02  0.11859024344E+03  0.00000000000E+00 0. -1.
<scales pt_clust_3="54.18640" pt_clust_4="35.40273" pt_clust_5="14000.00000" pt_clust_6="74.62631"></scales>
<clustering>
<clus scale="   35.403">  2  4  1 -1</clus>
<clus scale="   54.186">  1  3  2 -1</clus>
<clus scale="   74.626">  2  6  1 -1</clus>
<clus scale="   54.186">  1  3  2 -1</clus>
</clustering>
</event>
<event>
 6    0  0.8777103E+002  0.1042907E+03  0.7546771E-02  0.1271523E+00
         21   -1    0    0  504  501  0.00000000000E+00  0.00000000000E+00  0.33198590227E+03  0.33198590227E+03  0.00000000000E+00 0. -1.
         21   -1    0    0  503  502 -0.00000000000E+00 -0.00000000000E+00 -0.18610333998E+03  0.18610333998E+03  0.00000000000E+00 0. -1.
         21    1    1    2  503  501 -0.97102345033E+02  0.22466870363E+02  0.24652015613E+02  0.10267106481E+03  0.00000000000E+00 0.  1.
         21    1    1    2  504  505  0.53367944391E+01 -0.58281238655E+02  0.24496129113E+03  0.25185555048E+03  0.00000000000E+00 0. -1.
         21    1    1    2  505  506  0.38513473390E+02 -0.69570815072E-01 -0.25447064281E+02  0.46161082669E+02  0.00000000000E+00 0.  1.
         21    1    1    2  506  502  0.53252077204E+02  0.35883939107E+02 -0.98283680184E+02  0.11740154430E+03  0.00000000000E+00 0. -1.
<scales pt_clust_3="95.58608" pt_clust_4="58.52507" pt_clust_5="32.30336" pt_clust_6="32.30336"></scales>
<clustering>
<clus scale="   32.303">  5  6 -1 -1</clus>
<clus scale="   58.525">  1  4  2 -1</clus>
<clus scale="   95.586">  1  3  2 -1</clus>
<clus scale="   58.525">  1  3  2 -1</clus>
</clustering>
</event>
<event>
 6    0  0.8777103E+002  0.6129214E+02  0.7546771E-02  0.1392488E+00
         21   -1    0    0  505  501  0.00000000000E+00  0.00000000000E+00  0.44604383939E+03  0.44604383939E+03  0.00000000000E+00 0. -1.
         21   -1    0    0  503  502 -0.00000000000E+00 -0.00000000000E+00 -0.19677434763E+03  0.19677434763E+03  0.00000000000E+00 0. -1.
         21    1    1    2  503  504 -0.49696556218E+02  0.25360700962E+01  0.54067307860E+02  0.73480971215E+02  0.00000000000E+00 0. -1.
         21    1    1    2  504  501 -0.33470108723E+02 -0.17643190151E+01  0.15037818110E+03  0.15406803157E+03  0.00000000000E+00 0. -1.
         21    1    1    2  505  506  0.14018416659E+03 -0.17450016039E+02  0.20242464837E+03  0.24684376008E+03  0.00000000000E+00 0. -1.
         21    1    1    2  506  502 -0.57017501649E+02  0.16678264958E+02 -0.15760064557E+03  0.16842542416E+03  0.00000000000E+00 0. -1.
<scales pt_clust_3="57.00196" pt_clust_4="33.51658" pt_clust_5="14000.00000" pt_clust_6="61.29214"></scales>
<clustering>
<clus scale="   33.517">  1  4  2 -1</clus>
<clus scale="   57.002">  1  3  2 -1</clus>
<clus scale="   61.292">  2  6  1 -1</clus>
<clus scale="   33.517">  1  3  2 -1</clus>
</clustering>
</event>
<event>
 6    0  0.8777103E+002  0.8252996E+02  0.7546771E-02  0.1322021E+00
         21   -1    0    0  504  501  0.00000000000E+00  0.00000000000E+00  0.14378684514E+04  0.14378684514E+04  0.00000000000E+00 0. -1.
         21   -1    0    0  503  502 -0.00000000000E+00 -0.00000000000E+00 -0.92615072579E+02  0.92615072579E+02  0.00000000000E+00 0. -1.
         21    1    1    2  503  505  0.27436160662E+00  0.95972135119E+02 -0.15995819939E+02  0.97296414369E+02  0.00000000000E+00 0. -1.
         21    1    1    2  504  506  0.68408336873E+02 -0.55883418345E+02  0.10729376889E+04  0.10765676668E+04  0.00000000000E+00 0. -1.
         21    1    1    2  505  501 -0.82362184913E+02 -0.57765447621E+01  0.30507862124E+03  0.31605357633E+03  0.00000000000E+00 0. -1.
         21    1    1    2  506  502  0.13679486434E+02 -0.34312172012E+02 -0.16767111377E+02  0.40565866455E+02  0.00000000000E+00 0.  1.
<scales pt_clust_3="66.73868" pt_clust_4="14000.00000" pt_clust_5="82.52996" pt_clust_6="36.93851"></scales>
<clustering>
<clus scale="   36.939">  2  6  1 -1</clus>
<clus scale="   66.739">  2  3  1 -1</clus>
<clus scale="   82.530">  2  5  1 -1</clus>
<clus scale="   82.530">  1  3  2 -1</clus>
</clustering>
</event>
<event>
 6    0  0.8777103E+002  0.1105232E+03  0.7546771E-02  0.1259604E+00
         21   -1    0    0  505  501  0.00000000000E+00  0.00000000000E+00  0.71482897905E+02  0.71482897905E+02  0.00000000000E+00 0. -1.
         21   -1    0    0  504  502 -0.00000000000E+00 -0.00000000000E+00 -0.12599591139E+04  0.12599591139E+04  0.00000000000E+00 0. -1.
         21    1    1    2  503  501  0.53734054879E+02  0.68523282154E+02  0.29713757550E+02  0.92009218227E+02  0.00000000000E+00 0. -1.
         21    1    1    2  504  503  0.21554927752E+01  0.66951019462E+02 -0.41422436300E+03  0.41960565781E+03  0.00000000000E+00 0. -1.
         21    1    1    2  505  506  0.93055510849E+01 -0.41196795406E+02 -0.14741678533E+03  0.15334757198E+03  0.00000000000E+00 0.  1.
         21    1    1    2  506  502 -0.65195098739E+02 -0.94277506210E+02 -0.65654882517E+03  0.66647956375E+03  0.00000000000E+00 0. -1.
<scales pt_clust_3="89.08689" pt_clust_4="66.98571" pt_clust_5="39.70664" pt_clust_6="39.70664"></scales>
<clustering>
<clus scale="   39.707">  5  6 -1 -1</clus>
<clus scale="   66.986">  2  4  1 -1</clus>
<clus scale="   89.087">  1  3  2 -1</clus>
<clus scale="   89.087">  1  3  2 -1</clus>
</clustering>
</event>
<event>
 6    0  0.8777103E+002  0.8335780E+02  0.7546771E-02  0.1319784E+00
         21   -1    0    0  504  501  0.00000000000E+00  0.00000000000E+00  0.11105261716E+03  0.11105261716E+03  0.00000000000E+00 0. -1.
         21   -1    0    0  503  502 -0.00000000000E+00 -0.00000000000E+00 -0.37657393163E+03  0.37657393163E+03  0.00000000000E+00 0. -1.
         21    1    1    2  503  505 -0.10661696625E+03 -0.84612319814E+01 -0.19653640769E+03  0.22375283124E+03  0.00000000000E+00 0. -1.
         21    1    1    2  504  506  0.10560780130E+02 -0.46605439262E+02  0.60955219331E+02  0.77454088397E+02  0.00000000000E+00 0. -1.
         21    1    1    2  505  501  0.35295964152E+02  0.17701523589E+02 -0.15151438401E+01  0.39515119684E+02  0.00000000000E+00 0. -1.
         21    1    1    2  506  502  0.60760221969E+02  0.37365147655E+02 -0.12842498227E+03  0.14690450947E+03  0.00000000000E+00 0. -1.
<scales pt_clust_3="83.35780" pt_clust_4="49.84822" pt_clust_5="39.48606" pt_clust_6="14000.00000"></scales>
<clustering>
<clus scale="   39.486">  1  5  2 -1</clus>
<clus scale="   49.848">  1  4  2 -1</clus>
<clus scale="   83.358">  1  3  2 -1</clus>
<clus scale="   39.486">  1  3  2 -1</clus>
</clustering>
</event>
<event>
 6    0  0.8777103E+002  0.1252983E+03  0.7546771E-02  0.1234604E+00
         21   -1    0    0  503  501  0.00000000000E+00  0.00000000000E+00  0.18642751615E+04  0.18642751615E+04  0.00000000000E+00 0.  1.
         21   -1    0    0  504  502 -0.00000000000E+00 -0.00000000000E+00 -0.10866937766E+03  0.10866937766E+03  0.00000000000E+00 0. -1.
         21    1    1    2  503  505 -0.12779238889E+03 -0.92163541272E+01  0.17696320242E+04  0.17742641678E+04  0.00000000000E+00 0.  1.
         21    1    1    2  504  506  0.40412873935E+02  0.67996800228E+01 -0.42722953557E+02  0.59200395174E+02  0.00000000000E+00 0. -1.
         21    1    1    2  505  502  0.87704939653E+01  0.44724071011E+02  0.20050209617E+02  0.49791314482E+02  0.00000000000E+00 0. -1.
         21    1    1    2  506  501  0.78609020991E+02 -0.42307396906E+02  0.86465035142E+01  0.89688661698E+02  0.00000000000E+00 0. -1.
<scales pt_clust_3="125.29832" pt_clust_4="40.98092" pt_clust_5="50.28005" pt_clust_6="14000.00000"></scales>
<clustering>
<clus scale="   40.981">  2  4  1 -1</clus>
<clus scale="   50.280">  2  5  1 -1</clus>
<clus scale="  125.298">  1  3  2 -1</clus>
<clus scale="  125.298">  1  3  2 -1</clus>
</clustering>
</event>
<event>
 6    0  0.8777103E+002  0.9210634E+02  0.7546771E-02  0.1297830E+00
         21   -1    0    0  503  501  0.00000000000E+00  0.00000000000E+00  0.36228822407E+03  0.36228822407E+03  0.00000000000E+00 0. -1.
         21   -1    0    0  504  502 -0.00000000000E+00 -0.00000000000E+00 -0.93077464978E+02  0.93077464978E+02  0.00000000000E+00 0. -1.
         21    1    1    2  503  505  0.24238442637E+02 -0.25132900759E+02  0.13526902317E+03  0.13970280395E+03  0.00000000000E+00 0. -1.
         21    1    1    2  504  506 -0.52187414761E+02  0.30876000150E+02 -0.23388638399E+02  0.64991399822E+02  0.00000000000E+00 0. -1.
         21    1    1    2  505  502  0.94768568371E+02 -0.56364564411E+02  0.10216720793E+03  0.15032027158E+03  0.00000000000E+00 0. -1.
         21    1    1    2  506  501 -0.66819596247E+02  0.50621465020E+02  0.55163166391E+02  0.10035121369E+03  0.00000000000E+00 0. -1.
<scales pt_clust_3="34.91654" pt_clust_4="57.52901" pt_clust_5="92.10634" pt_clust_6="14000.00000"></scales>
<clustering>
<clus scale="   34.917">  1  3  2 -1</clus>
<clus scale="   57.529">  2  4  1 -1</clus>
<clus scale="   92.106">  2  5  1 -1</clus>
<clus scale="   34.917">  1  3  2 -1</clus>
</clustering>
</event>
<event>
 6    0  0.8777103E+002  0.8200894E+02  0.7546771E-02  0.1323445E+00
         21   -1    0    0  505  501  0.00000000000E+00  0.00000000000E+00  0.96680010611E+02  0.96680010611E+02  0.00000000000E+00 0.  1.
         21   -1    0    0  504  502 -0.00000000000E+00 -0.00000000000E+00 -0.31924263634E+03  0.31924263634E+03  0.00000000000E+00 0.  1.
         21    1    1    2  503  501 -0.87935737084E+02  0.51460725792E+02 -0.17397004284E+03  0.20160971197E+03  0.00000000000E+00 0.  1.
         21    1    1    2  504  503  0.40433317084E+02  0.28557758307E+02 -0.69576786897E+02  0.85389273125E+02  0.00000000000E+00 0.  1.
         21    1    1    2  505  506  0.44242788551E+02 -0.23552065035E+02 -0.25017621494E+02  0.56017903311E+02  0.00000000000E+00 0.  1.
         21    1    1    2  506  502  0.32596314489E+01 -0.56466419063E+02  0.46001825503E+02  0.72905758542E+02  0.00000000000E+00 0.  1.
<scales pt_clust_3="82.00894" pt_clust_4="49.50150" pt_clust_5="54.36102" pt_clust_6="14000.00000"></scales>
<clustering>
<clus scale="   49.502">  2  4  1 -1</clus>
<clus scale="   54.361">  1  5  2 -1</clus>
<clus scale="   82.009">  2  3  1 -1</clus>
<clus scale="   54.361">  1  3  2 -1</clus>
</clustering>
</event>
<event>
 6    0  0.8777103E+002  0.7325836E+02  0.7546771E-02  0.1349351E+00
         21   -1    0    0  504  501  0.00000000000E+00  0.00000000000E+00  0.12037133446E+03  0.12037133446E+03  0.00000000000E+00 0.  1.
         21   -1    0    0  505  502 -0.00000000000E+00 -0.00000000000E+00 -0.12176054709E+04  0.12176054709E+04  0.00000000000E+00 0.  1.
         21    1    1    2  503  501 -0.29051524731E+02 -0.97864607286E+01 -0.34567692810E+01  0.30849880983E+02  0.00000000000E+00 0. -1.
         21    1    1    2  504  506  0.46190296287E+01  0.52980402481E+02 -0.53094421082E+02  0.75148360140E+02  0.00000000000E+00 0.  1.
         21    1    1    2  505  503 -0.23531135006E+02 -0.98289439020E+02  0.67407005105E+02  0.12148346585E+03  0.00000000000E+00 0.  1.
         21    1    1    2  506  502  0.47963630108E+02  0.55095497267E+02 -0.11080899512E+04  0.11104950984E+04  0.00000000000E+00 0.  1.
<scales pt_clust_3="30.65560" pt_clust_4="51.99389" pt_clust_5="73.25836" pt_clust_6="14000.00000"></scales>
<clustering>
<clus scale="   30.656">  1  3  2 -1</clus>
<clus scale="   51.994">  1  4  2 -1</clus>
<clus scale="   73.258">  1  5  2 -1</clus>
<clus scale="   30.656">  1  3  2 -1</clus>
</clustering>
</event>
<event>
 6    0  0.8777103E+002  0.1102175E+03  0.7546771E-02  0.1260168E+00
         21   -1    0    0  503  501  0.00000000000E+00  0.00000000000E+00  0.72911498701E+02  0.72911498701E+02  0.00000000000E+00 0.  1.
         21   -1    0    0  506  502 -0.00000000000E+00 -0.00000000000E+00 -0.16950499596E+04  0.16950499596E+04  0.00000000000E+00 0.  1.
         21    1    1    2  503  505 -0.43962514782E+02  0.28814776148E+02  0.18231987861E+02  0.55636313787E+02  0.00000000000E+00 0.  1.
         21    1    1    2  504  501  0.16003670545E+02  0.43412273752E+02 -0.42890270169E+02  0.63089763500E+02  0.00000000000E+00 0.  1.
         21    1    1    2  505  502  0.10384676532E+03 -0.48704846390E+02 -0.15548425213E+04  0.15590675351E+04  0.00000000000E+00 0.  1.
         21    1    1    2  506  504 -0.75887921088E+02 -0.23522203510E+02 -0.42637657226E+02  0.90167845925E+02  0.00000000000E+00 0. -1.
<scales pt_clust_3="64.39627" pt_clust_4="46.26816" pt_clust_5="110.21750" pt_clust_6="14000.00000"></scales>
<clustering>
<clus scale="   46.268">  1  4  2 -1</clus>
<clus scale="   64.396">  1  3  2 -1</clus>
<clus scale="  110.217">  2  5  1 -1</clus>
<clus scale="   46.268">  1  3  2 -1</clus>
</clustering>
</event>
<event>
 6    0  0.8777103E+002  0.7237925E+02  0.7546771E-02  0.1352184E+00
         21   -1    0    0  504  501  0.00000000000E+00  0.00000000000E+00  0.75176457914E+03  0.75176457914E+03  0.00000000000E+00 0.  1.
         21   -1    0    0  505  502 -0.00000000000E+00 -0.00000000000E+00 -0.24000713484E+02  0.24000713484E+02  0.00000000000E+00 0.  1.
         21    1    1    2  503  506 -0.57722701450E+02 -0.58394928472E+02  0.18020947527E+03  0.19803366610E+03  0.00000000000E+00 0.  1.
         21    1    1    2  504  502  0.55884178473E+00  0.89984948617E+02  0.34779727304E+03  0.35924997762E+03  0.00000000000E+00 0.  1.
         21    1    1    2  505  503  0.38404141820E+02  0.10821633318E+02  0.68504846022E+02  0.79277359852E+02  0.00000000000E+00 0.  1.
         21    1    1    2  506  501  0.18759717844E+02 -0.42411653463E+02  0.13125227132E+03  0.13920428905E+03  0.00000000000E+00 0.  1.
<scales pt_clust_3="72.37925" pt_clust_4="14000.00000" pt_clust_5="39.89970" pt_clust_6="48.32199"></scales>
<clustering>
<clus scale="   39.900">  2  5  1 -1</clus>
<clus scale="   48.322">  1  6  2 -1</clus>
<clus scale="   72.379">  2  3  1 -1</clus>
<clus scale="   48.322">  1  3  2 -1</clus>
</clustering>
</event>
<event>
 6    0  0.8777103E+002  0.1093094E+03  0.7546771E-02  0.1261854E+00
         21   -1    0    0  505  501  0.00000000000E+00  0.00000000000E+00  0.92660468506E+03  0.92660468506E+03  0.00000000000E+00 0.  1.
         21   -1    0    0  506  502 -0.00000000000E+00 -0.00000000000E+00 -0.75088995626E+02  0.75088995626E+02  0.00000000000E+00 0.  1.
         21    1    1    2  503  502 -0.10952968958E+02 -0.31377136126E+02 -0.87909627843E+01  0.34376928704E+02  0.00000000000E+00 0.  1.
         21    1    1    2  504  501 -0.31864378598E+02 -0.28101978842E+01  0.46886679028E+03  0.46995670318E+03  0.00000000000E+00 0.  1.
         21    1    1    2  505  503 -0.72132019779E+02 -0.40441983157E+02  0.34169699967E+03  0.35156140553E+03  0.00000000000E+00 0.  1.
         21    1    1    2  506  504  0.11494936734E+03  0.74629317167E+02  0.49742862268E+02  0.14579864327E+03  0.00000000000E+00 0.  1.
<scales pt_clust_3="33.61190" pt_clust_4="31.98806" pt_clust_5="109.30939" pt_clust_6="14000.00000"></scales>
<clustering>
<clus scale="   31.988">  1  4  2 -1</clus>
<clus scale="   33.612">  2  3  1 -1</clus>
<clus scale="  109.309">  1  5  2 -1</clus>
<clus scale="   31.988">  1  3  2 -1</clus>
</clustering>
</event>
<event>
 6    0  0.8777103E+002  0.8197082E+02  0.7546771E-02  0.1323550E+00
         21   -1    0    0  505  501  0.00000000000E+00  0.00000000000E+00  0.20678060793E+04  0.20678060793E+04  0.00000000000E+00 0.  1.
         21   -1    0    0  504  502 -0.00000000000E+00 -0.00000000000E+00 -0.69935238251E+02  0.69935238251E+02  0.00000000000E+00 0. -1.
         21    1    1    2  503  502  0.27809329860E+02  0.15603785648E+02  0.12081715729E+01  0.31910760448E+02  0.00000000000E+00 0. -1.
         21    1    1    2  504  501 -0.10918101342E+03 -0.45581801300E+02  0.21266371387E+02  0.12021003641E+03  0.00000000000E+00 0. -1.
         21    1    1    2  505  506  0.80145223298E+02 -0.15677051489E+02  0.18558680373E+04  0.18576639090E+04  0.00000000000E+00 0.  1.
         21    1    1    2  506  503  0.12264602658E+01  0.45655067141E+02  0.11952826082E+03  0.12795661177E+03  0.00000000000E+00 0.  1.
<scales pt_clust_3="31.88788" pt_clust_4="81.97082" pt_clust_5="14000.00000" pt_clust_6="46.98104"></scales>
<clustering>
<clus scale="   31.888">  2  3  1 -1</clus>
<clus scale="   46.981">  2  6  1 -1</clus>
<clus scale="   81.971">  2  4  1 -1</clus>
<clus scale="   81.971">  1  3  2 -1</clus>
</clustering>
</event>
<event>
 6    0  0.8777103E+002  0.7193931E+02  0.7546771E-02  0.1353620E+00
         21   -1    0    0  504  501  0.00000000000E+00  0.00000000000E+00  0.63363454660E+03  0.63363454660E+03  0.00000000000E+00 0. -1.
         21   -1    0    0  506  502 -0.00000000000E+00 -0.00000000000E+00 -0.53605565363E+02  0.53605565363E+02  0.00000000000E+00 0.  1.
         21    1    1    2  503  501  0.72967770486E+02 -0.91385128645E+02  0.15666885787E+03  0.19550106980E+03  0.00000000000E+00 0. -1.
         21    1    1    2  504  502 -0.28839427108E+02  0.36751789317E+02  0.38490651227E+03  0.38773113076E+03  0.00000000000E+00 0. -1.
         21    1    1    2  505  503 -0.43647905228E+01  0.45520035799E+02 -0.30266050856E+01  0.45828870745E+02  0.00000000000E+00 0.  1.
         21    1    1    2  506  505 -0.39763552855E+02  0.91133035292E+01  0.41480216176E+02  0.58179040650E+02  0.00000000000E+00 0.  1.
<scales pt_clust_3="14000.00000" pt_clust_4="47.71274" pt_clust_5="71.93931" pt_clust_6="40.79451"></scales>
<clustering>
<clus scale="   40.795">  2  6  1 -1</clus>
<clus scale="   47.713">  1  4  2 -1</clus>
<clus scale="   71.939">  2  5  1 -1</clus>
<clus scale="   47.713">  1  3  2 -1</clus>
</clustering>
</event>
<event>
 6    0  0.8777103E+002  0.1221343E+03  0.7546771E-02  0.1239617E+00
         21   -1    0    0  504  501  0.00000000000E+00  0.00000000000E+00  0.82749145902E+02  0.82749145902E+02  0.00000000000E+00 0. -1.
         21   -1    0    0  506  502 -0.00000000000E+00 -0.00000000000E+00 -0.60323086529E+03  0.60323086529E+03  0.00000000000E+00 0. -1.
         21    1    1    2  503  502 -0.83355392303E+02 -0.87257839268E+02 -0.26490914406E+03  0.29109947878E+03  0.00000000000E+00 0. -1.
         21    1    1    2  504  503  0.10342382877E+03  0.60376373279E+02 -0.89516678717E+02  0.14951598770E+03  0.00000000000E+00 0. -1.
         21    1    1    2  505  501  0.28692433917E+02 -0.25278003075E+02  0.22065274683E+02  0.44148720824E+02  0.00000000000E+00 0. -1.
         21    1    1    2  506  505 -0.48760870388E+02  0.52159469065E+02 -0.18812117129E+03  0.20121582389E+03  0.00000000000E+00 0. -1.
<scales pt_clust_3="122.13430" pt_clust_4="14000.00000" pt_clust_5="38.23916" pt_clust_6="66.38395"></scales>
<clustering>
<clus scale="   38.239">  1  5  2 -1</clus>
<clus scale="   66.384">  2  6  1 -1</clus>
<clus scale="  122.134">  2  3  1 -1</clus>
<clus scale="   38.239">  1  3  2 -1</clus>
</clustering>
</event>
<event>
 6    0  0.8777103E+002  0.1312504E+03  0.7546771E-02  0.1225612E+00
         21   -1    0    0  506  501  0.00000000000E+00  0.00000000000E+00  0.19011296006E+03  0.19011296006E+03  0.00000000000E+00 0. -1.
         21   -1    0    0  503  502 -0.00000000000E+00 -0.00000000000E+00 -0.51281019007E+03  0.51281019007E+03  0.00000000000E+00 0. -1.
         21    1    1    2  503  505 -0.36560321103E+02  0.21604158988E+02 -0.73924630284E+02  0.85254018834E+02  0.00000000000E+00 0.  1.
         21    1    1    2  504  501  0.11001953383E+03 -0.97452737816E+01 -0.18009006033E+02  0.11190885794E+03  0.00000000000E+00 0. -1.
         21    1    1    2  505  504  0.13043220097E+03  0.40442805813E+02 -0.25957570518E+03  0.29330483513E+03  0.00000000000E+00 0. -1.
         21    1    1    2  506  502 -0.20389141370E+03 -0.52301691020E+02  0.28812111490E+02  0.21245543823E+03  0.00000000000E+00 0. -1.
<scales pt_clust_3="42.46642" pt_clust_4="104.73978" pt_clust_5="14000.00000" pt_clust_6="131.25043"></scales>
<clustering>
<clus scale="   42.466">  2  3  1 -1</clus>
<clus scale="  104.740">  1  4  2 -1</clus>
<clus scale="  131.250">  1  6  2 -1</clus>
<clus scale="  104.740">  1  3  2 -1</clus>
</clustering>
</event>
<event>
 6    0  0.8777103E+002  0.1069964E+03  0.7546771E-02  0.1266235E+00
         21   -1    0    0  504  501  0.00000000000E+00  0.00000000000E+00  0.29668760158E+03  0.29668760158E+03  0.00000000000E+00 0.  1.
         21   -1    0    0  506  502 -0.00000000000E+00 -0.00000000000E+00 -0.36859934345E+03  0.36859934345E+03  0.00000000000E+00 0.  1.
         21    1    1    2  503  501 -0.11168394573E+03  0.78560590910E+02  0.18388853863E+03  0.22904162246E+03  0.00000000000E+00 0.  1.
         21    1    1    2  504  502  0.27657369909E+02 -0.30891559618E+02  0.76799205144E+02  0.87277353745E+02  0.00000000000E+00 0.  1.
         21    1    1    2  505  503  0.28507383577E+02 -0.32108606834E+02 -0.91556341689E+02  0.10112466195E+03  0.00000000000E+00 0.  1.
         21    1    1    2  506  505  0.55519192249E+02 -0.15560424457E+02 -0.24104314396E+03  0.24784330688E+03  0.00000000000E+00 0.  1.
<scales pt_clust_3="98.10613" pt_clust_4="41.46346" pt_clust_5="36.84941" pt_clust_6="36.84941"></scales>
<clustering>
<clus scale="   36.849">  5  6 -1 -1</clus>
<clus scale="   41.463">  1  4  2 -1</clus>
<clus scale="   98.106">  1  3  2 -1</clus>
<clus scale="   41.463">  1  3  2 -1</clus>
</clustering>
</event>
<event>
 6    0  0.8777103E+002  0.1140690E+03  0.7546771E-02  0.1253215E+00
         21   -1    0    0  504  501  0.00000000000E+00  0.00000000000E+00  0.11525995468E+04  0.11525995468E+04  0.00000000000E+00 0. -1.
         21   -1    0    0  505  502 -0.00000000000E+00 -0.00000000000E+00 -0.80569253692E+02  0.80569253692E+02  0.00000000000E+00 0. -1.
         21    1    1    2  503  501  0.37625226363E+02 -0.35035624257E+02  0.46042566203E+03  0.46328710632E+03  0.00000000000E+00 0. -1.
         21    1    1    2  504  506  0.83675952371E+02 -0.94973810575E+02  0.41274475828E+03  0.43171741358E+03  0.00000000000E+00 0. -1.
         21    1    1    2  505  503 -0.85607837945E+02  0.63732487610E+02  0.23241396747E+03  0.25574750081E+03  0.00000000000E+00 0. -1.
         21    1    1    2  506  502 -0.35693340790E+02  0.66276947223E+02 -0.33554094719E+02  0.82416779738E+02  0.00000000000E+00 0. -1.
<scales pt_clust_3="51.41160" pt_clust_4="14000.00000" pt_clust_5="114.06904" pt_clust_6="73.55742"></scales>
<clustering>
<clus scale="   51.412">  1  3  2 -1</clus>
<clus scale="   73.557">  2  6  1 -1</clus>
<clus scale="  114.069">  1  5  2 -1</clus>
<clus scale="   51.412">  1  3  2 -1</clus>
</clustering>
</event>
<event>
 6    0  0.8777103E+002  0.1703855E+03  0.7546771E-02  0.1177446E+00
         21   -1    0    0  504  501  0.00000000000E+00  0.00000000000E+00  0.11114284407E+04  0.11114284407E+04  0.00000000000E+00 0. -1.
         21   -1    0    0  506  502 -0.00000000000E+00 -0.00000000000E+00 -0.19874887788E+03  0.19874887788E+03  0.00000000000E+00 0. -1.
         21    1    1    2  503  505 -0.76639586998E+02  0.13283939877E+03  0.36950674144E+03  0.40006894923E+03  0.00000000000E+00 0. -1.
         21    1    1    2  504  503 -0.47171406744E+02  0.30938088521E+02  0.64251699122E+03  0.64498867505E+03  0.00000000000E+00 0. -1.
         21    1    1    2  505  502  0.99396949373E+02 -0.14076806494E+03 -0.13293907506E+03  0.21764236566E+03  0.00000000000E+00 0. -1.
         21    1    1    2  506  501  0.24414044369E+02 -0.23009422350E+02  0.33594905211E+02  0.47477328647E+02  0.00000000000E+00 0. -1.
<scales pt_clust_3="170.38550" pt_clust_4="36.72280" pt_clust_5="14000.00000" pt_clust_6="33.54816"></scales>
<clustering>
<clus scale="   33.548">  1  6  2 -1</clus>
<clus scale="   36.723">  1  4  2 -1</clus>
<clus scale="  170.386">  1  3  2 -1</clus>
<clus scale="   33.548">  1  3  2 -1</clus>
</clustering>
</event>
<event>
 6    0  0.8777103E+002  0.1064719E+03  0.7546771E-02  0.1267246E+00
         21   -1    0    0  504  501  0.00000000000E+00  0.00000000000E+00  0.15194973172E+04  0.15194973172E+04  0.00000000000E+00 0. -1.
         21   -1    0    0  506  502 -0.00000000000E+00 -0.00000000000E+00 -0.38664783134E+03  0.38664783134E+03  0.00000000000E+00 0. -1.
         21    1    1    2  503  502 -0.32133788674E+02 -0.32336358537E+02 -0.30480692898E+02  0.54838791904E+02  0.00000000000E+00 0. -1.
         21    1    1    2  504  503 -0.20194947947E+02  0.42433936219E+02  0.16658851093E+03  0.17309016968E+03  0.00000000000E+00 0.  1.
         21    1    1    2  505  501 -0.77591234459E+02  0.60144900466E+00  0.13238328919E+04  0.13261049306E+04  0.00000000000E+00 0. -1.
         21    1    1    2  506  505  0.12991997108E+03 -0.10699026686E+02 -0.32709122400E+03  0.35211125638E+03  0.00000000000E+00 0. -1.
<scales pt_clust_3="45.58750" pt_clust_4="46.85073" pt_clust_5="106.47189" pt_clust_6="14000.00000"></scales>
<clustering>
<clus scale="   45.588">  2  3  1 -1</clus>
<clus scale="   46.851">  1  4  2 -1</clus>
<clus scale="  106.472">  1  5  2 -1</clus>
<clus scale="   46.851">  1  3  2 -1</clus>
</clustering>
</event>
<event>
 6    0  0.8777103E+002  0.6999520E+02  0.7546771E-02  0.1360109E+00
         21   -1    0    0  503  501  0.00000000000E+00  0.00000000000E+00  0.54243831234E+03  0.54243831234E+03  0.00000000000E+00 0. -1.
         21   -1    0    0  504  502 -0.00000000000E+00 -0.00000000000E+00 -0.20583589058E+03  0.20583589058E+03  0.00000000000E+00 0. -1.
         21    1    1    2  503  506 -0.16498236269E+01 -0.53403040919E+02  0.25951418474E+03  0.26495701308E+03  0.00000000000E+00 0. -1.
         21    1    1    2  504  501 -0.56397991449E+02  0.94563791094E+02  0.25831985891E+03  0.28080632744E+03  0.00000000000E+00 0. -1.
         21    1    1    2  505  502  0.41530244832E+02  0.72473492440E+00 -0.58220276896E+02  0.71518439010E+02  0.00000000000E+00 0. -1.
         21    1    1    2  506  505  0.16517570244E+02 -0.41885485100E+02 -0.12301134500E+03  0.13099242339E+03  0.00000000000E+00 0. -1.
<scales pt_clust_3="53.39578" pt_clust_4="69.99520" pt_clust_5="41.53657" pt_clust_6="14000.00000"></scales>
<clustering>
<clus scale="   41.537">  2  5  1 -1</clus>
<clus scale="   53.396">  1  3  2 -1</clus>
<clus scale="   69.995">  1  4  2 -1</clus>
<clus scale="   53.396">  1  3  2 -1</clus>
</clustering>
</event>
<event>
 6    0  0.8777103E+002  0.9567622E+02  0.7546771E-02  0.1289660E+00
         21   -1    0    0  505  501  0.00000000000E+00  0.00000000000E+00  0.56889988970E+03  0.56889988970E+03  0.00000000000E+00 0. -1.
         21   -1    0    0  506  502 -0.00000000000E+00 -0.00000000000E+00 -0.95584042188E+02  0.95584042188E+02  0.00000000000E+00 0. -1.
         21    1    1    2  503  501 -0.43383893159E+01  0.55955550336E+02  0.28466183208E+03  0.29014169621E+03  0.00000000000E+00 0. -1.
         21    1    1    2  504  502  0.83036743853E+02  0.34374820081E+02  0.83091171379E+02  0.12239637187E+03  0.00000000000E+00 0.  1.
         21    1    1    2  505  504  0.19705267985E+02 -0.79616824267E+02  0.12650764740E+03  0.15076909877E+03  0.00000000000E+00 0. -1.
         21    1    1    2  506  503 -0.98403622522E+02 -0.10713546150E+02 -0.20944803351E+02  0.10117676504E+03  0.00000000000E+00 0. -1.
<scales pt_clust_3="56.12348" pt_clust_4="14000.00000" pt_clust_5="54.94319" pt_clust_6="95.67622"></scales>
<clustering>
<clus scale="   56.123">  1  3  2 -1</clus>
<clus scale="   54.943">  1  5  2 -1</clus>
<clus scale="   95.676">  2  6  1 -1</clus>
<clus scale="   56.123">  1  3  2 -1</clus>
</clustering>
</event>
<event>
 6    0  0.8777103E+002  0.1228696E+03  0.7546771E-02  0.1238437E+00
         21   -1    0    0  503  501  0.00000000000E+00  0.00000000000E+00  0.15939847596E+03  0.15939847596E+03  0.00000000000E+00 0.  1.
         21   -1    0    0  504  502 -0.00000000000E+00 -0.00000000000E+00 -0.27107669529E+03  0.27107669529E+03  0.00000000000E+00 0.  1.
         21    1    1    2  503  502  0.29184703958E+02 -0.13784459113E+03  0.97095509659E+01  0.14123439252E+03  0.00000000000E+00 0.  1.
         21    1    1    2  504  505 -0.15490037619E+02  0.52402401700E+02 -0.56495956465E+02  0.78598639087E+02  0.00000000000E+00 0.  1.
         21    1    1    2  505  506 -0.23336204980E+01  0.57171446424E+02 -0.12819676161E+03  0.14038671504E+03  0.00000000000E+00 0.  1.
         21    1    1    2  506  501 -0.11361045841E+02  0.28270743008E+02  0.63304947787E+02  0.70255424610E+02  0.00000000000E+00 0.  1.
<scales pt_clust_3="116.52408" pt_clust_4="38.69469" pt_clust_5="38.69469" pt_clust_6="30.46815"></scales>
<clustering>
<clus scale="   30.468">  1  6  2 -1</clus>
<clus scale="   38.695">  4  5 -1 -1</clus>
<clus scale="  116.524">  1  3  2 -1</clus>
<clus scale="   30.468">  1  3  2 -1</clus>
</clustering>
</event>
<event>
 6    0  0.8777103E+002  0.1211803E+03  0.7546771E-02  0.1241163E+00
         21   -1    0    0  503  501  0.00000000000E+00  0.00000000000E+00  0.36938976477E+02  0.36938976477E+02  0.00000000000E+00 0.  1.
         21   -1    0    0  504  502 -0.00000000000E+00 -0.00000000000E+00 -0.84025088820E+03  0.84025088820E+03  0.00000000000E+00 0. -1.
         21    1    1    2  503  505  0.83486316762E+02 -0.11951342034E+03 -0.26335891490E+03  0.30101717689E+03  0.00000000000E+00 0.  1.
         21    1    1    2  504  506 -0.32353945481E+02  0.31083278780E+02 -0.76965433008E+02  0.89087742625E+02  0.00000000000E+00 0. -1.
         21    1    1    2  505  502 -0.46816528588E+02  0.29394601233E+02 -0.38617142965E+03  0.39010793764E+03  0.00000000000E+00 0. -1.
         21    1    1    2  506  501 -0.43158426939E+01  0.59035540324E+02 -0.76816134167E+02  0.96977007521E+02  0.00000000000E+00 0. -1.
<scales pt_clust_3="114.80167" pt_clust_4="33.77741" pt_clust_5="55.27956" pt_clust_6="33.77741"></scales>
<clustering>
<clus scale="   33.777">  4  6 -1 -1</clus>
<clus scale="   55.280">  2  5  1 -1</clus>
<clus scale="  114.802">  2  3  1 -1</clus>
<clus scale="  121.180">  1  3  2 -1</clus>
</clustering>
</event>
<event>
 6    0  0.8777103E+002  0.7874523E+02  0.7546771E-02  0.1332650E+00
         21   -1    0    0  503  501  0.00000000000E+00  0.00000000000E+00  0.18541829055E+02  0.18541829055E+02  0.00000000000E+00 0. -1.
         21   -1    0    0  505  502 -0.00000000000E+00 -0.00000000000E+00 -0.19781585810E+04  0.19781585810E+04  0.00000000000E+00 0. -1.
         21    1    1    2  503  506 -0.26777827547E+02  0.40124697532E+02 -0.24658854860E+03  0.25126272247E+03  0.00000000000E+00 0. -1.
         21    1    1    2  504  501 -0.42464075807E+02  0.25563790993E+02 -0.44757703090E+02  0.66782910464E+02  0.00000000000E+00 0. -1.
         21    1    1    2  505  504  0.79398582862E+02  0.29892756104E+02 -0.58370291247E+03  0.58983625003E+03  0.00000000000E+00 0. -1.
         21    1    1    2  506  502 -0.10156679508E+02 -0.95581244629E+02 -0.10845675878E+04  0.10888185271E+04  0.00000000000E+00 0. -1.
<scales pt_clust_3="48.23944" pt_clust_4="80.44331" pt_clust_5="14000.00000" pt_clust_6="78.74523"></scales>
<clustering>
<clus scale="   48.239">  1  3  2 -1</clus>
<clus scale="   80.443">  1  4  2 -1</clus>
<clus scale="   78.745">  2  6  1 -1</clus>
<clus scale="   48.239">  1  3  2 -1</clus>
</clustering>
</event>
<event>
 6    0  0.8777103E+002  0.6391864E+02  0.7546771E-02  0.1382086E+00
         21   -1    0    0  503  501  0.00000000000E+00  0.00000000000E+00  0.31970486805E+03  0.31970486805E+03  0.00000000000E+00 0. -1.
         21   -1    0    0  505  502 -0.00000000000E+00 -0.00000000000E+00 -0.24000857126E+03  0.24000857126E+03  0.00000000000E+00 0. -1.
         21    1    1    2  503  506  0.51058793929E+02 -0.29195481909E+02  0.51767680211E+02  0.78353489493E+02  0.00000000000E+00 0. -1.
         21    1    1    2  504  501 -0.50254155943E+02 -0.18817962796E+02  0.15728994658E+03  0.16619182654E+03  0.00000000000E+00 0. -1.
         21    1    1    2  505  504 -0.10994701747E+02  0.10852557547E+03  0.54068616520E+02  0.12174604425E+03  0.00000000000E+00 0. -1.
         21    1    1    2  506  502  0.10190063762E+02 -0.60512130765E+02 -0.18342994652E+03  0.19342207902E+03  0.00000000000E+00 0. -1.
<scales pt_clust_3="47.82026" pt_clust_4="53.66187" pt_clust_5="63.91864" pt_clust_6="14000.00000"></scales>
<clustering>
<clus scale="   53.662">  1  4  2 -1</clus>
<clus scale="   47.820">  1  3  2 -1</clus>
<clus scale="   63.919">  1  5  2 -1</clus>
<clus scale="   53.662">  1  3  2 -1</clus>
</clustering>
</event>
<event>
 6    0  0.8777103E+002  0.3095273E+03  0.7546771E-02  0.1080573E+00
         21   -1    0    0  506  501  0.00000000000E+00  0.00000000000E+00  0.96753665995E+03  0.96753665995E+03  0.00000000000E+00 0.  1.
         21   -1    0    0  503  502 -0.00000000000E+00 -0.00000000000E+00 -0.96753650709E+02  0.96753650709E+02  0.00000000000E+00 0.  1.
         21    1    1    2  503  505  0.23733667162E+02  0.28482516888E+02  0.10621764633E+03  0.11250212939E+03  0.00000000000E+00 0.  1.
         21    1    1    2  504  502 -0.13591463773E+03 -0.16792451506E+03  0.36530872190E+03  0.42440769762E+03  0.00000000000E+00 0.  1.
         21    1    1    2  505  501  0.20545175803E+03  0.13302671350E+03  0.24051072381E+03  0.34315002499E+03  0.00000000000E+00 0.  1.
         21    1    1    2  506  504 -0.93270787461E+02  0.64152846723E+01  0.15874591720E+03  0.18423045867E+03  0.00000000000E+00 0.  1.
<scales pt_clust_3="36.48333" pt_clust_4="86.26519" pt_clust_5="295.63207" pt_clust_6="86.26519"></scales>
<clustering>
<clus scale="   36.483">  3  5 -1 -1</clus>
<clus scale="   86.265">  4  6 -1 -1</clus>
<clus scale="  295.632">  2  3  1 -1</clus>
<clus scale="  309.527">  1  3  2 -1</clus>
</clustering>
</event>
<event>
 6    0  0.8777103E+002  0.2169668E+03  0.7546771E-02  0.1136165E+00
         21   -1    0    0  505  501  0.00000000000E+00  0.00000000000E+00  0.22128052658E+03  0.22128052658E+03  0.00000000000E+00 0.  1.
         21   -1    0    0  501  502 -0.00000000000E+00 -0.00000000000E+00 -0.62030547685E+03  0.62030547685E+03  0.00000000000E+00 0.  1.
         21    1    1    2  503  504  0.10207752315E+03 -0.38587602529E+02 -0.31917419246E+01  0.10917422323E+03  0.00000000000E+00 0.  1.
         21    1    1    2  504  506 -0.19927303207E+03  0.18894824358E+03 -0.28959165127E+03  0.39909210033E+03  0.00000000000E+00 0.  1.
         21    1    1    2  505  503  0.80028510440E+02 -0.15351477372E+02  0.72220284245E+02  0.10888525978E+03  0.00000000000E+00 0.  1.
         21    1    1    2  506  502  0.17166998486E+02 -0.13500916368E+03 -0.17846184132E+03  0.22443442009E+03  0.00000000000E+00 0.  1.
<scales pt_clust_3="70.80042" pt_clust_4="200.90201" pt_clust_5="70.80042" pt_clust_6="136.09622"></scales>
<clustering>
<clus scale="   70.800">  3  5 -1 -1</clus>
<clus scale="  136.096">  2  6  1 -1</clus>
<clus scale="  200.902">  2  4  1 -1</clus>
<clus scale="  216.967">  1  3  2 -1</clus>
</clustering>
</event>
<event>
 6    0  0.8777103E+002  0.1343186E+03  0.7546771E-02  0.1221185E+00
         21   -1    0    0  506  501  0.00000000000E+00  0.00000000000E+00  0.12531546053E+04  0.12531546053E+04  0.00000000000E+00 0.  1.
         21   -1    0    0  504  502 -0.00000000000E+00 -0.00000000000E+00 -0.62815431640E+03  0.62815431640E+03  0.00000000000E+00 0.  1.
         21    1    1    2  503  502  0.19786505430E+02  0.24503299122E+02 -0.37923714847E+03  0.38054268124E+03  0.00000000000E+00 0.  1.
         21    1    1    2  504  505  0.11240426973E+03 -0.10836141721E+03 -0.14839029347E+03  0.21539869031E+03  0.00000000000E+00 0.  1.
         21    1    1    2  505  501 -0.45459891616E+02  0.21132484600E+02  0.11749578689E+04  0.11760268608E+04  0.00000000000E+00 0.  1.
         21    1    1    2  506  503 -0.86730883542E+02  0.62725633491E+02 -0.22330138137E+02  0.10934068925E+03  0.00000000000E+00 0. -1.
<scales pt_clust_3="31.49472" pt_clust_4="134.31857" pt_clust_5="50.11532" pt_clust_6="14000.00000"></scales>
<clustering>
<clus scale="   31.495">  2  3  1 -1</clus>
<clus scale="   50.115">  1  5  2 -1</clus>
<clus scale="  134.319">  2  4  1 -1</clus>
<clus scale="   50.115">  1  3  2 -1</clus>
</clustering>
</event>
<event>
 6    0  0.8777103E+002  0.1332340E+03  0.7546771E-02  0.1222734E+00
         21   -1    0    0  502  501  0.00000000000E+00  0.00000000000E+00  0.48077474272E+03  0.48077474272E+03  0.00000000000E+00 0.  1.
         21   -1    0    0  504  502 -0.00000000000E+00 -0.00000000000E+00 -0.24214490339E+03  0.24214490339E+03  0.00000000000E+00 0.  1.
         21    1    1    2  503  501  0.43661058707E+02  0.16699214750E+01  0.44848678642E+02  0.62613741791E+02  0.00000000000E+00 0.  1.
         21    1    1    2  504  506 -0.27755254991E+02 -0.13354832316E+03 -0.19691958426E+03  0.23954713829E+03  0.00000000000E+00 0.  1.
         21    1    1    2  505  503 -0.13584857141E+02  0.47568898175E+02  0.52236969869E+02  0.71944766580E+02  0.00000000000E+00 0.  1.
         21    1    1    2  506  505 -0.23209465750E+01  0.84309503507E+02  0.33846377507E+03  0.34881399945E+03  0.00000000000E+00 0.  1.
<scales pt_clust_3="43.69298" pt_clust_4="133.23397" pt_clust_5="48.35626" pt_clust_6="14000.00000"></scales>
<clustering>
<clus scale="   43.693">  1  3  2 -1</clus>
<clus scale="   48.356">  1  5  2 -1</clus>
<clus scale="  133.234">  2  4  1 -1</clus>
<clus scale="   43.693">  1  3  2 -1</clus>
</clustering>
</event>
<event>
 6    0  0.8777103E+002  0.1099006E+03  0.7546771E-02  0.1260754E+00
         21   -1    0    0  504  501  0.00000000000E+00  0.00000000000E+00  0.96558729269E+02  0.96558729269E+02  0.00000000000E+00 0. -1.
         21   -1    0    0  503  502 -0.00000000000E+00 -0.00000000000E+00 -0.17054279982E+04  0.17054279982E+04  0.00000000000E+00 0. -1.
         21    1    1    2  503  501 -0.78721091638E+02 -0.72837001151E+02 -0.14200194820E+04  0.14240637515E+04  0.00000000000E+00 0. -1.
         21    1    1    2  504  505 -0.10099634335E+02  0.31890635532E+02  0.19628654325E+01  0.33509223940E+02  0.00000000000E+00 0. -1.
         21    1    1    2  505  506 -0.81935302145E+02  0.18233888685E+01  0.44624112686E+01  0.82076985806E+02  0.00000000000E+00 0. -1.
         21    1    1    2  506  502  0.17075602812E+03  0.39122976750E+02 -0.19527506363E+03  0.26233676624E+03  0.00000000000E+00 0. -1.
<scales pt_clust_3="109.90057" pt_clust_4="33.45169" pt_clust_5="89.58963" pt_clust_6="14000.00000"></scales>
<clustering>
<clus scale="   33.452">  1  4  2 -1</clus>
<clus scale="   89.590">  1  5  2 -1</clus>
<clus scale="  109.901">  2  3  1 -1</clus>
<clus scale="   33.452">  1  3  2 -1</clus>
</clustering>
</event>
<event>
 6    0  0.8777103E+002  0.1354982E+03  0.7546771E-02  0.1219518E+00
         21   -1    0    0  503  501  0.00000000000E+00  0.00000000000E+00  0.16933489899E+04  0.16933489899E+04  0.00000000000E+00 0. -1.
         21   -1    0    0  506  502 -0.00000000000E+00 -0.00000000000E+00 -0.50720158726E+02  0.50720158726E+02  0.00000000000E+00 0.  1.
         21    1    1    2  503  502 -0.46035290774E+02 -0.46514485855E+02  0.56619823112E+03  0.56996779059E+03  0.00000000000E+00 0. -1.
         21    1    1    2  504  501 -0.19471156436E+02  0.16085001179E+03  0.93242337000E+03  0.94639589663E+03  0.00000000000E+00 0. -1.
         21    1    1    2  505  504  0.97900040834E+02 -0.10178348809E+03  0.10910615565E+03  0.17846133935E+03  0.00000000000E+00 0.  1.
         21    1    1    2  506  505 -0.32393593624E+02 -0.12552037843E+02  0.34901074391E+02  0.49244122041E+02  0.00000000000E+00 0. -1.
<scales pt_clust_3="66.81861" pt_clust_4="135.49816" pt_clust_5="14000.00000" pt_clust_6="34.74045"></scales>
<clustering>
<clus scale="   34.740">  2  6  1 -1</clus>
<clus scale="   66.819">  1  3  2 -1</clus>
<clus scale="  135.498">  1  4  2 -1</clus>
<clus scale="   66.819">  1  3  2 -1</clus>
</clustering>
</event>
<event>
 6    0  0.8777103E+002  0.8557674E+02  0.7546771E-02  0.1313931E+00
         21   -1    0    0  505  501  0.00000000000E+00  0.00000000000E+00  0.16476225399E+04  0.16476225399E+04  0.00000000000E+00 0. -1.
         21   -1    0    0  506  502 -0.00000000000E+00 -0.00000000000E+00 -0.78244473312E+02  0.78244473312E+02  0.00000000000E+00 0. -1.
         21    1    1    2  503  502 -0.30362403018E+02 -0.13838554962E+03  0.19501450235E+03  0.24104582964E+03  0.00000000000E+00 0.  1.
         21    1    1    2  504  501  0.19470604045E+02  0.24556339148E+02  0.17830165088E+03  0.18103479478E+03  0.00000000000E+00 0. -1.
         21    1    1    2  505  503 -0.25523474841E+02  0.58794074363E+02  0.12285569706E+04  0.12302277923E+04  0.00000000000E+00 0. -1.
         21    1    1    2  506  504  0.36415273814E+02  0.55035136112E+02 -0.32495057232E+02  0.73558596495E+02  0.00000000000E+00 0. -1.
<scales pt_clust_3="14000.00000" pt_clust_4="31.33877" pt_clust_5="85.57674" pt_clust_6="66.42868"></scales>
<clustering>
<clus scale="   31.339">  1  4  2 -1</clus>
<clus scale="   66.429">  2  6  1 -1</clus>
<clus scale="   85.577">  1  5  2 -1</clus>
<clus scale="   31.339">  1  3  2 -1</clus>
</clustering>
</event>
<event>
 6    0  0.8777103E+002  0.1346731E+03  0.7546771E-02  0.1220682E+00
         21   -1    0    0  504  501  0.00000000000E+00  0.00000000000E+00  0.70827023392E+03  0.70827023392E+03  0.00000000000E+00 0.  1.
         21   -1    0    0  503  502 -0.00000000000E+00 -0.00000000000E+00 -0.33225315250E+03  0.33225315250E+03  0.00000000000E+00 0. -1.
         21    1    1    2  503  506 -0.23589635894E+02  0.25649362172E+02 -0.12328399286E+03  0.12811441604E+03  0.00000000000E+00 0. -1.
         21    1    1    2  504  502  0.12975890713E+03 -0.12220305100E+02  0.68372814640E+03  0.69603942993E+03  0.00000000000E+00 0.  1.
         21    1    1    2  505  501 -0.62703528425E+02  0.13146185123E+01 -0.75395810838E+02  0.98071346431E+02  0.00000000000E+00 0. -1.
         21    1    1    2  506  505 -0.43465742813E+02 -0.14743675585E+02 -0.10903126129E+03  0.11829819401E+03  0.00000000000E+00 0. -1.
<scales pt_clust_3="34.84768" pt_clust_4="129.56335" pt_clust_5="31.43402" pt_clust_6="31.43402"></scales>
<clustering>
<clus scale="   31.434">  5  6 -1 -1</clus>
<clus scale="   34.848">  2  3  1 -1</clus>
<clus scale="  129.563">  1  4  2 -1</clus>
<clus scale="  129.563">  1  3  2 -1</clus>
</clustering>
</event>
<event>
 6    0  0.8777103E+002  0.1683851E+03  0.7546771E-02  0.1179542E+00
         21   -1    0    0  505  501  0.00000000000E+00  0.00000000000E+00  0.32574813161E+02  0.32574813161E+02  0.00000000000E+00 0.  1.
         21   -1    0    0  503  502 -0.00000000000E+00 -0.00000000000E+00 -0.19347644773E+04  0.19347644773E+04  0.00000000000E+00 0.  1.
         21    1    1    2  503  501 -0.12461676964E+02  0.17690012177E+03 -0.32096487048E+03  0.36669796094E+03  0.00000000000E+00 0.  1.
         21    1    1    2  504  506 -0.26061073534E+02 -0.33937783592E+02 -0.22610102850E+03  0.23011437981E+03  0.00000000000E+00 0.  1.
         21    1    1    2  505  504  0.70931450452E+02 -0.13857961128E+03 -0.83582336753E+03  0.85019778936E+03  0.00000000000E+00 0.  1.
         21    1    1    2  506  502 -0.32408699954E+02 -0.43827268945E+01 -0.51930039760E+03  0.52032916032E+03  0.00000000000E+00 0. -1.
<scales pt_clust_3="168.38514" pt_clust_4="46.68007" pt_clust_5="14000.00000" pt_clust_6="32.70370"></scales>
<clustering>
<clus scale="   32.704">  2  6  1 -1</clus>
<clus scale="   46.680">  2  4  1 -1</clus>
<clus scale="  168.385">  1  3  2 -1</clus>
<clus scale="  168.385">  1  3  2 -1</clus>
</clustering>
</event>
<event>
 6    0  0.8777103E+002  0.1278076E+03  0.7546771E-02  0.1230746E+00
         21   -1    0    0  505  501  0.00000000000E+00  0.00000000000E+00  0.51788016615E+03  0.51788016615E+03  0.00000000000E+00 0.  1.
         21   -1    0    0  503  502 -0.00000000000E+00 -0.00000000000E+00 -0.19621682776E+03  0.19621682776E+03  0.00000000000E+00 0.  1.
         21    1    1    2  503  506 -0.96428953848E+02 -0.15936648215E+02 -0.57423228324E+02  0.11335760692E+03  0.00000000000E+00 0.  1.
         21    1    1    2  504  501  0.30147536457E+02 -0.33609585661E+02  0.27069081544E+03  0.27443031131E+03  0.00000000000E+00 0.  1.
         21    1    1    2  505  502 -0.46964990705E+02  0.36385941658E+02 -0.83871305695E+02  0.10278153055E+03  0.00000000000E+00 0.  1.
         21    1    1    2  506  504  0.11324640810E+03  0.13160292217E+02  0.19226705697E+03  0.22352754514E+03  0.00000000000E+00 0.  1.
<scales pt_clust_3="127.80763" pt_clust_4="45.14951" pt_clust_5="57.69979" pt_clust_6="14000.00000"></scales>
<clustering>
<clus scale="   45.150">  1  4  2 -1</clus>
<clus scale="   57.700">  2  5  1 -1</clus>
<clus scale="  127.808">  2  3  1 -1</clus>
<clus scale="   45.150">  1  3  2 -1</clus>
</clustering>
</event>
<event>
 6    0  0.8777103E+002  0.8295271E+02  0.7546771E-02  0.1320875E+00
         21   -1    0    0  505  501  0.00000000000E+00  0.00000000000E+00  0.39735916096E+03  0.39735916096E+03  0.00000000000E+00 0.  1.
         21   -1    0    0  504  502 -0.00000000000E+00 -0.00000000000E+00 -0.15784862530E+03  0.15784862530E+03  0.00000000000E+00 0.  1.
         21    1    1    2  503  506 -0.30223412248E+02  0.43969905658E+02  0.40345250044E+02  0.66892050743E+02  0.00000000000E+00 0.  1.
         21    1    1    2  504  503 -0.91603726479E+02 -0.13649734484E+02 -0.32862951032E+02  0.98272740406E+02  0.00000000000E+00 0.  1.
         21    1    1    2  505  502  0.77156985450E+02 -0.18796861985E+02 -0.56747663953E+02  0.97605429093E+02  0.00000000000E+00 0.  1.
         21    1    1    2  506  501  0.44670153277E+02 -0.11523309189E+02  0.28877590060E+03  0.29243756602E+03  0.00000000000E+00 0.  1.
<scales pt_clust_3="38.96803" pt_clust_4="14000.00000" pt_clust_5="82.95271" pt_clust_6="46.13252"></scales>
<clustering>
<clus scale="   46.133">  1  6  2 -1</clus>
<clus scale="   38.968">  1  3  2 -1</clus>
<clus scale="   82.953">  2  5  1 -1</clus>
<clus scale="   46.133">  1  3  2 -1</clus>
</clustering>
</event>
<event>
 6    0  0.8777103E+002  0.7207809E+02  0.7546771E-02  0.1353166E+00
         21   -1    0    0  504  501  0.00000000000E+00  0.00000000000E+00  0.76286814339E+03  0.76286814339E+03  0.00000000000E+00 0.  1.
         21   -1    0    0  503  502 -0.00000000000E+00 -0.00000000000E+00 -0.45793796110E+03  0.45793796110E+03  0.00000000000E+00 0. -1.
         21    1    1    2  503  506 -0.20022221430E+02 -0.85196380990E+02  0.57630503947E+02  0.10478829930E+03  0.00000000000E+00 0. -1.
         21    1    1    2  504  505 -0.25033161839E+02  0.56806493555E+02 -0.40964615312E+02  0.74375645270E+02  0.00000000000E+00 0. -1.
         21    1    1    2  505  502  0.15364827248E+02 -0.36065767488E+02 -0.37376750880E+03  0.37581773259E+03  0.00000000000E+00 0. -1.
         21    1    1    2  506  501  0.29690556022E+02  0.64455654923E+02  0.66203180246E+03  0.66582442733E+03  0.00000000000E+00 0.  1.
<scales pt_clust_3="14000.00000" pt_clust_4="34.89041" pt_clust_5="39.20226" pt_clust_6="72.07809"></scales>
<clustering>
<clus scale="   39.202">  2  5  1 -1</clus>
<clus scale="   34.890">  2  4  1 -1</clus>
<clus scale="   72.078">  1  6  2 -1</clus>
<clus scale="   72.078">  1  3  2 -1</clus>
</clustering>
</event>
<event>
 6    0  0.8777103E+002  0.8346027E+02  0.7546771E-02  0.1319509E+00
         21   -1    0    0  506  501  0.00000000000E+00  0.00000000000E+00  0.36911016928E+03  0.36911016928E+03  0.00000000000E+00 0.  1.
         21   -1    0    0  505  502 -0.00000000000E+00 -0.00000000000E+00 -0.50307466628E+03  0.50307466628E+03  0.00000000000E+00 0.  1.
         21    1    1    2  503  501 -0.30403112861E+02 -0.12079213362E+03  0.27778608165E+03  0.30443422273E+03  0.00000000000E+00 0.  1.
         21    1    1    2  504  502 -0.97197419953E-01  0.70067714573E+02 -0.43179064307E+03  0.43743874259E+03  0.00000000000E+00 0.  1.
         21    1    1    2  505  503 -0.37306135219E+02  0.55805137037E+01 -0.16326748229E+02  0.41102950818E+02  0.00000000000E+00 0. -1.
         21    1    1    2  506  504  0.67806445500E+02  0.45143905342E+02  0.36366812657E+02  0.89208919418E+02  0.00000000000E+00 0. -1.
<scales pt_clust_3="83.46027" pt_clust_4="14000.00000" pt_clust_5="37.72121" pt_clust_6="79.91480"></scales>
<clustering>
<clus scale="   37.721">  2  5  1 -1</clus>
<clus scale="   79.915">  1  6  2 -1</clus>
<clus scale="   83.460">  1  3  2 -1</clus>
<clus scale="   79.915">  1  3  2 -1</clus>
</clustering>
</event>
<event>
 6    0  0.8777103E+002  0.3456499E+03  0.7546771E-02  0.1064415E+00
         21   -1    0    0  505  501  0.00000000000E+00  0.00000000000E+00  0.17754782242E+04  0.17754782242E+04  0.00000000000E+00 0. -1.
         21   -1    0    0  504  502 -0.00000000000E+00 -0.00000000000E+00 -0.12599073791E+03  0.12599073791E+03  0.00000000000E+00 0. -1.
         21    1    1    2  503  502  0.61001011876E+01  0.40892432322E+02  0.35697674255E+02  0.54623494972E+02  0.00000000000E+00 0. -1.
         21    1    1    2  504  501 -0.25382221691E+03 -0.98265805801E+02  0.40415433169E+03  0.48726031052E+03  0.00000000000E+00 0. -1.
         21    1    1    2  505  506 -0.80888249363E+02 -0.10321037730E+03  0.79897107094E+03  0.80966046159E+03  0.00000000000E+00 0. -1.
         21    1    1    2  506  503  0.32861036509E+03  0.16058375078E+03  0.41066440944E+03  0.54992469506E+03  0.00000000000E+00 0. -1.
<scales pt_clust_3="39.23188" pt_clust_4="325.35860" pt_clust_5="131.13082" pt_clust_6="39.23188"></scales>
<clustering>
<clus scale="   39.232">  3  6 -1 -1</clus>
<clus scale="  131.131">  1  5  2 -1</clus>
<clus scale="  325.359">  2  4  1 -1</clus>
<clus scale="  131.131">  1  3  2 -1</clus>
</clustering>
</event>
<event>
 6    0  0.8777103E+002  0.1715436E+03  0.7546771E-02  0.1176248E+00
         21   -1    0    0  503  501  0.00000000000E+00  0.00000000000E+00  0.13912008142E+04  0.13912008142E+04  0.00000000000E+00 0.  1.
         21   -1    0    0  504  502 -0.00000000000E+00 -0.00000000000E+00 -0.49684724507E+03  0.49684724507E+03  0.00000000000E+00 0.  1.
         21    1    1    2  503  502  0.16779099463E+02  0.17072828288E+03  0.37362223843E+03  0.41112438726E+03  0.00000000000E+00 0.  1.
         21    1    1    2  504  505  0.51210694912E+02  0.25625108945E+02 -0.40184851133E+03  0.40590812697E+03  0.00000000000E+00 0.  1.
         21    1    1    2  505  506 -0.10437952516E+03 -0.17883240787E+03  0.71625757319E+02  0.21910354741E+03  0.00000000000E+00 0.  1.
         21    1    1    2  506  501  0.36389730789E+02 -0.17520983953E+02  0.85095408468E+03  0.85191199758E+03  0.00000000000E+00 0.  1.
<scales pt_clust_3="171.54364" pt_clust_4="57.35716" pt_clust_5="14000.00000" pt_clust_6="40.38808"></scales>
<clustering>
<clus scale="   40.388">  1  6  2 -1</clus>
<clus scale="   57.357">  2  4  1 -1</clus>
<clus scale="  171.544">  1  3  2 -1</clus>
<clus scale="   40.388">  1  3  2 -1</clus>
</clustering>
</event>
<event>
 6    0  0.8777103E+002  0.8670258E+02  0.7546771E-02  0.1311039E+00
         21   -1    0    0  505  501  0.00000000000E+00  0.00000000000E+00  0.96368670720E+02  0.96368670720E+02  0.00000000000E+00 0.  1.
         21   -1    0    0  503  502 -0.00000000000E+00 -0.00000000000E+00 -0.93023461858E+03  0.93023461858E+03  0.00000000000E+00 0.  1.
         21    1    1    2  503  504 -0.82375050969E+02 -0.56351958235E+02 -0.10521985410E+03  0.14502554918E+03  0.00000000000E+00 0.  1.
         21    1    1    2  504  506 -0.22707668588E+02  0.84553951729E+02 -0.15474822344E+03  0.17779769859E+03  0.00000000000E+00 0.  1.
         21    1    1    2  505  502  0.86997581193E+02 -0.56576146871E-01 -0.63133991827E+03  0.63730579374E+03  0.00000000000E+00 0.  1.
         21    1    1    2  506  501  0.18085138364E+02 -0.28145417346E+02  0.57442047945E+02  0.66474247791E+02  0.00000000000E+00 0.  1.
<scales pt_clust_3="14000.00000" pt_clust_4="76.95055" pt_clust_5="86.70258" pt_clust_6="33.45500"></scales>
<clustering>
<clus scale="   33.455">  1  6  2 -1</clus>
<clus scale="   76.951">  1  4  2 -1</clus>
<clus scale="   86.703">  2  5  1 -1</clus>
<clus scale="   33.455">  1  3  2 -1</clus>
</clustering>
</event>
<event>
 6    0  0.8777103E+002  0.1232388E+03  0.7546771E-02  0.1237848E+00
         21   -1    0    0  502  501  0.00000000000E+00  0.00000000000E+00  0.71878182147E+03  0.71878182147E+03  0.00000000000E+00 0. -1.
         21   -1    0    0  504  502 -0.00000000000E+00 -0.00000000000E+00 -0.21097190958E+03  0.21097190958E+03  0.00000000000E+00 0. -1.
         21    1    1    2  503  505 -0.43947445547E+02  0.26056703843E+02  0.12015374580E+03  0.13056512710E+03  0.00000000000E+00 0. -1.
         21    1    1    2  504  506  0.65371198673E+02 -0.16719119185E+02 -0.18474274546E+03  0.19667944621E+03  0.00000000000E+00 0. -1.
         21    1    1    2  505  501 -0.26513960082E+02  0.78717780694E+02  0.40356098955E+03  0.41202057153E+03  0.00000000000E+00 0. -1.
         21    1    1    2  506  503  0.50902069556E+01 -0.88055365352E+02  0.16883792199E+03  0.19048858621E+03  0.00000000000E+00 0. -1.
<scales pt_clust_3="50.70349" pt_clust_4="67.47535" pt_clust_5="50.70349" pt_clust_6="104.91989"></scales>
<clustering>
<clus scale="   50.703">  3  5 -1 -1</clus>
<clus scale="   67.475">  2  4  1 -1</clus>
<clus scale="  104.920">  2  6  1 -1</clus>
<clus scale="  123.239">  1  3  2 -1</clus>
</clustering>
</event>
<event>
 6    0  0.8777103E+002  0.3224093E+03  0.7546771E-02  0.1074546E+00
         21   -1    0    0  505  501  0.00000000000E+00  0.00000000000E+00  0.74002490689E+03  0.74002490689E+03  0.00000000000E+00 0. -1.
         21   -1    0    0  504  502 -0.00000000000E+00 -0.00000000000E+00 -0.91994382490E+03  0.91994382490E+03  0.00000000000E+00 0. -1.
         21    1    1    2  503  506  0.24300834317E+02 -0.11064709805E+03 -0.14628328248E+03  0.18501921410E+03  0.00000000000E+00 0. -1.
         21    1    1    2  504  501 -0.34326617816E+01 -0.30749711815E+02  0.63351956944E+03  0.63427468246E+03  0.00000000000E+00 0. -1.
         21    1    1    2  505  503  0.17678357299E+03 -0.79693344947E+02 -0.15252748487E+03  0.24671460141E+03  0.00000000000E+00 0. -1.
         21    1    1    2  506  502 -0.19765174553E+03  0.22109015481E+03 -0.51462772010E+03  0.59396023382E+03  0.00000000000E+00 0. -1.
<scales pt_clust_3="110.51774" pt_clust_4="30.94072" pt_clust_5="110.51774" pt_clust_6="288.97404"></scales>
<clustering>
<clus scale="   30.941">  1  4  2 -1</clus>
<clus scale="  110.518">  3  5 -1 -1</clus>
<clus scale="  288.974">  2  6  1 -1</clus>
<clus scale="   30.941">  1  3  2 -1</clus>
</clustering>
</event>
<event>
 6    0  0.8777103E+002  0.1241008E+03  0.7546771E-02  0.1236481E+00
         21   -1    0    0  505  501  0.00000000000E+00  0.00000000000E+00  0.39810884496E+02  0.39810884496E+02  0.00000000000E+00 0.  1.
         21   -1    0    0  503  502 -0.00000000000E+00 -0.00000000000E+00 -0.11042498537E+04  0.11042498537E+04  0.00000000000E+00 0.  1.
         21    1    1    2  503  506  0.76006162056E+02  0.13534521458E+03 -0.42485550005E+03  0.45232450708E+03  0.00000000000E+00 0.  1.
         21    1    1    2  504  501  0.42060597880E+02 -0.46547153521E+02 -0.74045089355E+02  0.97048475787E+02  0.00000000000E+00 0.  1.
         21    1    1    2  505  502 -0.11390370035E+03 -0.38953181711E+02 -0.48633959896E+03  0.50101657541E+03  0.00000000000E+00 0.  1.
         21    1    1    2  506  504 -0.41630595865E+01 -0.49844879344E+02 -0.79198780834E+02  0.93671179920E+02  0.00000000000E+00 0. -1.
<scales pt_clust_3="124.10084" pt_clust_4="113.53547" pt_clust_5="14000.00000" pt_clust_6="41.52430"></scales>
<clustering>
<clus scale="   41.524">  4  6 -1 -1</clus>
<clus scale="  113.535">  1  4  2 -1</clus>
<clus scale="  124.101">  1  3  2 -1</clus>
<clus scale="  113.535">  1  3  2 -1</clus>
</clustering>
</event>
<event>
 6    0  0.8777103E+002  0.1234559E+03  0.7546771E-02  0.1237502E+00
         21   -1    0    0  506  501  0.00000000000E+00  0.00000000000E+00  0.82328438089E+03  0.82328438089E+03  0.00000000000E+00 0.  1.
         21   -1    0    0  503  502 -0.00000000000E+00 -0.00000000000E+00 -0.68005040525E+02  0.68005040525E+02  0.00000000000E+00 0. -1.
         21    1    1    2  503  504 -0.51995109135E+02  0.70044572798E+02  0.69916625498E+02  0.11179475870E+03  0.00000000000E+00 0. -1.
         21    1    1    2  504  501 -0.69001053039E+02 -0.78772194495E+02  0.22034039554E+03  0.24395920530E+03  0.00000000000E+00 0. -1.
         21    1    1    2  505  502 -0.40461351552E+02 -0.13961300687E+02  0.46405277613E-01  0.42802348531E+02  0.00000000000E+00 0. -1.
         21    1    1    2  506  505  0.16145751373E+03  0.22688922384E+02  0.46497591405E+03  0.49273310888E+03  0.00000000000E+00 0.  1.
<scales pt_clust_3="94.81776" pt_clust_4="123.45590" pt_clust_5="42.80232" pt_clust_6="14000.00000"></scales>
<clustering>
<clus scale="   42.802">  2  5  1 -1</clus>
<clus scale="   94.818">  2  3  1 -1</clus>
<clus scale="  123.456">  1  4  2 -1</clus>
<clus scale="  123.456">  1  3  2 -1</clus>
</clustering>
</event>
<event>
 6    0  0.8777103E+002  0.1197953E+03  0.7546771E-02  0.1243435E+00
         21   -1    0    0  503  501  0.00000000000E+00  0.00000000000E+00  0.31610608952E+03  0.31610608952E+03  0.00000000000E+00 0.  1.
         21   -1    0    0  505  502 -0.00000000000E+00 -0.00000000000E+00 -0.13344179448E+04  0.13344179448E+04  0.00000000000E+00 0.  1.
         21    1    1    2  503  506  0.13091601135E+02  0.59990285593E+02  0.13246804226E+03  0.14600687177E+03  0.00000000000E+00 0.  1.
         21    1    1    2  504  501  0.10021377321E+03 -0.83732423502E+02  0.85871314831E+02  0.15629395957E+03  0.00000000000E+00 0.  1.
         21    1    1    2  505  504 -0.10238622576E+03  0.67104997279E+02 -0.12275645643E+02  0.12303134300E+03  0.00000000000E+00 0.  1.
         21    1    1    2  506  502 -0.10919148591E+02 -0.43362859371E+02 -0.12243755667E+04  0.12251918600E+04  0.00000000000E+00 0.  1.
<scales pt_clust_3="58.64258" pt_clust_4="14000.00000" pt_clust_5="119.79529" pt_clust_6="44.71650"></scales>
<clustering>
<clus scale="   44.717">  2  6  1 -1</clus>
<clus scale="   58.643">  1  3  2 -1</clus>
<clus scale="  119.795">  2  5  1 -1</clus>
<clus scale="   58.643">  1  3  2 -1</clus>
</clustering>
</event>
<event>
 6    0  0.8777103E+002  0.1209103E+03  0.7546771E-02  0.1241603E+00
         21   -1    0    0  503  501  0.00000000000E+00  0.00000000000E+00  0.20340483200E+04  0.20340483200E+04  0.00000000000E+00 0.  1.
         21   -1    0    0  505  502 -0.00000000000E+00 -0.00000000000E+00 -0.16628619081E+02  0.16628619081E+02  0.00000000000E+00 0. -1.
         21    1    1    2  503  506 -0.16567837779E+02 -0.70201905134E+02  0.31350185156E+03  0.32169272865E+03  0.00000000000E+00 0. -1.
         21    1    1    2  504  501 -0.62146701953E+02  0.10305356953E+03  0.13122779321E+04  0.13177843609E+04  0.00000000000E+00 0.  1.
         21    1    1    2  505  504  0.80758404856E+02  0.49531841840E+01  0.32115689908E+03  0.33119210108E+03  0.00000000000E+00 0. -1.
         21    1    1    2  506  502 -0.20438651242E+01 -0.37804848576E+02  0.70483018107E+02  0.80007748387E+02  0.00000000000E+00 0. -1.
<scales pt_clust_3="31.63815" pt_clust_4="112.74862" pt_clust_5="80.91016" pt_clust_6="31.63815"></scales>
<clustering>
<clus scale="   31.638">  3  6 -1 -1</clus>
<clus scale="   80.910">  2  5  1 -1</clus>
<clus scale="  112.749">  1  4  2 -1</clus>
<clus scale="  112.749">  1  3  2 -1</clus>
</clustering>
</event>
<event>
 6    0  0.8777103E+002  0.1484849E+03  0.7546771E-02  0.1202347E+00
         21   -1    0    0  503  501  0.00000000000E+00  0.00000000000E+00  0.52955196729E+03  0.52955196729E+03  0.00000000000E+00 0. -1.
         21   -1    0    0  505  502 -0.00000000000E+00 -0.00000000000E+00 -0.60414153221E+03  0.60414153221E+03  0.00000000000E+00 0. -1.
         21    1    1    2  503  504 -0.10885911380E+03 -0.94472854527E+02  0.38288653266E+03  0.40911798273E+03  0.00000000000E+00 0. -1.
         21    1    1    2  504  506 -0.71359057020E+02 -0.63227374217E+02  0.34890529353E+02  0.10152420848E+03  0.00000000000E+00 0.  1.
         21    1    1    2  505  501  0.16079030879E+03  0.12076784670E+03 -0.93080760828E+02  0.22159066820E+03  0.00000000000E+00 0. -1.
         21    1    1    2  506  502  0.19427862035E+02  0.36932382043E+02 -0.39928586611E+03  0.40146064009E+03  0.00000000000E+00 0. -1.
<scales pt_clust_3="14000.00000" pt_clust_4="88.99110" pt_clust_5="148.48494" pt_clust_6="41.73060"></scales>
<clustering>
<clus scale="   41.731">  2  6  1 -1</clus>
<clus scale="   88.991">  2  4  1 -1</clus>
<clus scale="  148.485">  2  5  1 -1</clus>
<clus scale="  148.485">  1  3  2 -1</clus>
</clustering>
</event>
<event>
 6    0  0.8777103E+002  0.1118928E+03  0.7546771E-02  0.1257104E+00
         21   -1    0    0  504  501  0.00000000000E+00  0.00000000000E+00  0.36374072513E+02  0.36374072513E+02  0.00000000000E+00 0. -1.
         21   -1    0    0  505  502 -0.00000000000E+00 -0.00000000000E+00 -0.12956515739E+04  0.12956515739E+04  0.00000000000E+00 0. -1.
         21    1    1    2  503  501  0.39194270563E+02  0.64509195259E+02 -0.10325402882E+03  0.12790239085E+03  0.00000000000E+00 0.  1.
         21    1    1    2  504  506  0.86575862898E+02  0.47845509018E+02 -0.39791927779E+03  0.41002966284E+03  0.00000000000E+00 0. -1.
         21    1    1    2  505  503 -0.14002637716E+03 -0.51742356661E+02 -0.33931993611E+03  0.37070564713E+03  0.00000000000E+00 0. -1.
         21    1    1    2  506  502  0.14256243696E+02 -0.60612347617E+02 -0.41878425866E+03  0.42338794559E+03  0.00000000000E+00 0. -1.
<scales pt_clust_3="69.85385" pt_clust_4="14000.00000" pt_clust_5="111.89279" pt_clust_6="62.26634"></scales>
<clustering>
<clus scale="   62.266">  2  6  1 -1</clus>
<clus scale="   69.854">  1  3  2 -1</clus>
<clus scale="  111.893">  1  5  2 -1</clus>
<clus scale="   69.854">  1  3  2 -1</clus>
</clustering>
</event>
<event>
 6    0  0.8777103E+002  0.1050963E+03  0.7546771E-02  0.1269930E+00
         21   -1    0    0  503  501  0.00000000000E+00  0.00000000000E+00  0.28477501998E+03  0.28477501998E+03  0.00000000000E+00 0.  1.
         21   -1    0    0  505  502 -0.00000000000E+00 -0.00000000000E+00 -0.19342081541E+03  0.19342081541E+03  0.00000000000E+00 0. -1.
         21    1    1    2  503  506 -0.60418629676E+02  0.22933705031E+02  0.44988143181E+02  0.78741975244E+02  0.00000000000E+00 0.  1.
         21    1    1    2  504  501  0.77781608547E+02 -0.14403861911E+02  0.30556904778E+02  0.84800791834E+02  0.00000000000E+00 0.  1.
         21    1    1    2  505  504 -0.52142493491E+01 -0.11205846704E+03  0.12207910797E+03  0.16579383896E+03  0.00000000000E+00 0.  1.
         21    1    1    2  506  502 -0.12148729522E+02  0.10352862392E+03 -0.10626995137E+03  0.14885922936E+03  0.00000000000E+00 0. -1.
<scales pt_clust_3="64.62481" pt_clust_4="62.72252" pt_clust_5="14000.00000" pt_clust_6="105.09630"></scales>
<clustering>
<clus scale="   64.625">  1  3  2 -1</clus>
<clus scale="   62.723">  1  4  2 -1</clus>
<clus scale="  105.096">  2  6  1 -1</clus>
<clus scale="   64.625">  1  3  2 -1</clus>
</clustering>
</event>
<event>
 6    0  0.8777103E+002  0.9022997E+02  0.7546771E-02  0.1302296E+00
         21   -1    0    0  504  501  0.00000000000E+00  0.00000000000E+00  0.10685935274E+04  0.10685935274E+04  0.00000000000E+00 0.  1.
         21   -1    0    0  503  502 -0.00000000000E+00 -0.00000000000E+00 -0.55541191483E+02  0.55541191483E+02  0.00000000000E+00 0. -1.
         21    1    1    2  503  505 -0.30402239332E+02 -0.99558783583E+01  0.24124729629E+01  0.32081703448E+02  0.00000000000E+00 0. -1.
         21    1    1    2  504  502 -0.72964390884E+02  0.74013672099E+02  0.66186692894E+03  0.66997735605E+03  0.00000000000E+00 0.  1.
         21    1    1    2  505  506  0.51701885011E+02 -0.74386360973E+01 -0.11712745170E+02  0.53531361090E+02  0.00000000000E+00 0. -1.
         21    1    1    2  506  501  0.51664745205E+02 -0.56619157643E+02  0.36048567919E+03  0.36854429830E+03  0.00000000000E+00 0. -1.
<scales pt_clust_3="31.99087" pt_clust_4="90.22997" pt_clust_5="31.38534" pt_clust_6="14000.00000"></scales>
<clustering>
<clus scale="   31.991">  2  3  1 -1</clus>
<clus scale="   31.385">  2  5  1 -1</clus>
<clus scale="   90.230">  2  4  1 -1</clus>
<clus scale="   90.230">  1  3  2 -1</clus>
</clustering>
</event>
<event>
 6    0  0.8777103E+002  0.1444229E+03  0.7546771E-02  0.1207499E+00
         21   -1    0    0  504  501  0.00000000000E+00  0.00000000000E+00  0.30806224669E+03  0.30806224669E+03  0.00000000000E+00 0. -1.
         21   -1    0    0  505  502 -0.00000000000E+00 -0.00000000000E+00 -0.28212653196E+03  0.28212653196E+03  0.00000000000E+00 0. -1.
         21    1    1    2  503  502  0.12651433168E+02 -0.16465647047E+03 -0.11114998982E+03  0.19906313638E+03  0.00000000000E+00 0. -1.
         21    1    1    2  504  503 -0.34442752527E+02  0.16190489396E+03  0.98457524642E+02  0.19259642273E+03  0.00000000000E+00 0. -1.
         21    1    1    2  505  506  0.35513839551E+02  0.44368659269E+02 -0.64805980217E+02  0.86195277115E+02  0.00000000000E+00 0. -1.
         21    1    1    2  506  501 -0.13722520192E+02 -0.41617082754E+02  0.10343416013E+03  0.11233394242E+03  0.00000000000E+00 0. -1.
<scales pt_clust_3="144.42288" pt_clust_4="14000.00000" pt_clust_5="54.64356" pt_clust_6="43.82110"></scales>
<clustering>
<clus scale="   43.821">  1  6  2 -1</clus>
<clus scale="   54.644">  2  5  1 -1</clus>
<clus scale="  144.423">  2  3  1 -1</clus>
<clus scale="   43.821">  1  3  2 -1</clus>
</clustering>
</event>
<event>
 6    0  0.8777103E+002  0.1123642E+03  0.7546771E-02  0.1256253E+00
         21   -1    0    0  505  501  0.00000000000E+00  0.00000000000E+00  0.13205817686E+04  0.13205817686E+04  0.00000000000E+00 0. -1.
         21   -1    0    0  503  502 -0.00000000000E+00 -0.00000000000E+00 -0.22633652464E+04  0.22633652464E+04  0.00000000000E+00 0.  1.
         21    1    1    2  503  501 -0.45168358369E+02 -0.20423483597E+02 -0.32174290994E+02  0.59097244275E+02  0.00000000000E+00 0. -1.
         21    1    1    2  504  502 -0.35803719602E+02 -0.78650205063E+02 -0.21728624881E+04  0.21745802246E+04  0.00000000000E+00 0.  1.
         21    1    1    2  505  506  0.13518636322E+02  0.55579645172E+02  0.12684792182E+04  0.12697682377E+04  0.00000000000E+00 0. -1.
         21    1    1    2  506  504  0.67453441649E+02  0.43494043488E+02 -0.62259169439E+01  0.80501308380E+02  0.00000000000E+00 0. -1.
<scales pt_clust_3="49.57115" pt_clust_4="14000.00000" pt_clust_5="57.19122" pt_clust_6="112.36417"></scales>
<clustering>
<clus scale="   49.571">  2  3  1 -1</clus>
<clus scale="   57.191">  1  5  2 -1</clus>
<clus scale="  112.364">  1  6  2 -1</clus>
<clus scale="   57.191">  1  3  2 -1</clus>
</clustering>
</event>
<event>
 6    0  0.8777103E+002  0.1224757E+03  0.7546771E-02  0.1239068E+00
         21   -1    0    0  505  501  0.00000000000E+00  0.00000000000E+00  0.17825739813E+04  0.17825739813E+04  0.00000000000E+00 0.  1.
         21   -1    0    0  503  502 -0.00000000000E+00 -0.00000000000E+00 -0.59725457168E+02  0.59725457168E+02  0.00000000000E+00 0.  1.
         21    1    1    2  503  506  0.39669120025E+02  0.36518320694E+02 -0.16828739655E+02  0.56483920794E+02  0.00000000000E+00 0.  1.
         21    1    1    2  504  502 -0.12507020543E+03  0.23531160719E+02  0.28826799888E+03  0.31511063293E+03  0.00000000000E+00 0.  1.
         21    1    1    2  505  504 -0.45615843145E+02 -0.10744165620E+02  0.91917290600E+03  0.92036681457E+03  0.00000000000E+00 0.  1.
         21    1    1    2  506  501  0.13101692855E+03 -0.49305315793E+02  0.53223635891E+03  0.55033807017E+03  0.00000000000E+00 0.  1.
<scales pt_clust_3="52.98288" pt_clust_4="14000.00000" pt_clust_5="46.86408" pt_clust_6="122.47567"></scales>
<clustering>
<clus scale="   46.864">  1  5  2 -1</clus>
<clus scale="   52.983">  2  3  1 -1</clus>
<clus scale="  122.476">  1  6  2 -1</clus>
<clus scale="   46.864">  1  3  2 -1</clus>
</clustering>
</event>
<event>
 6    0  0.8777103E+002  0.6617063E+02  0.7546771E-02  0.1373621E+00
         21   -1    0    0  504  501  0.00000000000E+00  0.00000000000E+00  0.28535212157E+04  0.28535212157E+04  0.00000000000E+00 0.  1.
         21   -1    0    0  506  502 -0.00000000000E+00 -0.00000000000E+00 -0.15195016327E+03  0.15195016327E+03  0.00000000000E+00 0.  1.
         21    1    1    2  503  501 -0.23290503646E+02 -0.35171599333E+02  0.12055965004E+04  0.12063342865E+04  0.00000000000E+00 0.  1.
         21    1    1    2  504  502  0.20831932378E+02  0.73413022542E+02  0.96893102721E+03  0.97193146712E+03  0.00000000000E+00 0.  1.
         21    1    1    2  505  503 -0.54043731434E+02 -0.72306447982E+02  0.66668168629E+03  0.67276550012E+03  0.00000000000E+00 0.  1.
         21    1    1    2  506  505  0.56502302702E+02  0.34065024773E+02 -0.13963816151E+03  0.15444012521E+03  0.00000000000E+00 0.  1.
<scales pt_clust_3="42.18399" pt_clust_4="53.17447" pt_clust_5="66.17063" pt_clust_6="14000.00000"></scales>
<clustering>
<clus scale="   42.184">  1  3  2 -1</clus>
<clus scale="   53.174">  1  4  2 -1</clus>
<clus scale="   66.171">  1  5  2 -1</clus>
<clus scale="   42.184">  1  3  2 -1</clus>
</clustering>
</event>
<event>
 6    0  0.8777103E+002  0.1592025E+03  0.7546771E-02  0.1189600E+00
         21   -1    0    0  504  501  0.00000000000E+00  0.00000000000E+00  0.14459001474E+04  0.14459001474E+04  0.00000000000E+00 0.  1.
         21   -1    0    0  505  502 -0.00000000000E+00 -0.00000000000E+00 -0.71909277217E+02  0.71909277217E+02  0.00000000000E+00 0.  1.
         21    1    1    2  503  501 -0.12072291418E+03  0.99775490137E+01  0.18054819725E+03  0.21741946790E+03  0.00000000000E+00 0.  1.
         21    1    1    2  504  506 -0.65674082806E+02  0.95261839792E+02  0.70978398611E+03  0.71915312014E+03  0.00000000000E+00 0.  1.
         21    1    1    2  505  503 -0.30950277626E+02 -0.27189839137E+02 -0.42686602498E+01  0.41417731683E+02  0.00000000000E+00 0.  1.
         21    1    1    2  506  502  0.21734727461E+03 -0.78049549668E+02  0.48792734706E+03  0.53981910488E+03  0.00000000000E+00 0.  1.
<scales pt_clust_3="159.20250" pt_clust_4="115.31225" pt_clust_5="41.19717" pt_clust_6="14000.00000"></scales>
<clustering>
<clus scale="   41.197">  2  5  1 -1</clus>
<clus scale="  115.312">  1  4  2 -1</clus>
<clus scale="  159.202">  2  3  1 -1</clus>
<clus scale="  115.312">  1  3  2 -1</clus>
</clustering>
</event>
<event>
 6    0  0.8777103E+002  0.6609711E+02  0.7546771E-02  0.1373892E+00
         21   -1    0    0  506  501  0.00000000000E+00  0.00000000000E+00  0.27644655516E+03  0.27644655516E+03  0.00000000000E+00 0. -1.
         21   -1    0    0  503  502 -0.00000000000E+00 -0.00000000000E+00 -0.27689198794E+03  0.27689198794E+03  0.00000000000E+00 0. -1.
         21    1    1    2  503  501  0.27035491617E+02 -0.97662428339E+02 -0.10992988746E+03  0.14951069485E+03  0.00000000000E+00 0. -1.
         21    1    1    2  504  502  0.41144553042E+02  0.47707159426E+02 -0.10675426679E+03  0.12395693116E+03  0.00000000000E+00 0. -1.
         21    1    1    2  505  504 -0.43544173738E+02  0.22199954609E+02 -0.10602913288E+02  0.50013546378E+02  0.00000000000E+00 0. -1.
         21    1    1    2  506  505 -0.24635870921E+02  0.27755314304E+02  0.22684163477E+03  0.22985737071E+03  0.00000000000E+00 0. -1.
<scales pt_clust_3="66.09711" pt_clust_4="14000.00000" pt_clust_5="63.27724" pt_clust_6="37.11177"></scales>
<clustering>
<clus scale="   37.112">  1  6  2 -1</clus>
<clus scale="   63.277">  1  5  2 -1</clus>
<clus scale="   66.097">  1  3  2 -1</clus>
<clus scale="   37.112">  1  3  2 -1</clus>
</clustering>
</event>
<event>
 6    0  0.8777103E+002  0.2506521E+03  0.7546771E-02  0.1112893E+00
         21   -1    0    0  506  501  0.00000000000E+00  0.00000000000E+00  0.23491207332E+03  0.23491207332E+03  0.00000000000E+00 0. -1.
         21   -1    0    0  503  502 -0.00000000000E+00 -0.00000000000E+00 -0.16262007196E+04  0.16262007196E+04  0.00000000000E+00 0. -1.
         21    1    1    2  503  505 -0.20829934501E+03 -0.20223004806E+03 -0.86539535897E+03  0.91279501357E+03  0.00000000000E+00 0. -1.
         21    1    1    2  504  502  0.45861777214E+02 -0.15621177044E+02 -0.59340480367E+03  0.59537936208E+03  0.00000000000E+00 0. -1.
         21    1    1    2  505  501  0.16027620410E+03  0.37989288762E+02  0.50381558655E+02  0.17224967086E+03  0.00000000000E+00 0. -1.
         21    1    1    2  506  504  0.21613637006E+01  0.17986193634E+03  0.17129957664E+02  0.18068874643E+03  0.00000000000E+00 0.  1.
<scales pt_clust_3="250.65209" pt_clust_4="48.44919" pt_clust_5="167.14642" pt_clust_6="14000.00000"></scales>
<clustering>
<clus scale="   48.449">  2  4  1 -1</clus>
<clus scale="  167.146">  1  5  2 -1</clus>
<clus scale="  250.652">  2  3  1 -1</clus>
<clus scale="  167.146">  1  3  2 -1</clus>
</clustering>
</event>
<event>
 6    0  0.8777103E+002  0.1368187E+03  0.7546771E-02  0.1217675E+00
         21   -1    0    0  506  501  0.00000000000E+00  0.00000000000E+00  0.12679734511E+04  0.12679734511E+04  0.00000000000E+00 0.  1.
         21   -1    0    0  505  502 -0.00000000000E+00 -0.00000000000E+00 -0.11328583335E+03  0.11328583335E+03  0.00000000000E+00 0.  1.
         21    1    1    2  503  501 -0.14330682700E+02  0.37337200528E+02  0.90374185638E+03  0.90462631952E+03  0.00000000000E+00 0.  1.
         21    1    1    2  504  502 -0.17167623346E+02  0.99834644905E+02  0.13712485724E+03  0.17048433971E+03  0.00000000000E+00 0.  1.
         21    1    1    2  505  503  0.79588107698E+02 -0.13180359962E+03 -0.27827263751E+02  0.15646345378E+03  0.00000000000E+00 0.  1.
         21    1    1    2  506  504 -0.48089801653E+02 -0.53682458125E+01  0.14164816793E+03  0.14968517149E+03  0.00000000000E+00 0.  1.
<scales pt_clust_3="39.99294" pt_clust_4="136.81868" pt_clust_5="14000.00000" pt_clust_6="54.67424"></scales>
<clustering>
<clus scale="   39.993">  1  3  2 -1</clus>
<clus scale="   54.674">  1  6  2 -1</clus>
<clus scale="  136.819">  1  4  2 -1</clus>
<clus scale="   39.993">  1  3  2 -1</clus>
</clustering>
</event>
<event>
 6    0  0.8777103E+002  0.1004268E+03  0.7546771E-02  0.1279401E+00
         21   -1    0    0  502  501  0.00000000000E+00  0.00000000000E+00  0.16859839764E+03  0.16859839764E+03  0.00000000000E+00 0.  1.
         21   -1    0    0  503  502 -0.00000000000E+00 -0.00000000000E+00 -0.54172374608E+03  0.54172374608E+03  0.00000000000E+00 0.  1.
         21    1    1    2  503  505  0.56556737274E+02  0.19331802960E+02 -0.17837195758E+03  0.18811947902E+03  0.00000000000E+00 0.  1.
         21    1    1    2  504  501  0.80737209576E+02  0.13998112089E+02  0.13573483576E+03  0.15855090599E+03  0.00000000000E+00 0.  1.
         21    1    1    2  505  506 -0.25697326700E+02 -0.28082328543E+02 -0.11138129985E+03  0.11770626038E+03  0.00000000000E+00 0. -1.
         21    1    1    2  506  504 -0.11159662015E+03 -0.52475865060E+01 -0.21910692676E+03  0.24594549833E+03  0.00000000000E+00 0.  1.
<scales pt_clust_3="59.76942" pt_clust_4="83.82072" pt_clust_5="32.28743" pt_clust_6="32.28743"></scales>
<clustering>
<clus scale="   32.287">  5  6 -1 -1</clus>
<clus scale="   59.769">  2  3  1 -1</clus>
<clus scale="   83.821">  1  4  2 -1</clus>
<clus scale="   83.821">  1  3  2 -1</clus>
</clustering>
</event>
<event>
 6    0  0.8777103E+002  0.8976339E+02  0.7546771E-02  0.1303426E+00
         21   -1    0    0  504  501  0.00000000000E+00  0.00000000000E+00  0.28710006068E+03  0.28710006068E+03  0.00000000000E+00 0. -1.
         21   -1    0    0  503  502 -0.00000000000E+00 -0.00000000000E+00 -0.20230511881E+03  0.20230511881E+03  0.00000000000E+00 0. -1.
         21    1    1    2  503  501  0.43310615529E+02  0.11011714054E+03 -0.84917203136E+02  0.14564520400E+03  0.00000000000E+00 0. -1.
         21    1    1    2  504  505 -0.61289454333E+02 -0.63555976245E+02  0.22557239740E+03  0.24223679695E+03  0.00000000000E+00 0. -1.
         21    1    1    2  505  506  0.25108639818E+02 -0.17082054065E+02  0.74975925626E+01  0.31280253496E+02  0.00000000000E+00 0. -1.
         21    1    1    2  506  502 -0.71298010137E+01 -0.29479110235E+02 -0.63357844955E+02  0.70242925054E+02  0.00000000000E+00 0. -1.
<scales pt_clust_3="89.76339" pt_clust_4="14000.00000" pt_clust_5="31.40518" pt_clust_6="30.32906"></scales>
<clustering>
<clus scale="   30.329">  2  6  1 -1</clus>
<clus scale="   31.405">  2  5  1 -1</clus>
<clus scale="   89.763">  2  3  1 -1</clus>
<clus scale="   89.763">  1  3  2 -1</clus>
</clustering>
</event>
<event>
 6    0  0.8777103E+002  0.1139822E+03  0.7546771E-02  0.1253368E+00
         21   -1    0    0  503  501  0.00000000000E+00  0.00000000000E+00  0.65220046963E+03  0.65220046963E+03  0.00000000000E+00 0. -1.
         21   -1    0    0  506  502 -0.00000000000E+00 -0.00000000000E+00 -0.37804326024E+03  0.37804326024E+03  0.00000000000E+00 0. -1.
         21    1    1    2  503  505  0.85267517829E+02 -0.78905811816E+02  0.60871539436E+03  0.61970243510E+03  0.00000000000E+00 0. -1.
         21    1    1    2  504  502 -0.32808919257E+02  0.33489079905E+01 -0.24608118034E+03  0.24828126729E+03  0.00000000000E+00 0. -1.
         21    1    1    2  505  504 -0.56645649820E+02  0.40048036049E+02 -0.10257062373E+03  0.12382773392E+03  0.00000000000E+00 0. -1.
         21    1    1    2  506  501  0.41870512486E+01  0.35508867777E+02  0.14093619113E+02  0.38432293565E+02  0.00000000000E+00 0.  1.
<scales pt_clust_3="113.98217" pt_clust_4="32.97939" pt_clust_5="14000.00000" pt_clust_6="35.83830"></scales>
<clustering>
<clus scale="   32.979">  2  4  1 -1</clus>
<clus scale="   35.838">  2  6  1 -1</clus>
<clus scale="  113.982">  1  3  2 -1</clus>
<clus scale="  113.982">  1  3  2 -1</clus>
</clustering>
</event>
<event>
 6    0  0.8777103E+002  0.1005436E+03  0.7546771E-02  0.1279157E+00
         21   -1    0    0  504  501  0.00000000000E+00  0.00000000000E+00  0.84130368732E+02  0.84130368732E+02  0.00000000000E+00 0. -1.
         21   -1    0    0  506  502 -0.00000000000E+00 -0.00000000000E+00 -0.20804401924E+04  0.20804401924E+04  0.00000000000E+00 0. -1.
         21    1    1    2  503  505  0.11139342080E+03  0.44322476100E+02 -0.11167917304E+04  0.11232082377E+04  0.00000000000E+00 0. -1.
         21    1    1    2  504  503 -0.23040037401E+02 -0.39637497677E+02 -0.85504988617E+02  0.97021016403E+02  0.00000000000E+00 0. -1.
         21    1    1    2  505  502 -0.12609185976E+02 -0.28408342075E+02 -0.84785868551E+03  0.84842817967E+03  0.00000000000E+00 0. -1.
         21    1    1    2  506  501 -0.75744197425E+02  0.23723363652E+02  0.53845580858E+02  0.95913127383E+02  0.00000000000E+00 0. -1.
<scales pt_clust_3="14000.00000" pt_clust_4="48.13617" pt_clust_5="31.08095" pt_clust_6="100.54357"></scales>
<clustering>
<clus scale="   31.081">  2  5  1 -1</clus>
<clus scale="   48.136">  1  4  2 -1</clus>
<clus scale="  100.544">  1  6  2 -1</clus>
<clus scale="   48.136">  1  3  2 -1</clus>
</clustering>
</event>
<event>
 6    0  0.8777103E+002  0.1185577E+03  0.7546771E-02  0.1245496E+00
         21   -1    0    0  506  501  0.00000000000E+00  0.00000000000E+00  0.12461656291E+04  0.12461656291E+04  0.00000000000E+00 0. -1.
         21   -1    0    0  504  502 -0.00000000000E+00 -0.00000000000E+00 -0.69308505897E+03  0.69308505897E+03  0.00000000000E+00 0.  1.
         21    1    1    2  503  501  0.81996001975E+02 -0.10579293306E+03  0.98409619174E+03  0.99315698841E+03  0.00000000000E+00 0. -1.
         21    1    1    2  504  505 -0.69722925538E+01  0.73899324319E+02 -0.38284628977E+03  0.38997564615E+03  0.00000000000E+00 0.  1.
         21    1    1    2  505  503  0.30674143742E+02  0.30958246867E+02 -0.28944322755E+03  0.29270582180E+03  0.00000000000E+00 0.  1.
         21    1    1    2  506  502 -0.10569785316E+03  0.93536187452E+00  0.24127389575E+03  0.26341223175E+03  0.00000000000E+00 0. -1.
<scales pt_clust_3="107.38726" pt_clust_4="38.49491" pt_clust_5="38.49491" pt_clust_6="105.70199"></scales>
<clustering>
<clus scale="   38.495">  4  5 -1 -1</clus>
<clus scale="  105.702">  1  6  2 -1</clus>
<clus scale="  107.387">  1  3  2 -1</clus>
<clus scale="  105.702">  1  3  2 -1</clus>
</clustering>
</event>
<event>
 6    0  0.8777103E+002  0.1709608E+03  0.7546771E-02  0.1176850E+00
         21   -1    0    0  505  501  0.00000000000E+00  0.00000000000E+00  0.32936755461E+02  0.32936755461E+02  0.00000000000E+00 0. -1.
         21   -1    0    0  503  502 -0.00000000000E+00 -0.00000000000E+00 -0.11898843518E+04  0.11898843518E+04  0.00000000000E+00 0. -1.
         21    1    1    2  503  504 -0.29802427956E+02  0.35230552266E+02 -0.31822387177E+03  0.32155218719E+03  0.00000000000E+00 0. -1.
         21    1    1    2  504  501 -0.99724232342E+02 -0.12159909614E+03 -0.36703198051E+03  0.39930406636E+03  0.00000000000E+00 0. -1.
         21    1    1    2  505  506  0.82313228274E+02  0.88111369375E+02 -0.38217506491E+03  0.40074538201E+03  0.00000000000E+00 0. -1.
         21    1    1    2  506  502  0.47213432024E+02 -0.17428255044E+01 -0.89516679144E+02  0.10121947169E+03  0.00000000000E+00 0. -1.
<scales pt_clust_3="46.14517" pt_clust_4="154.88270" pt_clust_5="45.30726" pt_clust_6="45.30726"></scales>
<clustering>
<clus scale="   45.307">  5  6 -1 -1</clus>
<clus scale="   46.145">  2  3  1 -1</clus>
<clus scale="  154.883">  1  4  2 -1</clus>
<clus scale="  154.883">  1  3  2 -1</clus>
</clustering>
</event>
<event>
 6    0  0.8777103E+002  0.9951603E+02  0.7546771E-02  0.1281317E+00
         21   -1    0    0  506  501  0.00000000000E+00  0.00000000000E+00  0.10065340926E+03  0.10065340926E+03  0.00000000000E+00 0.  1.
         21   -1    0    0  505  502 -0.00000000000E+00 -0.00000000000E+00 -0.41643476143E+03  0.41643476143E+03  0.00000000000E+00 0.  1.
         21    1    1    2  503  502  0.40021953651E+02  0.15541816433E+02 -0.13285329942E+03  0.13961842285E+03  0.00000000000E+00 0.  1.
         21    1    1    2  504  503  0.15230998962E+02  0.51486517547E+02 -0.19900632982E+03  0.20612220678E+03  0.00000000000E+00 0.  1.
         21    1    1    2  505  501 -0.82004850787E+02 -0.92321336846E+02  0.37121733515E+02  0.12894203306E+03  0.00000000000E+00 0.  1.
         21    1    1    2  506  504  0.26751898174E+02  0.25293002866E+02 -0.21043456444E+02  0.42405508003E+02  0.00000000000E+00 0.  1.
<scales pt_clust_3="38.68657" pt_clust_4="38.68657" pt_clust_5="89.68476" pt_clust_6="36.81576"></scales>
<clustering>
<clus scale="   36.816">  1  6  2 -1</clus>
<clus scale="   38.687">  3  4 -1 -1</clus>
<clus scale="   89.685">  1  5  2 -1</clus>
<clus scale="   36.816">  1  3  2 -1</clus>
</clustering>
</event>
<event>
 6    0  0.8777103E+002  0.1662880E+03  0.7546771E-02  0.1181775E+00
         21   -1    0    0  506  501  0.00000000000E+00  0.00000000000E+00  0.37119595703E+04  0.37119595703E+04  0.00000000000E+00 0.  1.
         21   -1    0    0  504  502 -0.00000000000E+00 -0.00000000000E+00 -0.60685959760E+02  0.60685959760E+02  0.00000000000E+00 0.  1.
         21    1    1    2  503  502 -0.30616841627E+02  0.30542517573E+02  0.45365502798E+02  0.62675874266E+02  0.00000000000E+00 0.  1.
         21    1    1    2  504  501  0.30890870939E+02  0.57268770537E+01 -0.35100636831E+02  0.47107300221E+02  0.00000000000E+00 0.  1.
         21    1    1    2  505  503 -0.15396819613E+03 -0.91419501402E+02  0.93879696144E+03  0.95572143717E+03  0.00000000000E+00 0.  1.
         21    1    1    2  506  505  0.15369416682E+03  0.55150106776E+02  0.27022117832E+04  0.27071409184E+04  0.00000000000E+00 0.  1.
<scales pt_clust_3="37.17020" pt_clust_4="31.41724" pt_clust_5="14000.00000" pt_clust_6="166.28796"></scales>
<clustering>
<clus scale="   31.417">  2  4  1 -1</clus>
<clus scale="   37.170">  2  3  1 -1</clus>
<clus scale="  166.288">  1  6  2 -1</clus>
<clus scale="  166.288">  1  3  2 -1</clus>
</clustering>
</event>
<event>
 6    0  0.8777103E+002  0.1147717E+03  0.7546771E-02  0.1251980E+00
         21   -1    0    0  504  501  0.00000000000E+00  0.00000000000E+00  0.82032416999E+03  0.82032416999E+03  0.00000000000E+00 0.  1.
         21   -1    0    0  505  502 -0.00000000000E+00 -0.00000000000E+00 -0.26052049962E+03  0.26052049962E+03  0.00000000000E+00 0.  1.
         21    1    1    2  503  502 -0.33313148758E+02 -0.13004056998E+03 -0.18926334571E+03  0.23203648366E+03  0.00000000000E+00 0.  1.
         21    1    1    2  504  503 -0.13922344306E+02  0.32071986481E+02  0.56925287549E+03  0.57032559143E+03  0.00000000000E+00 0.  1.
         21    1    1    2  505  506  0.32731075314E+02  0.12660688451E+02 -0.33356936628E+02  0.48417987820E+02  0.00000000000E+00 0.  1.
         21    1    1    2  506  501  0.14504417750E+02  0.85307895043E+02  0.21317107722E+03  0.23006460670E+03  0.00000000000E+00 0.  1.
<scales pt_clust_3="114.77165" pt_clust_4="34.96347" pt_clust_5="35.06760" pt_clust_6="14000.00000"></scales>
<clustering>
<clus scale="   34.963">  1  4  2 -1</clus>
<clus scale="   35.068">  2  5  1 -1</clus>
<clus scale="  114.772">  2  3  1 -1</clus>
<clus scale="   34.963">  1  3  2 -1</clus>
</clustering>
</event>
<event>
 6    0  0.8777103E+002  0.6326507E+02  0.7546771E-02  0.1384619E+00
         21   -1    0    0  506  501  0.00000000000E+00  0.00000000000E+00  0.17843506604E+04  0.17843506604E+04  0.00000000000E+00 0. -1.
         21   -1    0    0  504  502 -0.00000000000E+00 -0.00000000000E+00 -0.10022222675E+03  0.10022222675E+03  0.00000000000E+00 0. -1.
         21    1    1    2  503  501  0.24031617113E+02 -0.78138746771E+02  0.40216546446E+03  0.41039035463E+03  0.00000000000E+00 0. -1.
         21    1    1    2  504  503 -0.48850963898E+02 -0.67074814153E+00 -0.99501546790E+01  0.49858521388E+02  0.00000000000E+00 0. -1.
         21    1    1    2  505  502  0.81345916823E+02  0.49647393145E+02 -0.30745845217E+02  0.10013655091E+03  0.00000000000E+00 0. -1.
         21    1    1    2  506  505 -0.56526570039E+02  0.29162101767E+02  0.13226589691E+04  0.13241874602E+04  0.00000000000E+00 0. -1.
<scales pt_clust_3="63.26507" pt_clust_4="48.85557" pt_clust_5="60.75237" pt_clust_6="14000.00000"></scales>
<clustering>
<clus scale="   48.856">  2  4  1 -1</clus>
<clus scale="   60.752">  2  5  1 -1</clus>
<clus scale="   63.265">  2  3  1 -1</clus>
<clus scale="   63.265">  1  3  2 -1</clus>
</clustering>
</event>
<event>
 6    0  0.8777103E+002  0.1182882E+03  0.7546771E-02  0.1245948E+00
         21   -1    0    0  505  501  0.00000000000E+00  0.00000000000E+00  0.14857738740E+04  0.14857738740E+04  0.00000000000E+00 0. -1.
         21   -1    0    0  504  502 -0.00000000000E+00 -0.00000000000E+00 -0.81254451685E+02  0.81254451685E+02  0.00000000000E+00 0.  1.
         21    1    1    2  503  502 -0.27333317908E+02  0.25155120388E+02 -0.31052221500E+02  0.48416224653E+02  0.00000000000E+00 0.  1.
         21    1    1    2  504  501  0.26892189897E+02 -0.42550326810E+02  0.25218746760E+03  0.25716189259E+03  0.00000000000E+00 0. -1.
         21    1    1    2  505  506  0.27215766975E+02 -0.70947446840E+02  0.11648139461E+04  0.11672899242E+04  0.00000000000E+00 0. -1.
         21    1    1    2  506  503 -0.26774638964E+02  0.88342653263E+02  0.18570230132E+02  0.94160284220E+02  0.00000000000E+00 0.  1.
<scales pt_clust_3="37.14688" pt_clust_4="48.19098" pt_clust_5="118.28825" pt_clust_6="14000.00000"></scales>
<clustering>
<clus scale="   37.147">  2  3  1 -1</clus>
<clus scale="   48.191">  1  4  2 -1</clus>
<clus scale="  118.288">  1  5  2 -1</clus>
<clus scale="   48.191">  1  3  2 -1</clus>
</clustering>
</event>
<event>
 6    0  0.8777103E+002  0.1242882E+03  0.7546771E-02  0.1236186E+00
         21   -1    0    0  505  501  0.00000000000E+00  0.00000000000E+00  0.87629679079E+03  0.87629679079E+03  0.00000000000E+00 0. -1.
         21   -1    0    0  506  502 -0.00000000000E+00 -0.00000000000E+00 -0.15611246801E+03  0.15611246801E+03  0.00000000000E+00 0. -1.
         21    1    1    2  503  504  0.95531957153E+02 -0.12951192386E+02  0.82650528690E+02  0.12698503106E+03  0.00000000000E+00 0. -1.
         21    1    1    2  504  502  0.46296338796E+02 -0.62030409546E+02 -0.10610750675E+03  0.13133897245E+03  0.00000000000E+00 0. -1.
         21    1    1    2  505  503 -0.36928525197E+02 -0.27194001050E+02  0.36904367548E+03  0.37188232558E+03  0.00000000000E+00 0. -1.
         21    1    1    2  506  501 -0.10489977075E+03  0.10217560298E+03  0.37459762535E+03  0.40220292971E+03  0.00000000000E+00 0. -1.
<scales pt_clust_3="124.28822" pt_clust_4="77.40345" pt_clust_5="45.86098" pt_clust_6="14000.00000"></scales>
<clustering>
<clus scale="   45.861">  1  5  2 -1</clus>
<clus scale="   77.403">  2  4  1 -1</clus>
<clus scale="  124.288">  2  3  1 -1</clus>
<clus scale="   45.861">  1  3  2 -1</clus>
</clustering>
</event>
<event>
 6    0  0.8777103E+002  0.1108613E+03  0.7546771E-02  0.1258983E+00
         21   -1    0    0  505  501  0.00000000000E+00  0.00000000000E+00  0.52798323217E+03  0.52798323217E+03  0.00000000000E+00 0. -1.
         21   -1    0    0  504  502 -0.00000000000E+00 -0.00000000000E+00 -0.15758002674E+04  0.15758002674E+04  0.00000000000E+00 0.  1.
         21    1    1    2  503  501  0.31593428427E+02  0.35451012078E+02  0.73883358554E+02  0.87827499385E+02  0.00000000000E+00 0. -1.
         21    1    1    2  504  503 -0.97507401485E+02  0.60048484431E+02 -0.14679042049E+04  0.14723641766E+04  0.00000000000E+00 0.  1.
         21    1    1    2  505  506  0.31540930725E+02 -0.99784239403E+01  0.42259004649E+03  0.42388293980E+03  0.00000000000E+00 0. -1.
         21    1    1    2  506  502  0.34373042334E+02 -0.85521072569E+02 -0.76386235340E+02  0.11970888372E+03  0.00000000000E+00 0. -1.
<scales pt_clust_3="62.44436" pt_clust_4="14000.00000" pt_clust_5="33.08171" pt_clust_6="110.86132"></scales>
<clustering>
<clus scale="   33.082">  1  5  2 -1</clus>
<clus scale="   62.444">  1  3  2 -1</clus>
<clus scale="  110.861">  1  6  2 -1</clus>
<clus scale="   33.082">  1  3  2 -1</clus>
</clustering>
</event>
<event>
 6    0  0.8777103E+002  0.1941065E+03  0.7546771E-02  0.1154809E+00
         21   -1    0    0  504  501  0.00000000000E+00  0.00000000000E+00  0.42949772743E+02  0.42949772743E+02  0.00000000000E+00 0.  1.
         21   -1    0    0  505  502 -0.00000000000E+00 -0.00000000000E+00 -0.19521447976E+04  0.19521447976E+04  0.00000000000E+00 0.  1.
         21    1    1    2  503  502 -0.16287337767E+03  0.40287099540E+02 -0.42458721794E+03  0.45653597140E+03  0.00000000000E+00 0.  1.
         21    1    1    2  504  503 -0.27711933753E+02 -0.12893438607E+02 -0.19179864414E+02  0.36084057842E+02  0.00000000000E+00 0.  1.
         21    1    1    2  505  506 -0.24128090589E+02  0.44549210775E+02 -0.75792730787E+03  0.75961872078E+03  0.00000000000E+00 0.  1.
         21    1    1    2  506  501  0.21471340201E+03 -0.71942871708E+02 -0.70750063464E+03  0.74285582034E+03  0.00000000000E+00 0.  1.
<scales pt_clust_3="194.10647" pt_clust_4="30.56456" pt_clust_5="50.71468" pt_clust_6="14000.00000"></scales>
<clustering>
<clus scale="   30.565">  1  4  2 -1</clus>
<clus scale="   50.715">  2  5  1 -1</clus>
<clus scale="  194.106">  1  3  2 -1</clus>
<clus scale="   30.565">  1  3  2 -1</clus>
</clustering>
</event>
<event>
 6    0  0.8777103E+002  0.1280136E+03  0.7546771E-02  0.1230433E+00
         21   -1    0    0  505  501  0.00000000000E+00  0.00000000000E+00  0.38942402165E+03  0.38942402165E+03  0.00000000000E+00 0.  1.
         21   -1    0    0  503  502 -0.00000000000E+00 -0.00000000000E+00 -0.10553206967E+03  0.10553206967E+03  0.00000000000E+00 0.  1.
         21    1    1    2  503  504  0.49244700610E+02  0.61562785611E+02 -0.28778703410E+02  0.83923958917E+02  0.00000000000E+00 0.  1.
         21    1    1    2  504  501  0.19831865406E+02  0.91091999673E+02  0.10119922318E+03  0.13759483298E+03  0.00000000000E+00 0. -1.
         21    1    1    2  505  506 -0.61784369913E+02 -0.86433706678E+02  0.13969786089E+03  0.17550950502E+03  0.00000000000E+00 0.  1.
         21    1    1    2  506  502 -0.72921961043E+01 -0.66221078606E+02  0.71773571324E+02  0.97927794402E+02  0.00000000000E+00 0.  1.
<scales pt_clust_3="78.83538" pt_clust_4="120.06145" pt_clust_5="35.17110" pt_clust_6="35.17110"></scales>
<clustering>
<clus scale="   35.171">  5  6 -1 -1</clus>
<clus scale="   78.835">  2  3  1 -1</clus>
<clus scale="  120.061">  1  4  2 -1</clus>
<clus scale="  120.061">  1  3  2 -1</clus>
</clustering>
</event>
<event>
 6    0  0.8777103E+002  0.8810374E+02  0.7546771E-02  0.1307510E+00
         21   -1    0    0  505  501  0.00000000000E+00  0.00000000000E+00  0.14253489953E+04  0.14253489953E+04  0.00000000000E+00 0. -1.
         21   -1    0    0  506  502 -0.00000000000E+00 -0.00000000000E+00 -0.64227762962E+02  0.64227762962E+02  0.00000000000E+00 0. -1.
         21    1    1    2  503  501 -0.21800167527E+02 -0.26677288384E+02  0.38432516065E+03  0.38586623864E+03  0.00000000000E+00 0. -1.
         21    1    1    2  504  503  0.66172039650E+02 -0.70687546999E+02  0.82500977861E+03  0.83067238003E+03  0.00000000000E+00 0. -1.
         21    1    1    2  505  502 -0.55656161107E+02  0.89058023241E+01  0.17251121677E+03  0.18148565094E+03  0.00000000000E+00 0. -1.
         21    1    1    2  506  504  0.11284288985E+02  0.88459033059E+02 -0.20724923733E+02  0.91552488613E+02  0.00000000000E+00 0. -1.
<scales pt_clust_3="34.45178" pt_clust_4="14000.00000" pt_clust_5="59.52583" pt_clust_6="88.10374"></scales>
<clustering>
<clus scale="   34.452">  1  3  2 -1</clus>
<clus scale="   59.526">  1  5  2 -1</clus>
<clus scale="   88.104">  2  6  1 -1</clus>
<clus scale="   34.452">  1  3  2 -1</clus>
</clustering>
</event>
<event>
 6    0  0.8777103E+002  0.1041915E+03  0.7546771E-02  0.1271721E+00
         21   -1    0    0  505  501  0.00000000000E+00  0.00000000000E+00  0.46792645184E+02  0.46792645184E+02  0.00000000000E+00 0.  1.
         21   -1    0    0  504  502 -0.00000000000E+00 -0.00000000000E+00 -0.12460338351E+04  0.12460338351E+04  0.00000000000E+00 0.  1.
         21    1    1    2  503  501  0.10279917935E+03  0.23982558127E+02 -0.35987516916E+02  0.11152549369E+03  0.00000000000E+00 0.  1.
         21    1    1    2  504  506  0.20670059161E+02 -0.26864256458E+02 -0.32615809248E+03  0.32791468542E+03  0.00000000000E+00 0.  1.
         21    1    1    2  505  502 -0.10516449458E+03  0.45490482373E+02 -0.49069658225E+03  0.50389690487E+03  0.00000000000E+00 0.  1.
         21    1    1    2  506  503 -0.18304743928E+02 -0.42608784042E+02 -0.34639899824E+03  0.34948939627E+03  0.00000000000E+00 0.  1.
<scales pt_clust_3="14000.00000" pt_clust_4="33.89601" pt_clust_5="104.19146" pt_clust_6="53.81010"></scales>
<clustering>
<clus scale="   33.896">  2  4  1 -1</clus>
<clus scale="   53.810">  2  6  1 -1</clus>
<clus scale="  104.191">  2  5  1 -1</clus>
<clus scale="  104.191">  1  3  2 -1</clus>
</clustering>
</event>
<event>
 6    0  0.8777103E+002  0.8544433E+02  0.7546771E-02  0.1314275E+00
         21   -1    0    0  505  501  0.00000000000E+00  0.00000000000E+00  0.23468807694E+03  0.23468807694E+03  0.00000000000E+00 0. -1.
         21   -1    0    0  503  502 -0.00000000000E+00 -0.00000000000E+00 -0.14586802734E+03  0.14586802734E+03  0.00000000000E+00 0. -1.
         21    1    1    2  503  506 -0.20456080701E+02  0.35598820798E+02  0.87735533662E+00  0.41066982263E+02  0.00000000000E+00 0. -1.
         21    1    1    2  504  502  0.25613208070E+02  0.32263228332E+02 -0.79930318659E+02  0.89921121940E+02  0.00000000000E+00 0. -1.
         21    1    1    2  505  504 -0.55087966968E+02 -0.97908190564E+02  0.15229616979E+03  0.18924804151E+03  0.00000000000E+00 0. -1.
         21    1    1    2  506  501  0.49930839598E+02  0.30046141434E+02  0.15576843133E+02  0.60319958555E+02  0.00000000000E+00 0. -1.
<scales pt_clust_3="41.05761" pt_clust_4="57.52401" pt_clust_5="85.44433" pt_clust_6="14000.00000"></scales>
<clustering>
<clus scale="   41.058">  2  3  1 -1</clus>
<clus scale="   57.524">  2  4  1 -1</clus>
<clus scale="   85.444">  1  5  2 -1</clus>
<clus scale="   85.444">  1  3  2 -1</clus>
</clustering>
</event>
<event>
 6    0  0.8777103E+002  0.1045297E+03  0.7546771E-02  0.1271049E+00
         21   -1    0    0  505  501  0.00000000000E+00  0.00000000000E+00  0.79768779301E+02  0.79768779301E+02  0.00000000000E+00 0.  1.
         21   -1    0    0  504  502 -0.00000000000E+00 -0.00000000000E+00 -0.27638638123E+04  0.27638638123E+04  0.00000000000E+00 0.  1.
         21    1    1    2  503  506  0.69961649778E+02  0.18002528344E+02 -0.34853282968E+02  0.80208944639E+02  0.00000000000E+00 0.  1.
         21    1    1    2  504  501  0.64375838719E+02 -0.61183736057E+02 -0.13869441028E+04  0.13897847468E+04  0.00000000000E+00 0.  1.
         21    1    1    2  505  503  0.18890537847E+02 -0.34196153942E+02  0.42425101592E+02  0.57672511734E+02  0.00000000000E+00 0.  1.
         21    1    1    2  506  502 -0.15322802634E+03  0.77377361655E+02 -0.13047227488E+04  0.13159663884E+04  0.00000000000E+00 0.  1.
<scales pt_clust_3="84.76311" pt_clust_4="104.52974" pt_clust_5="39.06699" pt_clust_6="14000.00000"></scales>
<clustering>
<clus scale="   39.067">  1  5  2 -1</clus>
<clus scale="   84.763">  1  3  2 -1</clus>
<clus scale="  104.530">  2  4  1 -1</clus>
<clus scale="   39.067">  1  3  2 -1</clus>
</clustering>
</event>
<event>
 6    0  0.8777103E+002  0.1744780E+03  0.7546771E-02  0.1173257E+00
         21   -1    0    0  503  501  0.00000000000E+00  0.00000000000E+00  0.59571217787E+02  0.59571217787E+02  0.00000000000E+00 0. -1.
         21   -1    0    0  505  502 -0.00000000000E+00 -0.00000000000E+00 -0.25471986349E+04  0.25471986349E+04  0.00000000000E+00 0. -1.
         21    1    1    2  503  506 -0.12621094909E+03  0.16858173179E+03 -0.52988033987E+03  0.57019486016E+03  0.00000000000E+00 0. -1.
         21    1    1    2  504  501  0.20938442122E+02 -0.10853244494E+03 -0.12067304427E+03  0.16364502307E+03  0.00000000000E+00 0. -1.
         21    1    1    2  505  504 -0.11426856013E+03 -0.57226756345E+02 -0.97481834782E+03  0.98315971069E+03  0.00000000000E+00 0. -1.
         21    1    1    2  506  502  0.21954106710E+03 -0.28225305064E+01 -0.86225568512E+03  0.88977025875E+03  0.00000000000E+00 0. -1.
<scales pt_clust_3="174.47797" pt_clust_4="110.53375" pt_clust_5="131.58652" pt_clust_6="14000.00000"></scales>
<clustering>
<clus scale="  110.534">  1  4  2 -1</clus>
<clus scale="  131.587">  2  5  1 -1</clus>
<clus scale="  174.478">  1  3  2 -1</clus>
<clus scale="  110.534">  1  3  2 -1</clus>
</clustering>
</event>
<event>
 6    0  0.8777103E+002  0.8076341E+02  0.7546771E-02  0.1326899E+00
         21   -1    0    0  506  501  0.00000000000E+00  0.00000000000E+00  0.28806663209E+03  0.28806663209E+03  0.00000000000E+00 0. -1.
         21   -1    0    0  504  502 -0.00000000000E+00 -0.00000000000E+00 -0.87442159067E+02  0.87442159067E+02  0.00000000000E+00 0.  1.
         21    1    1    2  503  501  0.63528409099E+02  0.41787386217E+02  0.12981819266E+03  0.15044868745E+03  0.00000000000E+00 0. -1.
         21    1    1    2  504  503 -0.71444521387E+02 -0.56504502988E+02  0.71964813311E+02  0.11608623023E+03  0.00000000000E+00 0.  1.
         21    1    1    2  505  502  0.23102027714E+02 -0.29210712445E+02 -0.35292077132E+02  0.51307895244E+02  0.00000000000E+00 0.  1.
         21    1    1    2  506  505 -0.15185915426E+02  0.43927829216E+02  0.34133544180E+02  0.57665978230E+02  0.00000000000E+00 0.  1.
<scales pt_clust_3="80.76341" pt_clust_4="14000.00000" pt_clust_5="37.24204" pt_clust_6="37.25215"></scales>
<clustering>
<clus scale="   37.242">  2  5  1 -1</clus>
<clus scale="   37.252">  2  6  1 -1</clus>
<clus scale="   80.763">  1  3  2 -1</clus>
<clus scale="   80.763">  1  3  2 -1</clus>
</clustering>
</event>
<event>
 6    0  0.8777103E+002  0.8021710E+02  0.7546771E-02  0.1328436E+00
         21   -1    0    0  503  501  0.00000000000E+00  0.00000000000E+00  0.81217307860E+03  0.81217307860E+03  0.00000000000E+00 0. -1.
         21   -1    0    0  501  502 -0.00000000000E+00 -0.00000000000E+00 -0.18425060808E+03  0.18425060808E+03  0.00000000000E+00 0. -1.
         21    1    1    2  503  505  0.35724130309E+02  0.36575278751E+02  0.64356474052E+03  0.64559239443E+03  0.00000000000E+00 0. -1.
         21    1    1    2  504  502  0.22520401920E+02 -0.46135695234E+02 -0.89066461105E+02  0.10280323619E+03  0.00000000000E+00 0. -1.
         21    1    1    2  505  506 -0.40073120814E+02 -0.96767627712E+02  0.90986044667E+02  0.13873820349E+03  0.00000000000E+00 0. -1.
         21    1    1    2  506  504 -0.18171411414E+02  0.10632804419E+03 -0.17561853561E+02  0.10928985257E+03  0.00000000000E+00 0. -1.
<scales pt_clust_3="51.12694" pt_clust_4="50.67242" pt_clust_5="14000.00000" pt_clust_6="80.21710"></scales>
<clustering>
<clus scale="   51.127">  1  3  2 -1</clus>
<clus scale="   50.672">  2  4  1 -1</clus>
<clus scale="   80.217">  2  6  1 -1</clus>
<clus scale="   51.127">  1  3  2 -1</clus>
</clustering>
</event>
<event>
 6    0  0.8777103E+002  0.8617736E+02  0.7546771E-02  0.1312382E+00
         21   -1    0    0  505  501  0.00000000000E+00  0.00000000000E+00  0.45180205279E+03  0.45180205279E+03  0.00000000000E+00 0. -1.
         21   -1    0    0  503  502 -0.00000000000E+00 -0.00000000000E+00 -0.21672913941E+03  0.21672913941E+03  0.00000000000E+00 0. -1.
         21    1    1    2  503  504 -0.58584237140E+02  0.28150161786E+02 -0.80545054453E+02  0.10349903500E+03  0.00000000000E+00 0. -1.
         21    1    1    2  504  506  0.80249864632E+02  0.58724389173E+02 -0.88078302352E+02  0.13283968534E+03  0.00000000000E+00 0.  1.
         21    1    1    2  505  502 -0.51640114649E+02 -0.48847935355E+02  0.36006475084E+03  0.36701423273E+03  0.00000000000E+00 0. -1.
         21    1    1    2  506  501  0.29974487156E+02 -0.38026615605E+02  0.43631519347E+02  0.65178239123E+02  0.00000000000E+00 0. -1.
<scales pt_clust_3="63.74355" pt_clust_4="86.17736" pt_clust_5="14000.00000" pt_clust_6="48.41997"></scales>
<clustering>
<clus scale="   48.420">  1  6  2 -1</clus>
<clus scale="   63.744">  2  3  1 -1</clus>
<clus scale="   86.177">  2  4  1 -1</clus>
<clus scale="   48.420">  1  3  2 -1</clus>
</clustering>
</event>
<event>
 6    0  0.8777103E+002  0.9919031E+02  0.7546771E-02  0.1282008E+00
         21   -1    0    0  505  501  0.00000000000E+00  0.00000000000E+00  0.84213102775E+03  0.84213102775E+03  0.00000000000E+00 0.  1.
         21   -1    0    0  503  502 -0.00000000000E+00 -0.00000000000E+00 -0.24360969870E+03  0.24360969870E+03  0.00000000000E+00 0.  1.
         21    1    1    2  503  501 -0.80227085248E+02 -0.49034882834E+01  0.55178219900E+03  0.55760561739E+03  0.00000000000E+00 0.  1.
         21    1    1    2  504  506  0.63941555797E+02  0.31007194633E+02 -0.55065190075E+02  0.89900744351E+02  0.00000000000E+00 0. -1.
         21    1    1    2  505  504  0.12294483143E+01 -0.64372425951E+02  0.26357175462E+03  0.27132156310E+03  0.00000000000E+00 0.  1.
         21    1    1    2  506  502  0.15056081137E+02  0.38268719601E+02 -0.16176743450E+03  0.16691280162E+03  0.00000000000E+00 0.  1.
<scales pt_clust_3="99.19031" pt_clust_4="14000.00000" pt_clust_5="62.53265" pt_clust_6="41.12396"></scales>
<clustering>
<clus scale="   41.124">  2  6  1 -1</clus>
<clus scale="   62.533">  1  5  2 -1</clus>
<clus scale="   99.190">  1  3  2 -1</clus>
<clus scale="   62.533">  1  3  2 -1</clus>
</clustering>
</event>
<event>
 6    0  0.8777103E+002  0.1349975E+03  0.7546771E-02  0.1220223E+00
         21   -1    0    0  505  501  0.00000000000E+00  0.00000000000E+00  0.13767798340E+03  0.13767798340E+03  0.00000000000E+00 0. -1.
         21   -1    0    0  504  502 -0.00000000000E+00 -0.00000000000E+00 -0.19866889751E+03  0.19866889751E+03  0.00000000000E+00 0. -1.
         21    1    1    2  503  501  0.71780052898E+02 -0.39294032203E+02 -0.24586758665E+02  0.85445337277E+02  0.00000000000E+00 0. -1.
         21    1    1    2  504  503  0.29650679785E+02 -0.62892328163E+02  0.20752571273E+01  0.69562306212E+02  0.00000000000E+00 0. -1.
         21    1    1    2  505  506 -0.95499436381E+02  0.62413724391E+02  0.14308268828E+02  0.11497974560E+03  0.00000000000E+00 0. -1.
         21    1    1    2  506  502 -0.59312963017E+01  0.39772635975E+02 -0.52787681397E+02  0.66359491826E+02  0.00000000000E+00 0. -1.
<scales pt_clust_3="47.88613" pt_clust_4="47.88613" pt_clust_5="124.23353" pt_clust_6="40.21247"></scales>
<clustering>
<clus scale="   40.212">  2  6  1 -1</clus>
<clus scale="   47.886">  3  4 -1 -1</clus>
<clus scale="  124.234">  1  5  2 -1</clus>
<clus scale="  124.234">  1  3  2 -1</clus>
</clustering>
</event>
<event>
 6    0  0.8777103E+002  0.1142701E+03  0.7546771E-02  0.1252861E+00
         21   -1    0    0  503  501  0.00000000000E+00  0.00000000000E+00  0.70669832595E+03  0.70669832595E+03  0.00000000000E+00 0. -1.
         21   -1    0    0  505  502 -0.00000000000E+00 -0.00000000000E+00 -0.10813237454E+03  0.10813237454E+03  0.00000000000E+00 0. -1.
         21    1    1    2  503  502 -0.16296301576E+02  0.29572363731E+02  0.34069006278E+03  0.34235918714E+03  0.00000000000E+00 0. -1.
         21    1    1    2  504  501  0.41603547726E+02 -0.14669209635E+02  0.19032761364E+03  0.19537308261E+03  0.00000000000E+00 0. -1.
         21    1    1    2  505  506 -0.97967708041E+02  0.64365298752E+02 -0.41116841901E+02  0.12422221295E+03  0.00000000000E+00 0. -1.
         21    1    1    2  506  504  0.72660461890E+02 -0.79268452848E+02  0.10866511688E+03  0.15287621779E+03  0.00000000000E+00 0. -1.
<scales pt_clust_3="33.76528" pt_clust_4="33.01100" pt_clust_5="114.27009" pt_clust_6="14000.00000"></scales>
<clustering>
<clus scale="   33.765">  1  3  2 -1</clus>
<clus scale="   33.011">  1  4  2 -1</clus>
<clus scale="  114.270">  2  5  1 -1</clus>
<clus scale="   33.765">  1  3  2 -1</clus>
</clustering>
</event>
<event>
 6    0  0.8777103E+002  0.8352766E+02  0.7546771E-02  0.1319328E+00
         21   -1    0    0  504  501  0.00000000000E+00  0.00000000000E+00  0.82419552569E+03  0.82419552569E+03  0.00000000000E+00 0. -1.
         21   -1    0    0  505  502 -0.00000000000E+00 -0.00000000000E+00 -0.46308080024E+02  0.46308080024E+02  0.00000000000E+00 0.  1.
         21    1    1    2  503  502  0.19995081571E+01  0.82719073089E+02  0.21172129150E+02  0.85409028435E+02  0.00000000000E+00 0.  1.
         21    1    1    2  504  506 -0.64354722626E+00  0.36716062446E+02  0.26216775666E+03  0.26472705949E+03  0.00000000000E+00 0. -1.
         21    1    1    2  505  501 -0.45727595178E+02 -0.86938103772E+02  0.39064715025E+03  0.40280819610E+03  0.00000000000E+00 0. -1.
         21    1    1    2  506  503  0.44371634247E+02 -0.32497031763E+02  0.10390040961E+03  0.11755932169E+03  0.00000000000E+00 0.  1.
<scales pt_clust_3="14000.00000" pt_clust_4="36.72170" pt_clust_5="83.52766" pt_clust_6="50.94095"></scales>
<clustering>
<clus scale="   36.722">  1  4  2 -1</clus>
<clus scale="   50.941">  1  6  2 -1</clus>
<clus scale="   83.528">  1  5  2 -1</clus>
<clus scale="   36.722">  1  3  2 -1</clus>
</clustering>
</event>
<event>
 6    0  0.8777103E+002  0.1446571E+03  0.7546771E-02  0.1207196E+00
         21   -1    0    0  504  501  0.00000000000E+00  0.00000000000E+00  0.97797781052E+03  0.97797781052E+03  0.00000000000E+00 0.  1.
         21   -1    0    0  506  502 -0.00000000000E+00 -0.00000000000E+00 -0.55635844259E+02  0.55635844259E+02  0.00000000000E+00 0.  1.
         21    1    1    2  503  502 -0.12441471529E+03 -0.86930142849E+02  0.13873155438E+03  0.20562664054E+03  0.00000000000E+00 0.  1.
         21    1    1    2  504  505  0.29164590065E+02  0.35559072607E+02  0.37453542266E+03  0.37734838517E+03  0.00000000000E+00 0.  1.
         21    1    1    2  505  503  0.13316464364E+03  0.38300223388E+02  0.24241916442E+03  0.27922532246E+03  0.00000000000E+00 0.  1.
         21    1    1    2  506  501 -0.37914518417E+02  0.13070846854E+02  0.16665582480E+03  0.17141330661E+03  0.00000000000E+00 0.  1.
<scales pt_clust_3="144.65713" pt_clust_4="43.20446" pt_clust_5="14000.00000" pt_clust_6="40.10434"></scales>
<clustering>
<clus scale="   40.104">  1  6  2 -1</clus>
<clus scale="   43.204">  1  4  2 -1</clus>
<clus scale="  144.657">  2  3  1 -1</clus>
<clus scale="   40.104">  1  3  2 -1</clus>
</clustering>
</event>
<event>
 6    0  0.8777103E+002  0.2287142E+03  0.7546771E-02  0.1127548E+00
         21   -1    0    0  506  501  0.00000000000E+00  0.00000000000E+00  0.28136912012E+03  0.28136912012E+03  0.00000000000E+00 0. -1.
         21   -1    0    0  505  502 -0.00000000000E+00 -0.00000000000E+00 -0.25121072768E+04  0.25121072768E+04  0.00000000000E+00 0.  1.
         21    1    1    2  503  502 -0.15208155288E+03  0.26573352992E+02 -0.15963431591E+04  0.16037912655E+04  0.00000000000E+00 0.  1.
         21    1    1    2  504  503 -0.28975042354E+02  0.67701675595E+02 -0.82122096717E+03  0.82451618957E+03  0.00000000000E+00 0.  1.
         21    1    1    2  505  501 -0.30959625277E+02  0.80494894751E+01 -0.30920729907E+02  0.44490271027E+02  0.00000000000E+00 0.  1.
         21    1    1    2  506  504  0.21201622052E+03 -0.10232451806E+03  0.21774669948E+03  0.32067867078E+03  0.00000000000E+00 0. -1.
<scales pt_clust_3="70.36175" pt_clust_4="70.36175" pt_clust_5="31.98895" pt_clust_6="204.74050"></scales>
<clustering>
<clus scale="   31.989">  1  5  2 -1</clus>
<clus scale="   70.362">  3  4 -1 -1</clus>
<clus scale="  204.740">  1  6  2 -1</clus>
<clus scale="   31.989">  1  3  2 -1</clus>
</clustering>
</event>
<event>
 6    0  0.8777103E+002  0.1002210E+03  0.7546771E-02  0.1279832E+00
         21   -1    0    0  505  501  0.00000000000E+00  0.00000000000E+00  0.67608421195E+02  0.67608421195E+02  0.00000000000E+00 0.  1.
         21   -1    0    0  504  502 -0.00000000000E+00 -0.00000000000E+00 -0.22256140830E+04  0.22256140830E+04  0.00000000000E+00 0.  1.
         21    1    1    2  503  501 -0.42061398613E+02  0.35395061276E+02 -0.21251512615E+03  0.21951002360E+03  0.00000000000E+00 0.  1.
         21    1    1    2  504  503  0.10075496064E+03  0.56374638804E+01 -0.19421543825E+04  0.19447742770E+04  0.00000000000E+00 0.  1.
         21    1    1    2  505  506  0.23894852681E+02 -0.18175846054E+02  0.24592740401E+02  0.38808868121E+02  0.00000000000E+00 0.  1.
         21    1    1    2  506  502 -0.82588414707E+02 -0.22856679102E+02 -0.27928893622E+02  0.90129335526E+02  0.00000000000E+00 0.  1.
<scales pt_clust_3="52.05202" pt_clust_4="14000.00000" pt_clust_5="30.02208" pt_clust_6="100.22103"></scales>
<clustering>
<clus scale="   30.022">  1  5  2 -1</clus>
<clus scale="   52.052">  1  3  2 -1</clus>
<clus scale="  100.221">  1  6  2 -1</clus>
<clus scale="   30.022">  1  3  2 -1</clus>
</clustering>
</event>
<event>
 6    0  0.8777103E+002  0.7173141E+02  0.7546771E-02  0.1354302E+00
         21   -1    0    0  504  501  0.00000000000E+00  0.00000000000E+00  0.14558212804E+04  0.14558212804E+04  0.00000000000E+00 0. -1.
         21   -1    0    0  503  502 -0.00000000000E+00 -0.00000000000E+00 -0.71561360520E+03  0.71561360520E+03  0.00000000000E+00 0.  1.
         21    1    1    2  503  501 -0.65601354586E+02 -0.36422150532E+02  0.13420415639E+03  0.15375586612E+03  0.00000000000E+00 0. -1.
         21    1    1    2  504  505  0.27158421317E+02 -0.24575854722E+02  0.13011443530E+04  0.13016597789E+04  0.00000000000E+00 0. -1.
         21    1    1    2  505  506  0.96872934952E+02  0.20591354598E+02 -0.35608701503E+03  0.36960293787E+03  0.00000000000E+00 0.  1.
         21    1    1    2  506  502 -0.58430001683E+02  0.40406650656E+02 -0.33905381919E+03  0.34641630276E+03  0.00000000000E+00 0.  1.
<scales pt_clust_3="71.73141" pt_clust_4="36.62721" pt_clust_5="14000.00000" pt_clust_6="70.17492"></scales>
<clustering>
<clus scale="   36.627">  1  4  2 -1</clus>
<clus scale="   70.175">  2  6  1 -1</clus>
<clus scale="   71.731">  1  3  2 -1</clus>
<clus scale="   36.627">  1  3  2 -1</clus>
</clustering>
</event>
<event>
 6    0  0.8777103E+002  0.7315995E+02  0.7546771E-02  0.1349666E+00
         21   -1    0    0  505  501  0.00000000000E+00  0.00000000000E+00  0.10659440307E+04  0.10659440307E+04  0.00000000000E+00 0.  1.
         21   -1    0    0  506  502 -0.00000000000E+00 -0.00000000000E+00 -0.80058132676E+02  0.80058132676E+02  0.00000000000E+00 0.  1.
         21    1    1    2  503  502 -0.39244802636E+02  0.12745749791E+02  0.67966583820E+02  0.79511415456E+02  0.00000000000E+00 0.  1.
         21    1    1    2  504  501  0.47927313631E+02 -0.31268824382E+01  0.47019673734E+03  0.47264339262E+03  0.00000000000E+00 0.  1.
         21    1    1    2  505  503 -0.71269598555E+02 -0.63283347528E+02  0.49139336969E+03  0.50055127762E+03  0.00000000000E+00 0.  1.
         21    1    1    2  506  504  0.62587087560E+02  0.53664480175E+02 -0.43670792833E+02  0.93296077668E+02  0.00000000000E+00 0.  1.
<scales pt_clust_3="41.26268" pt_clust_4="47.37093" pt_clust_5="73.15995" pt_clust_6="14000.00000"></scales>
<clustering>
<clus scale="   41.263">  2  3  1 -1</clus>
<clus scale="   47.371">  1  4  2 -1</clus>
<clus scale="   73.160">  1  5  2 -1</clus>
<clus scale="   47.371">  1  3  2 -1</clus>
</clustering>
</event>
<event>
 6    0  0.8777103E+002  0.1114396E+03  0.7546771E-02  0.1257927E+00
         21   -1    0    0  506  501  0.00000000000E+00  0.00000000000E+00  0.14750464093E+04  0.14750464093E+04  0.00000000000E+00 0.  1.
         21   -1    0    0  505  502 -0.00000000000E+00 -0.00000000000E+00 -0.10249408228E+03  0.10249408228E+03  0.00000000000E+00 0. -1.
         21    1    1    2  503  502 -0.19474570814E+02  0.64842240870E+02  0.67623762605E+02  0.95690900185E+02  0.00000000000E+00 0.  1.
         21    1    1    2  504  501 -0.67771939284E+02 -0.10694284932E+03  0.37083576761E+03  0.39185325737E+03  0.00000000000E+00 0.  1.
         21    1    1    2  505  504  0.11213654102E+03  0.19804612808E+02 -0.35923960886E+02  0.11940417701E+03  0.00000000000E+00 0. -1.
         21    1    1    2  506  503 -0.24890030926E+02  0.22295995640E+02  0.97001675772E+03  0.97059215705E+03  0.00000000000E+00 0.  1.
<scales pt_clust_3="72.37138" pt_clust_4="14000.00000" pt_clust_5="111.43961" pt_clust_6="33.41594"></scales>
<clustering>
<clus scale="   33.416">  1  6  2 -1</clus>
<clus scale="   72.371">  1  3  2 -1</clus>
<clus scale="  111.440">  2  5  1 -1</clus>
<clus scale="   33.416">  1  3  2 -1</clus>
</clustering>
</event>
<event>
 6    0  0.8777103E+002  0.1116658E+03  0.7546771E-02  0.1257516E+00
         21   -1    0    0  506  501  0.00000000000E+00  0.00000000000E+00  0.62050820361E+03  0.62050820361E+03  0.00000000000E+00 0.  1.
         21   -1    0    0  503  502 -0.00000000000E+00 -0.00000000000E+00 -0.42199426937E+03  0.42199426937E+03  0.00000000000E+00 0.  1.
         21    1    1    2  503  501  0.64318411561E+02 -0.29079437424E+02  0.12478501916E+03  0.14336587025E+03  0.00000000000E+00 0.  1.
         21    1    1    2  504  502  0.17222837642E+02  0.29237912228E+02 -0.32387922960E+03  0.32565201829E+03  0.00000000000E+00 0.  1.
         21    1    1    2  505  504 -0.58867644380E+02  0.82056024745E+02 -0.53570000071E+02  0.11431682142E+03  0.00000000000E+00 0.  1.
         21    1    1    2  506  505 -0.22673604823E+02 -0.82214499549E+02  0.45117814475E+03  0.45916776302E+03  0.00000000000E+00 0.  1.
<scales pt_clust_3="71.00844" pt_clust_4="33.93349" pt_clust_5="111.66580" pt_clust_6="14000.00000"></scales>
<clustering>
<clus scale="   33.933">  2  4  1 -1</clus>
<clus scale="   71.008">  1  3  2 -1</clus>
<clus scale="  111.666">  2  5  1 -1</clus>
<clus scale="   71.008">  1  3  2 -1</clus>
</clustering>
</event>
<event>
 6    0  0.8777103E+002  0.1993893E+03  0.7546771E-02  0.1150255E+00
         21   -1    0    0  505  501  0.00000000000E+00  0.00000000000E+00  0.38563740067E+03  0.38563740067E+03  0.00000000000E+00 0.  1.
         21   -1    0    0  506  502 -0.00000000000E+00 -0.00000000000E+00 -0.15964450527E+03  0.15964450527E+03  0.00000000000E+00 0.  1.
         21    1    1    2  503  501 -0.13308552818E+03  0.49974467787E+02  0.34352144118E+02  0.14625072666E+03  0.00000000000E+00 0.  1.
         21    1    1    2  504  502  0.18444867911E+03 -0.92473786616E+02  0.52990059012E+02  0.21302737568E+03  0.00000000000E+00 0.  1.
         21    1    1    2  505  504 -0.33013317760E+02  0.35859048201E+01  0.13906911340E+03  0.14297886615E+03  0.00000000000E+00 0.  1.
         21    1    1    2  506  503 -0.18349833164E+02  0.38913414008E+02 -0.41842113768E+00  0.43024937457E+02  0.00000000000E+00 0.  1.
<scales pt_clust_3="33.34153" pt_clust_4="189.51532" pt_clust_5="33.20750" pt_clust_6="33.34153"></scales>
<clustering>
<clus scale="   33.207">  1  5  2 -1</clus>
<clus scale="   33.342">  3  6 -1 -1</clus>
<clus scale="  189.515">  1  4  2 -1</clus>
<clus scale="   33.207">  1  3  2 -1</clus>
</clustering>
</event>
<event>
 6    0  0.8777103E+002  0.8904892E+02  0.7546771E-02  0.1305171E+00
         21   -1    0    0  505  501  0.00000000000E+00  0.00000000000E+00  0.19133651211E+03  0.19133651211E+03  0.00000000000E+00 0. -1.
         21   -1    0    0  503  502 -0.00000000000E+00 -0.00000000000E+00 -0.11336662946E+04  0.11336662946E+04  0.00000000000E+00 0.  1.
         21    1    1    2  503  506 -0.39701229037E+02  0.20883438044E+02 -0.14980990032E+03  0.15638194207E+03  0.00000000000E+00 0. -1.
         21    1    1    2  504  502 -0.47734361909E+02  0.99210500889E+01 -0.85552107670E+03  0.85690916043E+03  0.00000000000E+00 0.  1.
         21    1    1    2  505  504  0.10996987710E+03  0.11240271374E+02 -0.95565578366E+02  0.14612493743E+03  0.00000000000E+00 0. -1.
         21    1    1    2  506  501 -0.22534286157E+02 -0.42044759506E+02  0.15856677292E+03  0.16558676677E+03  0.00000000000E+00 0. -1.
<scales pt_clust_3="44.85873" pt_clust_4="14000.00000" pt_clust_5="89.04892" pt_clust_6="47.70430"></scales>
<clustering>
<clus scale="   44.859">  2  3  1 -1</clus>
<clus scale="   47.704">  1  6  2 -1</clus>
<clus scale="   89.049">  1  5  2 -1</clus>
<clus scale="   47.704">  1  3  2 -1</clus>
</clustering>
</event>
<event>
 6    0  0.8777103E+002  0.1263644E+03  0.7546771E-02  0.1232952E+00
         21   -1    0    0  505  501  0.00000000000E+00  0.00000000000E+00  0.88510529783E+03  0.88510529783E+03  0.00000000000E+00 0.  1.
         21   -1    0    0  504  502 -0.00000000000E+00 -0.00000000000E+00 -0.23594760516E+03  0.23594760516E+03  0.00000000000E+00 0.  1.
         21    1    1    2  503  501  0.37172199068E+02  0.13152544444E+03  0.59400233664E+02  0.14902718771E+03  0.00000000000E+00 0.  1.
         21    1    1    2  504  506 -0.31088222566E+02  0.68881396372E+01 -0.15171296791E+03  0.15501854303E+03  0.00000000000E+00 0.  1.
         21    1    1    2  505  502  0.33246735465E+02 -0.12277565223E+03  0.76016749903E+03  0.77073590339E+03  0.00000000000E+00 0.  1.
         21    1    1    2  506  503 -0.39330711967E+02 -0.15637931845E+02 -0.18697072118E+02  0.46271268861E+02  0.00000000000E+00 0.  1.
<scales pt_clust_3="14000.00000" pt_clust_4="31.84217" pt_clust_5="126.36439" pt_clust_6="53.15567"></scales>
<clustering>
<clus scale="   31.842">  2  4  1 -1</clus>
<clus scale="   53.156">  2  6  1 -1</clus>
<clus scale="  126.364">  1  5  2 -1</clus>
<clus scale="  126.364">  1  3  2 -1</clus>
</clustering>
</event>
<event>
 6    0  0.8777103E+002  0.7632449E+02  0.7546771E-02  0.1339818E+00
         21   -1    0    0  505  501  0.00000000000E+00  0.00000000000E+00  0.35333429528E+03  0.35333429528E+03  0.00000000000E+00 0. -1.
         21   -1    0    0  506  502 -0.00000000000E+00 -0.00000000000E+00 -0.12709673319E+03  0.12709673319E+03  0.00000000000E+00 0.  1.
         21    1    1    2  503  501 -0.15409461418E+02 -0.38198406769E+02  0.37873245316E+02  0.55954914812E+02  0.00000000000E+00 0. -1.
         21    1    1    2  504  502  0.11633650555E+03  0.42808051178E+02 -0.48680130328E+02  0.13317832728E+03  0.00000000000E+00 0.  1.
         21    1    1    2  505  504 -0.56003553600E+02  0.15801359403E+02  0.23480072362E+03  0.24190382549E+03  0.00000000000E+00 0. -1.
         21    1    1    2  506  503 -0.44923490528E+02 -0.20411003812E+02  0.22437234821E+01  0.49393960895E+02  0.00000000000E+00 0.  1.
<scales pt_clust_3="41.18944" pt_clust_4="76.32449" pt_clust_5="14000.00000" pt_clust_6="51.91166"></scales>
<clustering>
<clus scale="   41.189">  1  3  2 -1</clus>
<clus scale="   51.912">  2  6  1 -1</clus>
<clus scale="   76.324">  2  4  1 -1</clus>
<clus scale="   41.189">  1  3  2 -1</clus>
</clustering>
</event>
<event>
 6    0  0.8777103E+002  0.2908485E+03  0.7546771E-02  0.1089907E+00
         21   -1    0    0  505  501  0.00000000000E+00  0.00000000000E+00  0.92782350549E+03  0.92782350549E+03  0.00000000000E+00 0. -1.
         21   -1    0    0  503  502 -0.00000000000E+00 -0.00000000000E+00 -0.14285098163E+03  0.14285098163E+03  0.00000000000E+00 0. -1.
         21    1    1    2  503  504 -0.21518370513E+03 -0.18579813724E+03  0.15672836345E+03  0.32463634218E+03  0.00000000000E+00 0. -1.
         21    1    1    2  504  501  0.92412252622E+01 -0.34820752768E+02  0.63513989090E+02  0.73019941645E+02  0.00000000000E+00 0. -1.
         21    1    1    2  505  506  0.18173382337E+03  0.24807016471E+03  0.55602329069E+03  0.63539585218E+03  0.00000000000E+00 0. -1.
         21    1    1    2  506  502  0.24208656506E+02 -0.27451274705E+02  0.87068806235E+01  0.37622351109E+02  0.00000000000E+00 0. -1.
<scales pt_clust_3="14000.00000" pt_clust_4="36.02617" pt_clust_5="290.84849" pt_clust_6="37.47203"></scales>
<clustering>
<clus scale="   36.026">  1  4  2 -1</clus>
<clus scale="   37.472">  2  6  1 -1</clus>
<clus scale="  290.848">  1  5  2 -1</clus>
<clus scale="   36.026">  1  3  2 -1</clus>
</clustering>
</event>
<event>
 6    0  0.8777103E+002  0.6991920E+02  0.7546771E-02  0.1360368E+00
         21   -1    0    0  504  501  0.00000000000E+00  0.00000000000E+00  0.25037627350E+02  0.25037627350E+02  0.00000000000E+00 0.  1.
         21   -1    0    0  503  502 -0.00000000000E+00 -0.00000000000E+00 -0.17295302635E+04  0.17295302635E+04  0.00000000000E+00 0.  1.
         21    1    1    2  503  506  0.26823206088E+02  0.19478686619E+02 -0.36786574397E+03  0.36935634448E+03  0.00000000000E+00 0. -1.
         21    1    1    2  504  505 -0.34998924576E+02 -0.78279363543E+02 -0.52644359854E+03  0.53338114507E+03  0.00000000000E+00 0.  1.
         21    1    1    2  505  502 -0.61247828159E+02  0.41305502580E+02 -0.76190794878E+03  0.76548100134E+03  0.00000000000E+00 0.  1.
         21    1    1    2  506  501  0.69423546647E+02  0.17495174343E+02 -0.48275344890E+02  0.86349399990E+02  0.00000000000E+00 0.  1.
<scales pt_clust_3="33.14972" pt_clust_4="69.91920" pt_clust_5="69.73278" pt_clust_6="14000.00000"></scales>
<clustering>
<clus scale="   33.150">  2  3  1 -1</clus>
<clus scale="   69.733">  2  5  1 -1</clus>
<clus scale="   69.919">  2  4  1 -1</clus>
<clus scale="   69.919">  1  3  2 -1</clus>
</clustering>
</event>
<event>
 6    0  0.8777103E+002  0.1574114E+03  0.7546771E-02  0.1191651E+00
         21   -1    0    0  503  501  0.00000000000E+00  0.00000000000E+00  0.18479158801E+03  0.18479158801E+03  0.00000000000E+00 0. -1.
         21   -1    0    0  504  502 -0.00000000000E+00 -0.00000000000E+00 -0.11297922407E+04  0.11297922407E+04  0.00000000000E+00 0. -1.
         21    1    1    2  503  505 -0.30486511767E+02 -0.37407088088E+02  0.19734999575E+02  0.52136243125E+02  0.00000000000E+00 0. -1.
         21    1    1    2  504  501 -0.27523750087E+02 -0.14733945282E+02 -0.28582809023E+03  0.28752798668E+03  0.00000000000E+00 0. -1.
         21    1    1    2  505  506  0.59807089663E+02 -0.11864903310E+03  0.10704300400E+03  0.17062439959E+03  0.00000000000E+00 0. -1.
         21    1    1    2  506  502 -0.17968278089E+01  0.17079006647E+03 -0.78595056599E+03  0.80429519928E+03  0.00000000000E+00 0. -1.
<scales pt_clust_3="48.81092" pt_clust_4="31.21932" pt_clust_5="14000.00000" pt_clust_6="157.41140"></scales>
<clustering>
<clus scale="   31.219">  2  4  1 -1</clus>
<clus scale="   48.811">  1  3  2 -1</clus>
<clus scale="  157.411">  2  6  1 -1</clus>
<clus scale="   48.811">  1  3  2 -1</clus>
</clustering>
</event>
<event>
 6    0  0.8777103E+002  0.1236289E+03  0.7546771E-02  0.1237228E+00
         21   -1    0    0  504  501  0.00000000000E+00  0.00000000000E+00  0.57500341336E+02  0.57500341336E+02  0.00000000000E+00 0. -1.
         21   -1    0    0  503  502 -0.00000000000E+00 -0.00000000000E+00 -0.83508269062E+03  0.83508269062E+03  0.00000000000E+00 0.  1.
         21    1    1    2  503  505 -0.17097371010E+02  0.32966123579E+02 -0.58412609501E+02  0.69217904822E+02  0.00000000000E+00 0. -1.
         21    1    1    2  504  506 -0.51062755718E+02 -0.13553489807E+03 -0.31886660507E+03  0.35021853955E+03  0.00000000000E+00 0.  1.
         21    1    1    2  505  501 -0.38218155779E+02  0.66799734820E+02 -0.24229934376E+02  0.80684085934E+02  0.00000000000E+00 0. -1.
         21    1    1    2  506  502  0.10637828251E+03  0.35769039668E+02 -0.37607320034E+03  0.39246250165E+03  0.00000000000E+00 0.  1.
<scales pt_clust_3="35.60903" pt_clust_4="112.50034" pt_clust_5="35.60903" pt_clust_6="112.23085"></scales>
<clustering>
<clus scale="   35.609">  3  5 -1 -1</clus>
<clus scale="  112.231">  2  6  1 -1</clus>
<clus scale="  112.500">  2  4  1 -1</clus>
<clus scale="  123.629">  1  3  2 -1</clus>
</clustering>
</event>
<event>
 6    0  0.8777103E+002  0.6695133E+02  0.7546771E-02  0.1370778E+00
         21   -1    0    0  504  501  0.00000000000E+00  0.00000000000E+00  0.11520008206E+03  0.11520008206E+03  0.00000000000E+00 0. -1.
         21   -1    0    0  503  502 -0.00000000000E+00 -0.00000000000E+00 -0.43154921129E+03  0.43154921129E+03  0.00000000000E+00 0. -1.
         21    1    1    2  503  505 -0.71746205551E+02  0.51254083936E+02 -0.46566606299E+02  0.99714331734E+02  0.00000000000E+00 0. -1.
         21    1    1    2  504  506 -0.26917811390E+02 -0.68896889148E+02 -0.30932129225E+02  0.80175722776E+02  0.00000000000E+00 0. -1.
         21    1    1    2  505  501  0.32919318593E+02  0.13761546214E+01  0.55649580528E+02  0.64671872952E+02  0.00000000000E+00 0. -1.
         21    1    1    2  506  502  0.65744698348E+02  0.16266650591E+02 -0.29449997423E+03  0.30218736589E+03  0.00000000000E+00 0. -1.
<scales pt_clust_3="14000.00000" pt_clust_4="69.36110" pt_clust_5="32.94807" pt_clust_6="66.95133"></scales>
<clustering>
<clus scale="   32.948">  1  5  2 -1</clus>
<clus scale="   69.361">  1  4  2 -1</clus>
<clus scale="   66.951">  2  6  1 -1</clus>
<clus scale="   32.948">  1  3  2 -1</clus>
</clustering>
</event>
<event>
 6    0  0.1652697E+003  0.8014203E+02  0.7546771E-02  0.1328649E+00
         21   -1    0    0  504  501  0.00000000000E+00  0.00000000000E+00  0.18772057039E+03  0.18772057039E+03  0.00000000000E+00 0. -1.
         21   -1    0    0  503  502 -0.00000000000E+00 -0.00000000000E+00 -0.19206348477E+04  0.19206348477E+04  0.00000000000E+00 0.  1.
         21    1    1    2  503  506  0.68118912097E+02 -0.42075100608E+02 -0.18682477490E+04  0.18699626070E+04  0.00000000000E+00 0.  1.
         21    1    1    2  504  505  0.24343402630E+02 -0.29210981732E+02  0.36932334246E+02  0.53008301408E+02  0.00000000000E+00 0. -1.
         21    1    1    2  505  502 -0.58012430631E+02  0.80338868280E+02  0.10987708959E+03  0.14796199066E+03  0.00000000000E+00 0. -1.
         21    1    1    2  506  501 -0.34449884096E+02 -0.90527859407E+01 -0.11475952196E+02  0.37422518974E+02  0.00000000000E+00 0. -1.
<scales pt_clust_3="80.14203" pt_clust_4="35.13373" pt_clust_5="14000.00000" pt_clust_6="35.61948"></scales>
<clustering>
<clus scale="   35.619">  1  6  2 -1</clus>
<clus scale="   35.134">  1  4  2 -1</clus>
<clus scale="   80.142">  2  3  1 -1</clus>
<clus scale="   35.619">  1  3  2 -1</clus>
</clustering>
</event>
<event>
 6    0  0.8777103E+002  0.1259199E+03  0.7546771E-02  0.1233639E+00
         21   -1    0    0  504  501  0.00000000000E+00  0.00000000000E+00  0.88358612756E+02  0.88358612756E+02  0.00000000000E+00 0.  1.
         21   -1    0    0  501  502 -0.00000000000E+00 -0.00000000000E+00 -0.14771489132E+04  0.14771489132E+04  0.00000000000E+00 0.  1.
         21    1    1    2  503  502  0.62154935996E+02 -0.10172551976E+03 -0.49618392821E+03  0.51030364299E+03  0.00000000000E+00 0.  1.
         21    1    1    2  504  506  0.74570574026E+02 -0.15438303276E+02  0.43089884307E+02  0.87497713389E+02  0.00000000000E+00 0.  1.
         21    1    1    2  505  503 -0.15633365988E+03  0.35026183112E+02 -0.67125349828E+03  0.69010745950E+03  0.00000000000E+00 0.  1.
         21    1    1    2  506  505  0.19608149855E+02  0.82137639927E+02 -0.26444275826E+03  0.27759871006E+03  0.00000000000E+00 0.  1.
<scales pt_clust_3="125.91991" pt_clust_4="76.15190" pt_clust_5="14000.00000" pt_clust_6="87.82640"></scales>
<clustering>
<clus scale="   76.152">  1  4  2 -1</clus>
<clus scale="   87.826">  1  6  2 -1</clus>
<clus scale="  125.920">  2  3  1 -1</clus>
<clus scale="   76.152">  1  3  2 -1</clus>
</clustering>
</event>
<event>
 6    0  0.8777103E+002  0.1220628E+03  0.7546771E-02  0.1239732E+00
         21   -1    0    0  506  501  0.00000000000E+00  0.00000000000E+00  0.11303790151E+03  0.11303790151E+03  0.00000000000E+00 0.  1.
         21   -1    0    0  505  502 -0.00000000000E+00 -0.00000000000E+00 -0.95096512832E+03  0.95096512832E+03  0.00000000000E+00 0.  1.
         21    1    1    2  503  504  0.35392033800E+02 -0.11567433332E+03 -0.69126638568E+02  0.13932566026E+03  0.00000000000E+00 0.  1.
         21    1    1    2  504  502 -0.99291130603E+02 -0.52659488893E+02 -0.14967054512E+03  0.18717110478E+03  0.00000000000E+00 0.  1.
         21    1    1    2  505  501  0.56216766936E+02  0.11885271776E+03 -0.65993952467E+03  0.67290896087E+03  0.00000000000E+00 0.  1.
         21    1    1    2  506  503  0.76823298680E+01  0.49481104456E+02  0.40809481544E+02  0.64597303924E+02  0.00000000000E+00 0. -1.
<scales pt_clust_3="95.59590" pt_clust_4="122.06282" pt_clust_5="14000.00000" pt_clust_6="50.07392"></scales>
<clustering>
<clus scale="   50.074">  1  6  2 -1</clus>
<clus scale="   95.596">  1  3  2 -1</clus>
<clus scale="  122.063">  1  4  2 -1</clus>
<clus scale="   50.074">  1  3  2 -1</clus>
</clustering>
</event>
<event>
 6    0  0.8777103E+002  0.1096031E+03  0.7546771E-02  0.1261307E+00
         21   -1    0    0  504  501  0.00000000000E+00  0.00000000000E+00  0.16732076695E+03  0.16732076695E+03  0.00000000000E+00 0. -1.
         21   -1    0    0  503  502 -0.00000000000E+00 -0.00000000000E+00 -0.75485803368E+03  0.75485803368E+03  0.00000000000E+00 0.  1.
         21    1    1    2  503  506 -0.57256767024E+02  0.59990081418E+02 -0.10302214168E+03  0.13225244389E+03  0.00000000000E+00 0.  1.
         21    1    1    2  504  505  0.83555998956E+02 -0.44046290288E+02  0.12585653777E+03  0.15735802728E+03  0.00000000000E+00 0. -1.
         21    1    1    2  505  502 -0.54416833408E+02  0.11947344252E+01 -0.59270571833E+03  0.59519970404E+03  0.00000000000E+00 0.  1.
         21    1    1    2  506  501  0.28117601476E+02 -0.17138525554E+02 -0.17665944492E+02  0.37368625419E+02  0.00000000000E+00 0.  1.
<scales pt_clust_3="109.60310" pt_clust_4="14000.00000" pt_clust_5="54.20452" pt_clust_6="32.92914"></scales>
<clustering>
<clus scale="   32.929">  1  6  2 -1</clus>
<clus scale="   54.205">  2  5  1 -1</clus>
<clus scale="  109.603">  2  3  1 -1</clus>
<clus scale="   32.929">  1  3  2 -1</clus>
</clustering>
</event>
<event>
 6    0  0.8777103E+002  0.1188023E+03  0.7546771E-02  0.1245086E+00
         21   -1    0    0  503  501  0.00000000000E+00  0.00000000000E+00  0.30777575441E+03  0.30777575441E+03  0.00000000000E+00 0. -1.
         21   -1    0    0  504  502 -0.00000000000E+00 -0.00000000000E+00 -0.26385059980E+03  0.26385059980E+03  0.00000000000E+00 0. -1.
         21    1    1    2  503  505 -0.51531688635E+02 -0.74599967533E+02  0.51893934267E+02  0.10446841869E+03  0.00000000000E+00 0. -1.
         21    1    1    2  504  501  0.13710715263E+03 -0.47754673113E+01  0.15804706415E+03  0.20928461692E+03  0.00000000000E+00 0. -1.
         21    1    1    2  505  506 -0.12619311423E+03  0.35272323531E+02 -0.81704046326E+02  0.15441628823E+03  0.00000000000E+00 0. -1.
         21    1    1    2  506  502  0.40617650232E+02  0.44103111314E+02 -0.84311797481E+02  0.10345703037E+03  0.00000000000E+00 0. -1.
<scales pt_clust_3="81.49550" pt_clust_4="118.80233" pt_clust_5="14000.00000" pt_clust_6="59.95730"></scales>
<clustering>
<clus scale="   59.957">  2  6  1 -1</clus>
<clus scale="   81.495">  1  3  2 -1</clus>
<clus scale="  118.802">  1  4  2 -1</clus>
<clus scale="   81.495">  1  3  2 -1</clus>
</clustering>
</event>
<event>
 6    0  0.8777103E+002  0.9388008E+02  0.7546771E-02  0.1293719E+00
         21   -1    0    0  506  501  0.00000000000E+00  0.00000000000E+00  0.34909812878E+03  0.34909812878E+03  0.00000000000E+00 0. -1.
         21   -1    0    0  505  502 -0.00000000000E+00 -0.00000000000E+00 -0.97477057385E+02  0.97477057385E+02  0.00000000000E+00 0. -1.
         21    1    1    2  503  501 -0.24676340369E+02  0.25378404454E+02  0.13631704776E+03  0.14083793060E+03  0.00000000000E+00 0. -1.
         21    1    1    2  504  502  0.18704152209E+02  0.34990805204E+02 -0.37948335700E+02  0.54902440211E+02  0.00000000000E+00 0. -1.
         21    1    1    2  505  503  0.39661171241E+02 -0.12164423812E+03  0.10901557726E+03  0.16809141935E+03  0.00000000000E+00 0. -1.
         21    1    1    2  506  504 -0.33688983081E+02  0.61275028466E+02  0.44236782087E+02  0.82743396014E+02  0.00000000000E+00 0. -1.
<scales pt_clust_3="35.39753" pt_clust_4="40.13201" pt_clust_5="93.88008" pt_clust_6="14000.00000"></scales>
<clustering>
<clus scale="   35.398">  1  3  2 -1</clus>
<clus scale="   40.132">  2  4  1 -1</clus>
<clus scale="   93.880">  1  5  2 -1</clus>
<clus scale="   35.398">  1  3  2 -1</clus>
</clustering>
</event>
<event>
 6    0  0.8777103E+002  0.8094582E+02  0.7546771E-02  0.1326389E+00
         21   -1    0    0  504  501  0.00000000000E+00  0.00000000000E+00  0.30065206569E+02  0.30065206569E+02  0.00000000000E+00 0. -1.
         21   -1    0    0  506  502 -0.00000000000E+00 -0.00000000000E+00 -0.12549759351E+04  0.12549759351E+04  0.00000000000E+00 0. -1.
         21    1    1    2  503  501 -0.38712873491E+02  0.71178529116E+01 -0.77357360464E+00  0.39369389380E+02  0.00000000000E+00 0. -1.
         21    1    1    2  504  502  0.18169122532E+02 -0.10464735384E+03 -0.47320205881E+03  0.48497564284E+03  0.00000000000E+00 0. -1.
         21    1    1    2  505  503  0.40653145650E+02  0.30407507667E+02 -0.27780671494E+03  0.28240726910E+03  0.00000000000E+00 0.  1.
         21    1    1    2  506  505 -0.20109394691E+02  0.67121993267E+02 -0.47312838113E+03  0.47828884031E+03  0.00000000000E+00 0. -1.
<scales pt_clust_3="39.36179" pt_clust_4="80.94582" pt_clust_5="45.47576" pt_clust_6="14000.00000"></scales>
<clustering>
<clus scale="   39.362">  1  3  2 -1</clus>
<clus scale="   45.476">  1  5  2 -1</clus>
<clus scale="   80.946">  1  4  2 -1</clus>
<clus scale="   39.362">  1  3  2 -1</clus>
</clustering>
</event>
<event>
 6    0  0.8777103E+002  0.1195849E+03  0.7546771E-02  0.1243783E+00
         21   -1    0    0  504  501  0.00000000000E+00  0.00000000000E+00  0.17119653004E+03  0.17119653004E+03  0.00000000000E+00 0.  1.
         21   -1    0    0  503  502 -0.00000000000E+00 -0.00000000000E+00 -0.18583984429E+03  0.18583984429E+03  0.00000000000E+00 0.  1.
         21    1    1    2  503  506 -0.72102337392E+02  0.66288819694E+02 -0.10717205375E+01  0.97949493407E+02  0.00000000000E+00 0.  1.
         21    1    1    2  504  502  0.25347377525E+02 -0.22916751543E+02 -0.96856901533E+02  0.10270796670E+03  0.00000000000E+00 0.  1.
         21    1    1    2  505  501  0.81138071817E+02 -0.52195807601E+02  0.55510651364E+02  0.11130687959E+03  0.00000000000E+00 0.  1.
         21    1    1    2  506  505 -0.34383111950E+02  0.88237394496E+01  0.27774656455E+02  0.45072034638E+02  0.00000000000E+00 0.  1.
<scales pt_clust_3="31.63353" pt_clust_4="34.17114" pt_clust_5="107.42200" pt_clust_6="31.63353"></scales>
<clustering>
<clus scale="   31.634">  3  6 -1 -1</clus>
<clus scale="   34.171">  2  4  1 -1</clus>
<clus scale="  107.422">  1  5  2 -1</clus>
<clus scale="  107.422">  1  3  2 -1</clus>
</clustering>
</event>
<event>
 6    0  0.8777103E+002  0.1030239E+03  0.7546771E-02  0.1274063E+00
         21   -1    0    0  504  501  0.00000000000E+00  0.00000000000E+00  0.31416334077E+03  0.31416334077E+03  0.00000000000E+00 0. -1.
         21   -1    0    0  503  502 -0.00000000000E+00 -0.00000000000E+00 -0.49406609744E+03  0.49406609744E+03  0.00000000000E+00 0. -1.
         21    1    1    2  503  506 -0.11447940400E+03 -0.58705025345E+02 -0.10857775668E+03  0.16834768542E+03  0.00000000000E+00 0. -1.
         21    1    1    2  504  505  0.58812463129E+02  0.70703819432E+02 -0.14077106370E+03  0.16815001718E+03  0.00000000000E+00 0. -1.
         21    1    1    2  505  502  0.45132834794E+02 -0.71850296329E+02 -0.18850376672E+03  0.20671987791E+03  0.00000000000E+00 0. -1.
         21    1    1    2  506  501  0.10534106078E+02  0.59851502242E+02  0.25794983042E+03  0.26501185771E+03  0.00000000000E+00 0. -1.
<scales pt_clust_3="14000.00000" pt_clust_4="103.02385" pt_clust_5="77.37750" pt_clust_6="60.77145"></scales>
<clustering>
<clus scale="   60.771">  1  6  2 -1</clus>
<clus scale="   77.378">  2  5  1 -1</clus>
<clus scale="  103.024">  2  4  1 -1</clus>
<clus scale="   60.771">  1  3  2 -1</clus>
</clustering>
</event>
<event>
 6    0  0.8777103E+002  0.8381260E+02  0.7546771E-02  0.1318567E+00
         21   -1    0    0  506  501  0.00000000000E+00  0.00000000000E+00  0.73687216081E+03  0.73687216081E+03  0.00000000000E+00 0.  1.
         21   -1    0    0  503  502 -0.00000000000E+00 -0.00000000000E+00 -0.86437643420E+02  0.86437643420E+02  0.00000000000E+00 0.  1.
         21    1    1    2  503  505  0.83041622586E+01  0.38240323166E+02 -0.36643946678E+02  0.53610262588E+02  0.00000000000E+00 0.  1.
         21    1    1    2  504  502 -0.42684356527E+02  0.10270560952E+02 -0.10905500629E+02  0.45236806457E+02  0.00000000000E+00 0.  1.
         21    1    1    2  505  501  0.65435611188E+02  0.48769512661E+02  0.43012010523E+03  0.43779400350E+03  0.00000000000E+00 0.  1.
         21    1    1    2  506  504 -0.31055416919E+02 -0.97280396779E+02  0.26786385947E+03  0.28666873169E+03  0.00000000000E+00 0.  1.
<scales pt_clust_3="39.13159" pt_clust_4="51.83179" pt_clust_5="14000.00000" pt_clust_6="83.81260"></scales>
<clustering>
<clus scale="   39.132">  2  3  1 -1</clus>
<clus scale="   51.832">  2  4  1 -1</clus>
<clus scale="   83.813">  2  6  1 -1</clus>
<clus scale="   83.813">  1  3  2 -1</clus>
</clustering>
</event>
<event>
 6    0  0.8777103E+002  0.9065486E+02  0.7546771E-02  0.1301274E+00
         21   -1    0    0  503  501  0.00000000000E+00  0.00000000000E+00  0.27283436787E+03  0.27283436787E+03  0.00000000000E+00 0. -1.
         21   -1    0    0  505  502 -0.00000000000E+00 -0.00000000000E+00 -0.10499344277E+04  0.10499344277E+04  0.00000000000E+00 0.  1.
         21    1    1    2  503  502 -0.39173900402E+02  0.12041289059E+02  0.31734267545E+02  0.51832912821E+02  0.00000000000E+00 0. -1.
         21    1    1    2  504  506  0.21985544560E+02  0.13164249590E+03 -0.64396532858E+02  0.14818915055E+03  0.00000000000E+00 0. -1.
         21    1    1    2  505  504 -0.35154246272E+02 -0.52532368805E+02 -0.91781858736E+03  0.91999262503E+03  0.00000000000E+00 0.  1.
         21    1    1    2  506  501  0.52342602114E+02 -0.91151416154E+02  0.17338079282E+03  0.20275410719E+03  0.00000000000E+00 0. -1.
<scales pt_clust_3="40.98277" pt_clust_4="14000.00000" pt_clust_5="63.26542" pt_clust_6="90.65486"></scales>
<clustering>
<clus scale="   40.983">  1  3  2 -1</clus>
<clus scale="   63.265">  2  5  1 -1</clus>
<clus scale="   90.655">  1  6  2 -1</clus>
<clus scale="   40.983">  1  3  2 -1</clus>
</clustering>
</event>
<event>
 6    0  0.8777103E+002  0.1267564E+03  0.7546771E-02  0.1232350E+00
         21   -1    0    0  505  501  0.00000000000E+00  0.00000000000E+00  0.31637909743E+03  0.31637909743E+03  0.00000000000E+00 0. -1.
         21   -1    0    0  504  502 -0.00000000000E+00 -0.00000000000E+00 -0.25603405593E+03  0.25603405593E+03  0.00000000000E+00 0. -1.
         21    1    1    2  503  501 -0.76797642383E+01  0.66956594772E+02  0.14889124148E+02  0.69020651837E+02  0.00000000000E+00 0. -1.
         21    1    1    2  504  506  0.11983213996E+03 -0.47247089155E+02 -0.18495287424E+03  0.22538765470E+03  0.00000000000E+00 0. -1.
         21    1    1    2  505  502 -0.18179222786E+01 -0.40067540201E+02  0.87991695884E+02  0.96701867426E+02  0.00000000000E+00 0. -1.
         21    1    1    2  506  503 -0.11033445344E+03  0.20358034585E+02  0.14241709571E+03  0.18130297940E+03  0.00000000000E+00 0. -1.
<scales pt_clust_3="59.99161" pt_clust_4="126.75637" pt_clust_5="40.10876" pt_clust_6="14000.00000"></scales>
<clustering>
<clus scale="   40.109">  1  5  2 -1</clus>
<clus scale="   59.992">  1  3  2 -1</clus>
<clus scale="  126.756">  2  4  1 -1</clus>
<clus scale="   40.109">  1  3  2 -1</clus>
</clustering>
</event>
<event>
 6    0  0.8777103E+002  0.6801906E+02  0.7546771E-02  0.1366962E+00
         21   -1    0    0  503  501  0.00000000000E+00  0.00000000000E+00  0.36449121646E+02  0.36449121646E+02  0.00000000000E+00 0. -1.
         21   -1    0    0  504  502 -0.00000000000E+00 -0.00000000000E+00 -0.12554664189E+04  0.12554664189E+04  0.00000000000E+00 0. -1.
         21    1    1    2  503  506 -0.21549182895E+02 -0.41721091079E+02  0.54334578428E+01  0.47270912709E+02  0.00000000000E+00 0. -1.
         21    1    1    2  504  501  0.58646769913E+02  0.76228074831E+02 -0.50844991958E+03  0.51746640831E+03  0.00000000000E+00 0. -1.
         21    1    1    2  505  502 -0.50776797999E+02  0.19140345593E+02 -0.53890426951E+03  0.54162943766E+03  0.00000000000E+00 0. -1.
         21    1    1    2  506  505  0.13679210981E+02 -0.53647329346E+02 -0.17709656603E+03  0.18554878188E+03  0.00000000000E+00 0. -1.
<scales pt_clust_3="46.95761" pt_clust_4="68.01906" pt_clust_5="55.35871" pt_clust_6="14000.00000"></scales>
<clustering>
<clus scale="   46.958">  1  3  2 -1</clus>
<clus scale="   55.359">  2  5  1 -1</clus>
<clus scale="   68.019">  2  4  1 -1</clus>
<clus scale="   46.958">  1  3  2 -1</clus>
</clustering>
</event>
<event>
 6    0  0.8777103E+002  0.7898450E+02  0.7546771E-02  0.1331958E+00
         21   -1    0    0  504  501  0.00000000000E+00  0.00000000000E+00  0.38235307941E+03  0.38235307941E+03  0.00000000000E+00 0. -1.
         21   -1    0    0  505  502 -0.00000000000E+00 -0.00000000000E+00 -0.12762975280E+03  0.12762975280E+03  0.00000000000E+00 0. -1.
         21    1    1    2  503  506  0.54549166356E+02 -0.26672762949E+02  0.14943809021E+02  0.62532913426E+02  0.00000000000E+00 0. -1.
         21    1    1    2  504  502 -0.50558490944E+02 -0.16589609193E+02  0.26865399690E+02  0.59608102135E+02  0.00000000000E+00 0. -1.
         21    1    1    2  505  503  0.48595011068E+02 -0.23634143548E+02 -0.72267429963E+02  0.90236518524E+02  0.00000000000E+00 0. -1.
         21    1    1    2  506  501 -0.52585686481E+02  0.66896515689E+02  0.28518154786E+03  0.29760529813E+03  0.00000000000E+00 0. -1.
<scales pt_clust_3="14000.00000" pt_clust_4="53.21068" pt_clust_5="37.60676" pt_clust_6="78.98450"></scales>
<clustering>
<clus scale="   53.211">  2  4  1 -1</clus>
<clus scale="   37.607">  2  5  1 -1</clus>
<clus scale="   78.985">  1  6  2 -1</clus>
<clus scale="   78.985">  1  3  2 -1</clus>
</clustering>
</event>
<event>
 6    0  0.8777103E+002  0.1932763E+03  0.7546771E-02  0.1155539E+00
         21   -1    0    0  506  501  0.00000000000E+00  0.00000000000E+00  0.17044424090E+04  0.17044424090E+04  0.00000000000E+00 0.  1.
         21   -1    0    0  504  502 -0.00000000000E+00 -0.00000000000E+00 -0.70149255647E+02  0.70149255647E+02  0.00000000000E+00 0.  1.
         21    1    1    2  503  505 -0.60520419673E+02  0.13659154525E+03  0.13746295279E+03  0.20301732640E+03  0.00000000000E+00 0.  1.
         21    1    1    2  504  503  0.13663190053E+02  0.48364627408E+02  0.62882702728E+02  0.80498784147E+02  0.00000000000E+00 0.  1.
         21    1    1    2  505  501 -0.15698365035E+03 -0.93514610137E+02  0.73028400255E+03  0.75279716602E+03  0.00000000000E+00 0.  1.
         21    1    1    2  506  502  0.20384087997E+03 -0.91441562518E+02  0.70366349527E+03  0.73827838806E+03  0.00000000000E+00 0.  1.
<scales pt_clust_3="35.93475" pt_clust_4="35.93475" pt_clust_5="182.72616" pt_clust_6="183.07679"></scales>
<clustering>
<clus scale="   35.935">  3  4 -1 -1</clus>
<clus scale="  182.726">  1  5  2 -1</clus>
<clus scale="  183.077">  1  6  2 -1</clus>
<clus scale="  182.726">  1  3  2 -1</clus>
</clustering>
</event>
<event>
 6    0  0.8777103E+002  0.7769534E+02  0.7546771E-02  0.1335722E+00
         21   -1    0    0  505  501  0.00000000000E+00  0.00000000000E+00  0.39539811582E+03  0.39539811582E+03  0.00000000000E+00 0.  1.
         21   -1    0    0  503  502 -0.00000000000E+00 -0.00000000000E+00 -0.93321782514E+02  0.93321782514E+02  0.00000000000E+00 0.  1.
         21    1    1    2  503  506 -0.23153427629E+02  0.20968421139E+02 -0.39275268624E+02  0.50182692450E+02  0.00000000000E+00 0.  1.
         21    1    1    2  504  502 -0.89604636321E+02  0.35791102042E+02  0.80165201614E+02  0.12544502137E+03  0.00000000000E+00 0.  1.
         21    1    1    2  505  504  0.37257053107E+02 -0.34610562665E+02  0.21694306106E+03  0.22282340720E+03  0.00000000000E+00 0.  1.
         21    1    1    2  506  501  0.75501010843E+02 -0.22148960516E+02  0.44243339260E+02  0.90268777322E+02  0.00000000000E+00 0.  1.
<scales pt_clust_3="31.23709" pt_clust_4="77.69534" pt_clust_5="48.96264" pt_clust_6="14000.00000"></scales>
<clustering>
<clus scale="   31.237">  2  3  1 -1</clus>
<clus scale="   48.963">  1  5  2 -1</clus>
<clus scale="   77.695">  1  4  2 -1</clus>
<clus scale="   48.963">  1  3  2 -1</clus>
</clustering>
</event>
<event>
 6    0  0.8777103E+002  0.9240013E+02  0.7546771E-02  0.1297141E+00
         21   -1    0    0  505  501  0.00000000000E+00  0.00000000000E+00  0.35624629901E+03  0.35624629901E+03  0.00000000000E+00 0.  1.
         21   -1    0    0  503  502 -0.00000000000E+00 -0.00000000000E+00 -0.14643912424E+03  0.14643912424E+03  0.00000000000E+00 0.  1.
         21    1    1    2  503  501 -0.11568381256E+03  0.23454538316E+01  0.16302556786E+03  0.19991393503E+03  0.00000000000E+00 0.  1.
         21    1    1    2  504  502  0.75672081318E+01 -0.31678892140E+02 -0.61562966885E+02  0.69647783437E+02  0.00000000000E+00 0.  1.
         21    1    1    2  505  506  0.29140694473E+02 -0.19552397288E+02  0.13256893100E+03  0.13713496192E+03  0.00000000000E+00 0. -1.
         21    1    1    2  506  504  0.78975909959E+02  0.48885835596E+02 -0.24224357208E+02  0.95988742871E+02  0.00000000000E+00 0.  1.
<scales pt_clust_3="92.40013" pt_clust_4="32.57015" pt_clust_5="35.77382" pt_clust_6="14000.00000"></scales>
<clustering>
<clus scale="   32.570">  2  4  1 -1</clus>
<clus scale="   35.774">  1  5  2 -1</clus>
<clus scale="   92.400">  1  3  2 -1</clus>
<clus scale="   35.774">  1  3  2 -1</clus>
</clustering>
</event>
<event>
 6    0  0.8777103E+002  0.1371601E+03  0.7546771E-02  0.1217202E+00
         21   -1    0    0  506  501  0.00000000000E+00  0.00000000000E+00  0.11082801841E+03  0.11082801841E+03  0.00000000000E+00 0. -1.
         21   -1    0    0  503  502 -0.00000000000E+00 -0.00000000000E+00 -0.78347753596E+03  0.78347753596E+03  0.00000000000E+00 0. -1.
         21    1    1    2  503  504  0.13366334204E+03 -0.13077429560E+03 -0.17586312146E+03  0.25670146647E+03  0.00000000000E+00 0. -1.
         21    1    1    2  504  501 -0.27188098189E+02  0.12222422776E+03 -0.39053329675E+02  0.13116065375E+03  0.00000000000E+00 0. -1.
         21    1    1    2  505  502  0.10711254947E+02  0.38551652463E+02 -0.32262148861E+03  0.32509319556E+03  0.00000000000E+00 0. -1.
         21    1    1    2  506  505 -0.11718649880E+03 -0.30001584615E+02 -0.13511157780E+03  0.18135023859E+03  0.00000000000E+00 0. -1.
<scales pt_clust_3="137.16012" pt_clust_4="14000.00000" pt_clust_5="40.01201" pt_clust_6="114.72533"></scales>
<clustering>
<clus scale="   40.012">  2  5  1 -1</clus>
<clus scale="  114.725">  2  6  1 -1</clus>
<clus scale="  137.160">  2  3  1 -1</clus>
<clus scale="  137.160">  1  3  2 -1</clus>
</clustering>
</event>
<event>
 6    0  0.8777103E+002  0.8359571E+02  0.7546771E-02  0.1319146E+00
         21   -1    0    0  504  501  0.00000000000E+00  0.00000000000E+00  0.84673522988E+02  0.84673522988E+02  0.00000000000E+00 0. -1.
         21   -1    0    0  503  502 -0.00000000000E+00 -0.00000000000E+00 -0.98191334646E+03  0.98191334646E+03  0.00000000000E+00 0. -1.
         21    1    1    2  503  505  0.80834883068E+01  0.86776477079E+02 -0.79309293275E+03  0.79786709403E+03  0.00000000000E+00 0. -1.
         21    1    1    2  504  502  0.78920041900E+02 -0.20655415901E+02 -0.83574026985E+02  0.11678885737E+03  0.00000000000E+00 0.  1.
         21    1    1    2  505  506 -0.68086713722E+02 -0.36370725549E+01  0.24661274000E+02  0.72506601890E+02  0.00000000000E+00 0. -1.
         21    1    1    2  506  501 -0.18916816484E+02 -0.62483988623E+02 -0.45234137732E+02  0.79424316154E+02  0.00000000000E+00 0.  1.
<scales pt_clust_3="14000.00000" pt_clust_4="82.54089" pt_clust_5="83.59571" pt_clust_6="65.28472"></scales>
<clustering>
<clus scale="   65.285">  1  6  2 -1</clus>
<clus scale="   82.541">  1  4  2 -1</clus>
<clus scale="   83.596">  1  5  2 -1</clus>
<clus scale="   65.285">  1  3  2 -1</clus>
</clustering>
</event>
<event>
 6    0  0.8777103E+002  0.9751676E+02  0.7546771E-02  0.1285606E+00
         21   -1    0    0  504  501  0.00000000000E+00  0.00000000000E+00  0.14352735452E+03  0.14352735452E+03  0.00000000000E+00 0.  1.
         21   -1    0    0  506  502 -0.00000000000E+00 -0.00000000000E+00 -0.16648297560E+04  0.16648297560E+04  0.00000000000E+00 0.  1.
         21    1    1    2  503  501 -0.67455710014E+02 -0.82340993730E+02 -0.11371829647E+04  0.11421538457E+04  0.00000000000E+00 0.  1.
         21    1    1    2  504  505  0.32569538019E+02 -0.34397034053E+02  0.28232241530E+02  0.55145174043E+02  0.00000000000E+00 0.  1.
         21    1    1    2  505  502  0.53365251019E+02  0.81166324084E+02  0.74588056494E+02  0.12247122255E+03  0.00000000000E+00 0.  1.
         21    1    1    2  506  503 -0.18479079024E+02  0.35571703700E+02 -0.48693973481E+03  0.48858686823E+03  0.00000000000E+00 0.  1.
<scales pt_clust_3="14000.00000" pt_clust_4="46.92977" pt_clust_5="97.51676" pt_clust_6="40.08519"></scales>
<clustering>
<clus scale="   40.085">  2  6  1 -1</clus>
<clus scale="   46.930">  1  4  2 -1</clus>
<clus scale="   97.517">  1  5  2 -1</clus>
<clus scale="   46.930">  1  3  2 -1</clus>
</clustering>
</event>
<event>
 6    0  0.8777103E+002  0.8246650E+02  0.7546771E-02  0.1322194E+00
         21   -1    0    0  505  501  0.00000000000E+00  0.00000000000E+00  0.24996423129E+03  0.24996423129E+03  0.00000000000E+00 0. -1.
         21   -1    0    0  506  502 -0.00000000000E+00 -0.00000000000E+00 -0.51241573717E+03  0.51241573717E+03  0.00000000000E+00 0. -1.
         21    1    1    2  503  501  0.16075451493E+02 -0.43348813573E+02  0.11320397929E+03  0.12228115434E+03  0.00000000000E+00 0. -1.
         21    1    1    2  504  502  0.18630164173E+02  0.27784920368E+02 -0.41904087414E+03  0.42037404656E+03  0.00000000000E+00 0. -1.
         21    1    1    2  505  504 -0.98461176918E+02  0.47754261930E+02  0.83645666532E+02  0.13773768701E+03  0.00000000000E+00 0. -1.
         21    1    1    2  506  503  0.63755561252E+02 -0.32190368724E+02 -0.40260277553E+02  0.81987080554E+02  0.00000000000E+00 0.  1.
<scales pt_clust_3="45.29477" pt_clust_4="33.45273" pt_clust_5="14000.00000" pt_clust_6="82.46650"></scales>
<clustering>
<clus scale="   33.453">  2  4  1 -1</clus>
<clus scale="   45.295">  1  3  2 -1</clus>
<clus scale="   82.467">  2  6  1 -1</clus>
<clus scale="   45.295">  1  3  2 -1</clus>
</clustering>
</event>
<event>
 6    0  0.8777103E+002  0.1079479E+03  0.7546771E-02  0.1264418E+00
         21   -1    0    0  502  501  0.00000000000E+00  0.00000000000E+00  0.27263397244E+04  0.27263397244E+04  0.00000000000E+00 0.  1.
         21   -1    0    0  505  502 -0.00000000000E+00 -0.00000000000E+00 -0.43479922439E+03  0.43479922439E+03  0.00000000000E+00 0. -1.
         21    1    1    2  503  501  0.45774255070E+02 -0.46536445555E+01  0.12780383883E+04  0.12788663186E+04  0.00000000000E+00 0.  1.
         21    1    1    2  504  503  0.34621128130E+02  0.77002053577E+02  0.14310632515E+04  0.14335515228E+04  0.00000000000E+00 0.  1.
         21    1    1    2  505  506 -0.12107758324E+02  0.34944485963E+02 -0.10179731735E+03  0.10830701146E+03  0.00000000000E+00 0. -1.
         21    1    1    2  506  504 -0.68287624876E+02 -0.10729289498E+03 -0.31576382253E+03  0.34041409584E+03  0.00000000000E+00 0. -1.
<scales pt_clust_3="45.99066" pt_clust_4="14000.00000" pt_clust_5="36.98263" pt_clust_6="107.94794"></scales>
<clustering>
<clus scale="   36.983">  2  5  1 -1</clus>
<clus scale="   45.991">  1  3  2 -1</clus>
<clus scale="  107.948">  2  6  1 -1</clus>
<clus scale="   45.991">  1  3  2 -1</clus>
</clustering>
</event>
<event>
 6    0  0.8777103E+002  0.6189106E+02  0.7546771E-02  0.1390063E+00
         21   -1    0    0  503  501  0.00000000000E+00  0.00000000000E+00  0.19699297727E+04  0.19699297727E+04  0.00000000000E+00 0.  1.
         21   -1    0    0  505  502 -0.00000000000E+00 -0.00000000000E+00 -0.41056021366E+03  0.41056021366E+03  0.00000000000E+00 0.  1.
         21    1    1    2  503  504  0.47680495292E+02 -0.44764720420E+01  0.41968876312E+02  0.63677743460E+02  0.00000000000E+00 0.  1.
         21    1    1    2  504  502  0.26726611698E+02  0.19843148986E+02 -0.37099886506E+03  0.37248922160E+03  0.00000000000E+00 0.  1.
         21    1    1    2  505  506 -0.13399751643E+03 -0.25641916275E+02  0.14214912676E+03  0.19702592855E+03  0.00000000000E+00 0.  1.
         21    1    1    2  506  501  0.59590409443E+02  0.10275239331E+02  0.17462504211E+04  0.17472970928E+04  0.00000000000E+00 0.  1.
<scales pt_clust_3="55.16467" pt_clust_4="33.28757" pt_clust_5="61.89106" pt_clust_6="14000.00000"></scales>
<clustering>
<clus scale="   33.288">  2  4  1 -1</clus>
<clus scale="   55.165">  2  3  1 -1</clus>
<clus scale="   61.891">  2  5  1 -1</clus>
<clus scale="   61.891">  1  3  2 -1</clus>
</clustering>
</event>
<event>
 6    0  0.8777103E+002  0.1379246E+03  0.7546771E-02  0.1216149E+00
         21   -1    0    0  506  501  0.00000000000E+00  0.00000000000E+00  0.17282527071E+03  0.17282527071E+03  0.00000000000E+00 0. -1.
         21   -1    0    0  505  502 -0.00000000000E+00 -0.00000000000E+00 -0.34014312847E+03  0.34014312847E+03  0.00000000000E+00 0. -1.
         21    1    1    2  503  501  0.33483273274E+02  0.18844121075E+02 -0.94055548675E+01  0.39556225182E+02  0.00000000000E+00 0. -1.
         21    1    1    2  504  502 -0.56948345963E+02 -0.11483195699E+03 -0.88172900163E+01  0.12848049291E+03  0.00000000000E+00 0. -1.
         21    1    1    2  505  503  0.67384730284E+02  0.12427124505E+03 -0.21716762471E+03  0.25912510771E+03  0.00000000000E+00 0. -1.
         21    1    1    2  506  504 -0.43919657595E+02 -0.28283409138E+02  0.68072611830E+02  0.85806573391E+02  0.00000000000E+00 0. -1.
<scales pt_clust_3="38.42174" pt_clust_4="14000.00000" pt_clust_5="137.92463" pt_clust_6="33.55097"></scales>
<clustering>
<clus scale="   38.422">  1  3  2 -1</clus>
<clus scale="   33.551">  1  6  2 -1</clus>
<clus scale="  137.925">  2  5  1 -1</clus>
<clus scale="   38.422">  1  3  2 -1</clus>
</clustering>
</event>
<event>
 6    0  0.8777103E+002  0.1102245E+03  0.7546771E-02  0.1260155E+00
         21   -1    0    0  504  501  0.00000000000E+00  0.00000000000E+00  0.19052278768E+03  0.19052278768E+03  0.00000000000E+00 0. -1.
         21   -1    0    0  503  502 -0.00000000000E+00 -0.00000000000E+00 -0.61327249227E+03  0.61327249227E+03  0.00000000000E+00 0.  1.
         21    1    1    2  503  506 -0.38502760898E+01 -0.42974197796E+02 -0.21469538326E+03  0.21898793093E+03  0.00000000000E+00 0.  1.
         21    1    1    2  504  502  0.12386314724E+03  0.53620656166E+02  0.91949377149E+02  0.16331546764E+03  0.00000000000E+00 0. -1.
         21    1    1    2  505  501 -0.92808586793E+02  0.22730721188E+02  0.20818217404E+02  0.97793239256E+02  0.00000000000E+00 0. -1.
         21    1    1    2  506  505 -0.27204284360E+02 -0.33377179558E+02 -0.32082191588E+03  0.32369864213E+03  0.00000000000E+00 0.  1.
<scales pt_clust_3="87.92007" pt_clust_4="14000.00000" pt_clust_5="110.22446" pt_clust_6="30.56360"></scales>
<clustering>
<clus scale="   30.564">  3  6 -1 -1</clus>
<clus scale="   87.920">  2  3  1 -1</clus>
<clus scale="  110.224">  2  5  1 -1</clus>
<clus scale="  110.224">  1  3  2 -1</clus>
</clustering>
</event>
<event>
 6    0  0.8777103E+002  0.7995533E+02  0.7546771E-02  0.1329178E+00
         21   -1    0    0  504  501  0.00000000000E+00  0.00000000000E+00  0.14026347255E+04  0.14026347255E+04  0.00000000000E+00 0.  1.
         21   -1    0    0  501  502 -0.00000000000E+00 -0.00000000000E+00 -0.64299231154E+02  0.64299231154E+02  0.00000000000E+00 0.  1.
         21    1    1    2  503  506  0.96571875182E+02  0.25374851987E+02  0.25352979643E+03  0.27248370202E+03  0.00000000000E+00 0.  1.
         21    1    1    2  504  505 -0.12243280026E+02  0.42466239330E+02  0.93991044795E+03  0.94094895162E+03  0.00000000000E+00 0.  1.
         21    1    1    2  505  503 -0.54640616852E+02 -0.45704346211E+02  0.18540291939E+03  0.19861703550E+03  0.00000000000E+00 0.  1.
         21    1    1    2  506  502 -0.29687978305E+02 -0.22136745107E+02 -0.40507669416E+02  0.54884267521E+02  0.00000000000E+00 0.  1.
<scales pt_clust_3="14000.00000" pt_clust_4="43.80133" pt_clust_5="79.95533" pt_clust_6="37.03257"></scales>
<clustering>
<clus scale="   37.033">  2  6  1 -1</clus>
<clus scale="   43.801">  1  4  2 -1</clus>
<clus scale="   79.955">  1  5  2 -1</clus>
<clus scale="   43.801">  1  3  2 -1</clus>
</clustering>
</event>
<event>
 6    0  0.8777103E+002  0.8881753E+02  0.7546771E-02  0.1305741E+00
         21   -1    0    0  504  501  0.00000000000E+00  0.00000000000E+00  0.68996991786E+03  0.68996991786E+03  0.00000000000E+00 0.  1.
         21   -1    0    0  503  502 -0.00000000000E+00 -0.00000000000E+00 -0.24003571226E+03  0.24003571226E+03  0.00000000000E+00 0. -1.
         21    1    1    2  503  505 -0.42713437845E+00  0.37652052323E+02 -0.56907494191E+02  0.68237250700E+02  0.00000000000E+00 0.  1.
         21    1    1    2  504  502  0.66833496301E+02  0.27681980608E+02 -0.15286032884E+03  0.16911324138E+03  0.00000000000E+00 0. -1.
         21    1    1    2  505  506 -0.10038311562E+02 -0.96571010049E+02  0.14860405746E+03  0.17751026330E+03  0.00000000000E+00 0.  1.
         21    1    1    2  506  501 -0.56368050360E+02  0.31236977118E+02  0.51109797116E+03  0.51514487474E+03  0.00000000000E+00 0.  1.
<scales pt_clust_3="37.65448" pt_clust_4="88.81753" pt_clust_5="14000.00000" pt_clust_6="64.65802"></scales>
<clustering>
<clus scale="   37.654">  2  3  1 -1</clus>
<clus scale="   64.658">  1  6  2 -1</clus>
<clus scale="   88.818">  2  4  1 -1</clus>
<clus scale="   64.658">  1  3  2 -1</clus>
</clustering>
</event>
<event>
 6    0  0.8777103E+002  0.8829961E+02  0.7546771E-02  0.1307022E+00
         21   -1    0    0  506  501  0.00000000000E+00  0.00000000000E+00  0.18496170174E+04  0.18496170174E+04  0.00000000000E+00 0.  1.
         21   -1    0    0  505  502 -0.00000000000E+00 -0.00000000000E+00 -0.13431919911E+03  0.13431919911E+03  0.00000000000E+00 0.  1.
         21    1    1    2  503  501  0.39207525286E+02 -0.10193452302E+03  0.16886977256E+03  0.20110911741E+03  0.00000000000E+00 0.  1.
         21    1    1    2  504  502 -0.40632111769E+02  0.28471384104E+01  0.38826575174E+02  0.56272352391E+02  0.00000000000E+00 0.  1.
         21    1    1    2  505  503 -0.37309925439E+02  0.18804773883E+02 -0.10421346583E+03  0.11227687436E+03  0.00000000000E+00 0.  1.
         21    1    1    2  506  504  0.38734511921E+02  0.80282610724E+02  0.16118149364E+04  0.16142778724E+04  0.00000000000E+00 0.  1.
<scales pt_clust_3="14000.00000" pt_clust_4="40.73174" pt_clust_5="75.38812" pt_clust_6="88.29961"></scales>
<clustering>
<clus scale="   40.732">  2  4  1 -1</clus>
<clus scale="   75.388">  2  5  1 -1</clus>
<clus scale="   88.300">  1  6  2 -1</clus>
<clus scale="   88.300">  1  3  2 -1</clus>
</clustering>
</event>
<event>
 6    0  0.8777103E+002  0.1217551E+03  0.7546771E-02  0.1240230E+00
         21   -1    0    0  506  501  0.00000000000E+00  0.00000000000E+00  0.63234618540E+03  0.63234618540E+03  0.00000000000E+00 0. -1.
         21   -1    0    0  504  502 -0.00000000000E+00 -0.00000000000E+00 -0.21878005701E+03  0.21878005701E+03  0.00000000000E+00 0. -1.
         21    1    1    2  503  505  0.60633566101E+02 -0.17186334080E+03  0.16554840256E+03  0.24621070415E+03  0.00000000000E+00 0. -1.
         21    1    1    2  504  501 -0.85279477136E+01  0.64332348578E+02  0.30723959949E+03  0.31401838873E+03  0.00000000000E+00 0. -1.
         21    1    1    2  505  502  0.61335112941E+02  0.10445930727E+03 -0.11269220351E+03  0.16544871014E+03  0.00000000000E+00 0. -1.
         21    1    1    2  506  503 -0.11344073133E+03  0.30716849501E+01  0.53470329845E+02  0.12544843939E+03  0.00000000000E+00 0. -1.
<scales pt_clust_3="121.75506" pt_clust_4="64.89512" pt_clust_5="14000.00000" pt_clust_6="117.69359"></scales>
<clustering>
<clus scale="   64.895">  1  4  2 -1</clus>
<clus scale="  117.694">  1  6  2 -1</clus>
<clus scale="  121.755">  1  3  2 -1</clus>
<clus scale="   64.895">  1  3  2 -1</clus>
</clustering>
</event>
<event>
 6    0  0.8777103E+002  0.1487631E+03  0.7546771E-02  0.1202001E+00
         21   -1    0    0  506  501  0.00000000000E+00  0.00000000000E+00  0.21398091901E+03  0.21398091901E+03  0.00000000000E+00 0. -1.
         21   -1    0    0  503  502 -0.00000000000E+00 -0.00000000000E+00 -0.42699196853E+03  0.42699196853E+03  0.00000000000E+00 0. -1.
         21    1    1    2  503  505 -0.39846234385E+02 -0.64769524138E+01 -0.35839696077E+02  0.53982933619E+02  0.00000000000E+00 0. -1.
         21    1    1    2  504  502 -0.96752543173E+02 -0.82202509936E+02 -0.31299634866E+03  0.33776474287E+03  0.00000000000E+00 0. -1.
         21    1    1    2  505  501  0.62299107928E+02  0.23322125673E+02 -0.15607588050E+02  0.68327865467E+02  0.00000000000E+00 0. -1.
         21    1    1    2  506  504  0.74299669630E+02  0.65357336677E+02  0.15143258326E+03  0.18089734558E+03  0.00000000000E+00 0. -1.
<scales pt_clust_3="40.36921" pt_clust_4="148.76306" pt_clust_5="62.17916" pt_clust_6="14000.00000"></scales>
<clustering>
<clus scale="   40.369">  2  3  1 -1</clus>
<clus scale="   62.179">  1  5  2 -1</clus>
<clus scale="  148.763">  2  4  1 -1</clus>
<clus scale="   62.179">  1  3  2 -1</clus>
</clustering>
</event>
<event>
 6    0  0.8777103E+002  0.7968118E+02  0.7546771E-02  0.1329959E+00
         21   -1    0    0  504  501  0.00000000000E+00  0.00000000000E+00  0.21536700275E+03  0.21536700275E+03  0.00000000000E+00 0.  1.
         21   -1    0    0  506  502 -0.00000000000E+00 -0.00000000000E+00 -0.11812153237E+04  0.11812153237E+04  0.00000000000E+00 0. -1.
         21    1    1    2  503  502 -0.37968677389E+02 -0.53055186118E+01 -0.98762612309E+02  0.10594254377E+03  0.00000000000E+00 0. -1.
         21    1    1    2  504  503 -0.53384503891E+02  0.45212623906E+02 -0.52336964550E+02  0.87368440953E+02  0.00000000000E+00 0. -1.
         21    1    1    2  505  501  0.13478028890E+03 -0.49338224619E+02  0.16717932750E+03  0.22033818151E+03  0.00000000000E+00 0.  1.
         21    1    1    2  506  505 -0.43427107623E+02  0.94311193251E+01 -0.98192807159E+03  0.98293316022E+03  0.00000000000E+00 0. -1.
<scales pt_clust_3="38.33757" pt_clust_4="71.63561" pt_clust_5="14000.00000" pt_clust_6="79.68118"></scales>
<clustering>
<clus scale="   38.338">  2  3  1 -1</clus>
<clus scale="   71.636">  1  4  2 -1</clus>
<clus scale="   79.681">  2  6  1 -1</clus>
<clus scale="   71.636">  1  3  2 -1</clus>
</clustering>
</event>
<event>
 6    0  0.8777103E+002  0.1024881E+03  0.7546771E-02  0.1275149E+00
         21   -1    0    0  503  501  0.00000000000E+00  0.00000000000E+00  0.75902863359E+03  0.75902863359E+03  0.00000000000E+00 0.  1.
         21   -1    0    0  506  502 -0.00000000000E+00 -0.00000000000E+00 -0.47898737558E+03  0.47898737558E+03  0.00000000000E+00 0. -1.
         21    1    1    2  503  504 -0.50890865371E+02  0.49038058033E+01  0.50696371689E+03  0.50953521736E+03  0.00000000000E+00 0.  1.
         21    1    1    2  504  502  0.33519954918E+02 -0.82115619841E+02 -0.53389145193E+02  0.10352276669E+03  0.00000000000E+00 0.  1.
         21    1    1    2  505  501  0.31446617204E+02 -0.28997179138E+02  0.21639322947E+03  0.22058049754E+03  0.00000000000E+00 0.  1.
         21    1    1    2  506  505 -0.14075706751E+02  0.10620899318E+03 -0.38992654315E+03  0.40437752758E+03  0.00000000000E+00 0. -1.
<scales pt_clust_3="30.89794" pt_clust_4="14000.00000" pt_clust_5="42.77530" pt_clust_6="102.48809"></scales>
<clustering>
<clus scale="   42.775">  1  5  2 -1</clus>
<clus scale="   30.898">  1  3  2 -1</clus>
<clus scale="  102.488">  2  6  1 -1</clus>
<clus scale="   42.775">  1  3  2 -1</clus>
</clustering>
</event>
<event>
 6    0  0.8777103E+002  0.2750752E+03  0.7546771E-02  0.1098410E+00
         21   -1    0    0  503  501  0.00000000000E+00  0.00000000000E+00  0.33845852521E+03  0.33845852521E+03  0.00000000000E+00 0.  1.
         21   -1    0    0  501  502 -0.00000000000E+00 -0.00000000000E+00 -0.15455301392E+04  0.15455301392E+04  0.00000000000E+00 0.  1.
         21    1    1    2  503  504 -0.14369366638E+03  0.27715878429E+03  0.22373726519E+03  0.38408752297E+03  0.00000000000E+00 0.  1.
         21    1    1    2  504  505  0.47869357767E+02 -0.15771176417E+03 -0.21534268111E+03  0.27117696487E+03  0.00000000000E+00 0. -1.
         21    1    1    2  505  506  0.86628810475E+02 -0.36653377127E+02 -0.53874171607E+03  0.54689181517E+03  0.00000000000E+00 0.  1.
         21    1    1    2  506  502  0.91954981425E+01 -0.82793642996E+02 -0.67672448199E+03  0.68183236138E+03  0.00000000000E+00 0.  1.
<scales pt_clust_3="275.07523" pt_clust_4="14000.00000" pt_clust_5="127.96241" pt_clust_6="83.30273"></scales>
<clustering>
<clus scale="   83.303">  2  6  1 -1</clus>
<clus scale="  127.962">  2  5  1 -1</clus>
<clus scale="  275.075">  1  3  2 -1</clus>
<clus scale="  275.075">  1  3  2 -1</clus>
</clustering>
</event>
<event>
 6    0  0.8777103E+002  0.9971706E+02  0.7546771E-02  0.1280892E+00
         21   -1    0    0  505  501  0.00000000000E+00  0.00000000000E+00  0.43816810394E+02  0.43816810394E+02  0.00000000000E+00 0. -1.
         21   -1    0    0  506  502 -0.00000000000E+00 -0.00000000000E+00 -0.16329612895E+04  0.16329612895E+04  0.00000000000E+00 0.  1.
         21    1    1    2  503  504 -0.11119175532E+03 -0.81027179030E+02 -0.94006100621E+03  0.95007563151E+03  0.00000000000E+00 0.  1.
         21    1    1    2  504  501  0.78903442140E+02  0.34077935088E+02 -0.26833454120E+02  0.90039397496E+02  0.00000000000E+00 0. -1.
         21    1    1    2  505  502  0.21609588415E+02 -0.32059640796E+02 -0.83144379631E+02  0.91693962417E+02  0.00000000000E+00 0. -1.
         21    1    1    2  506  503  0.10678724761E+02  0.79008884738E+02 -0.53910563911E+03  0.54496910843E+03  0.00000000000E+00 0. -1.
<scales pt_clust_3="99.71706" pt_clust_4="14000.00000" pt_clust_5="38.66258" pt_clust_6="77.60973"></scales>
<clustering>
<clus scale="   38.663">  1  5  2 -1</clus>
<clus scale="   77.610">  2  6  1 -1</clus>
<clus scale="   99.717">  2  3  1 -1</clus>
<clus scale="   38.663">  1  3  2 -1</clus>
</clustering>
</event>
<event>
 6    0  0.8777103E+002  0.9772321E+02  0.7546771E-02  0.1285158E+00
         21   -1    0    0  503  501  0.00000000000E+00  0.00000000000E+00  0.75840850672E+03  0.75840850672E+03  0.00000000000E+00 0. -1.
         21   -1    0    0  506  502 -0.00000000000E+00 -0.00000000000E+00 -0.10369937592E+03  0.10369937592E+03  0.00000000000E+00 0. -1.
         21    1    1    2  503  505 -0.13043517219E+03 -0.67020759734E+01  0.44249947271E+03  0.46137190564E+03  0.00000000000E+00 0. -1.
         21    1    1    2  504  501  0.48222013215E+02 -0.33856055642E+02  0.21724053852E+03  0.22508897494E+03  0.00000000000E+00 0. -1.
         21    1    1    2  505  502 -0.24154377703E+02  0.47383915356E+02 -0.36508228401E+02  0.64509845277E+02  0.00000000000E+00 0. -1.
         21    1    1    2  506  504  0.10636753668E+03 -0.68257837410E+01  0.31477347969E+02  0.11113715678E+03  0.00000000000E+00 0. -1.
<scales pt_clust_3="97.72321" pt_clust_4="55.48346" pt_clust_5="53.18524" pt_clust_6="14000.00000"></scales>
<clustering>
<clus scale="   53.185">  2  5  1 -1</clus>
<clus scale="   55.483">  1  4  2 -1</clus>
<clus scale="   97.723">  1  3  2 -1</clus>
<clus scale="   55.483">  1  3  2 -1</clus>
</clustering>
</event>
<event>
 6    0  0.8777103E+002  0.3116694E+03  0.7546771E-02  0.1079548E+00
         21   -1    0    0  506  501  0.00000000000E+00  0.00000000000E+00  0.33129256511E+03  0.33129256511E+03  0.00000000000E+00 0.  1.
         21   -1    0    0  505  502 -0.00000000000E+00 -0.00000000000E+00 -0.93001573350E+03  0.93001573350E+03  0.00000000000E+00 0.  1.
         21    1    1    2  503  501  0.16704106747E+02 -0.29691406182E+02  0.15938523352E+03  0.16298545778E+03  0.00000000000E+00 0.  1.
         21    1    1    2  504  503  0.29441184409E+02  0.32755218112E+02 -0.19673198527E+03  0.20160149226E+03  0.00000000000E+00 0.  1.
         21    1    1    2  505  504  0.13460214510E+03  0.22317417593E+03 -0.54802331784E+03  0.60683935861E+03  0.00000000000E+00 0.  1.
         21    1    1    2  506  502 -0.18074743625E+03 -0.22623798786E+03 -0.13353098808E+02  0.28988198997E+03  0.00000000000E+00 0.  1.
<scales pt_clust_3="34.06768" pt_clust_4="33.15783" pt_clust_5="33.15783" pt_clust_6="301.05101"></scales>
<clustering>
<clus scale="   33.158">  4  5 -1 -1</clus>
<clus scale="   34.068">  1  3  2 -1</clus>
<clus scale="  301.051">  1  6  2 -1</clus>
<clus scale="   34.068">  1  3  2 -1</clus>
</clustering>
</event>
<event>
 6    0  0.8777103E+002  0.7747116E+02  0.7546771E-02  0.1336385E+00
         21   -1    0    0  504  501  0.00000000000E+00  0.00000000000E+00  0.17645030973E+04  0.17645030973E+04  0.00000000000E+00 0. -1.
         21   -1    0    0  501  502 -0.00000000000E+00 -0.00000000000E+00 -0.87420648862E+02  0.87420648862E+02  0.00000000000E+00 0. -1.
         21    1    1    2  503  505  0.80282192972E+02  0.19616389756E+01 -0.33787865915E+01  0.80377202829E+02  0.00000000000E+00 0. -1.
         21    1    1    2  504  506  0.50360843952E+02 -0.74795982053E+01  0.15594020269E+04  0.15602329443E+04  0.00000000000E+00 0. -1.
         21    1    1    2  505  502 -0.29581016440E+02  0.39430764222E+02 -0.94112572478E+00  0.49302205005E+02  0.00000000000E+00 0.  1.
         21    1    1    2  506  503 -0.10106202048E+03 -0.33912804992E+02  0.12200033378E+03  0.16201139395E+03  0.00000000000E+00 0. -1.
<scales pt_clust_3="77.47116" pt_clust_4="50.68002" pt_clust_5="49.29322" pt_clust_6="14000.00000"></scales>
<clustering>
<clus scale="   49.293">  2  5  1 -1</clus>
<clus scale="   50.680">  1  4  2 -1</clus>
<clus scale="   77.471">  2  3  1 -1</clus>
<clus scale="   50.680">  1  3  2 -1</clus>
</clustering>
</event>
<event>
 6    0  0.8777103E+002  0.1542717E+03  0.7546771E-02  0.1195320E+00
         21   -1    0    0  506  501  0.00000000000E+00  0.00000000000E+00  0.23938211969E+03  0.23938211969E+03  0.00000000000E+00 0. -1.
         21   -1    0    0  503  502 -0.00000000000E+00 -0.00000000000E+00 -0.96937895450E+03  0.96937895450E+03  0.00000000000E+00 0.  1.
         21    1    1    2  503  501 -0.74262354479E+02 -0.85808793510E+02 -0.29255498701E+02  0.11719185356E+03  0.00000000000E+00 0. -1.
         21    1    1    2  504  502  0.56111141261E+02  0.53588380462E+02 -0.66413456160E+03  0.66865154648E+03  0.00000000000E+00 0.  1.
         21    1    1    2  505  504  0.55921690594E+02  0.34358546379E+02 -0.22313715725E+03  0.23258963033E+03  0.00000000000E+00 0.  1.
         21    1    1    2  506  505 -0.37770477376E+02 -0.21381333303E+01  0.18653038275E+03  0.19032804382E+03  0.00000000000E+00 0. -1.
<scales pt_clust_3="138.20717" pt_clust_4="62.06259" pt_clust_5="62.06259" pt_clust_6="37.83095"></scales>
<clustering>
<clus scale="   37.831">  1  6  2 -1</clus>
<clus scale="   62.063">  4  5 -1 -1</clus>
<clus scale="  138.207">  1  3  2 -1</clus>
<clus scale="   37.831">  1  3  2 -1</clus>
</clustering>
</event>
<event>
 6    0  0.8777103E+002  0.1065438E+03  0.7546771E-02  0.1267107E+00
         21   -1    0    0  504  501  0.00000000000E+00  0.00000000000E+00  0.83985883987E+03  0.83985883987E+03  0.00000000000E+00 0. -1.
         21   -1    0    0  503  502 -0.00000000000E+00 -0.00000000000E+00 -0.16105006108E+03  0.16105006108E+03  0.00000000000E+00 0.  1.
         21    1    1    2  503  506 -0.10666348101E+03  0.10371608711E+02 -0.12668424398E+03  0.16593241431E+03  0.00000000000E+00 0.  1.
         21    1    1    2  504  502  0.90467834631E+02 -0.15628791010E+02  0.46755269491E+03  0.47648107070E+03  0.00000000000E+00 0. -1.
         21    1    1    2  505  501 -0.36235019252E+02 -0.81183492954E+01  0.26546224022E+03  0.26804679666E+03  0.00000000000E+00 0.  1.
         21    1    1    2  506  505  0.52430665627E+02  0.13375531595E+02  0.72478087628E+02  0.90448619281E+02  0.00000000000E+00 0. -1.
<scales pt_clust_3="14000.00000" pt_clust_4="106.54378" pt_clust_5="37.13333" pt_clust_6="48.83413"></scales>
<clustering>
<clus scale="   37.133">  1  5  2 -1</clus>
<clus scale="   48.834">  1  6  2 -1</clus>
<clus scale="  106.544">  1  4  2 -1</clus>
<clus scale="   37.133">  1  3  2 -1</clus>
</clustering>
</event>
<event>
 6    0  0.8777103E+002  0.1202107E+03  0.7546771E-02  0.1242750E+00
         21   -1    0    0  503  501  0.00000000000E+00  0.00000000000E+00  0.12336136736E+03  0.12336136736E+03  0.00000000000E+00 0. -1.
         21   -1    0    0  506  502 -0.00000000000E+00 -0.00000000000E+00 -0.98006113146E+03  0.98006113146E+03  0.00000000000E+00 0. -1.
         21    1    1    2  503  504  0.47922080483E+02 -0.21887239675E+02  0.14784460848E+02  0.54718893821E+02  0.00000000000E+00 0. -1.
         21    1    1    2  504  505  0.59064734401E+02 -0.92657905820E+01  0.67511750522E+02  0.90179455440E+02  0.00000000000E+00 0. -1.
         21    1    1    2  505  502 -0.14014479013E+03  0.22536663431E+02 -0.86986027787E+03  0.88136562584E+03  0.00000000000E+00 0. -1.
         21    1    1    2  506  501  0.33157975250E+02  0.86163668266E+01 -0.69135697602E+02  0.77158523722E+02  0.00000000000E+00 0.  1.
<scales pt_clust_3="39.98523" pt_clust_4="39.98523" pt_clust_5="112.44746" pt_clust_6="34.25920"></scales>
<clustering>
<clus scale="   34.259">  2  6  1 -1</clus>
<clus scale="   39.985">  3  4 -1 -1</clus>
<clus scale="  112.447">  2  5  1 -1</clus>
<clus scale="  120.211">  1  3  2 -1</clus>
</clustering>
</event>
<event>
 6    0  0.8777103E+002  0.1006779E+03  0.7546771E-02  0.1278877E+00
         21   -1    0    0  503  501  0.00000000000E+00  0.00000000000E+00  0.22915609810E+03  0.22915609810E+03  0.00000000000E+00 0.  1.
         21   -1    0    0  504  502 -0.00000000000E+00 -0.00000000000E+00 -0.73618151009E+03  0.73618151009E+03  0.00000000000E+00 0. -1.
         21    1    1    2  503  506  0.63715707601E+02 -0.96461034499E+02 -0.84344798391E+02  0.14310299643E+03  0.00000000000E+00 0.  1.
         21    1    1    2  504  505 -0.21762878310E+02  0.82132517119E+02 -0.12698987453E+03  0.15279332928E+03  0.00000000000E+00 0. -1.
         21    1    1    2  505  501 -0.43905415587E+02 -0.21843047389E+02  0.18296194186E+03  0.18941984164E+03  0.00000000000E+00 0.  1.
         21    1    1    2  506  502  0.19525862951E+01  0.36171564769E+02 -0.47865268093E+03  0.48002144083E+03  0.00000000000E+00 0. -1.
<scales pt_clust_3="14000.00000" pt_clust_4="100.67792" pt_clust_5="48.81588" pt_clust_6="36.22423"></scales>
<clustering>
<clus scale="   36.224">  2  6  1 -1</clus>
<clus scale="   48.816">  1  5  2 -1</clus>
<clus scale="  100.678">  2  4  1 -1</clus>
<clus scale="   48.816">  1  3  2 -1</clus>
</clustering>
</event>
<event>
 6    0  0.8777103E+002  0.1007861E+03  0.7546771E-02  0.1278652E+00
         21   -1    0    0  504  501  0.00000000000E+00  0.00000000000E+00  0.16863723596E+03  0.16863723596E+03  0.00000000000E+00 0.  1.
         21   -1    0    0  503  502 -0.00000000000E+00 -0.00000000000E+00 -0.79699483831E+03  0.79699483831E+03  0.00000000000E+00 0.  1.
         21    1    1    2  503  501  0.20431090334E+02  0.10312939045E+03 -0.70793399465E+03  0.71569800993E+03  0.00000000000E+00 0.  1.
         21    1    1    2  504  505 -0.17253323625E+02 -0.28831355060E+02  0.11756828509E+03  0.12227520546E+03  0.00000000000E+00 0.  1.
         21    1    1    2  505  506 -0.39031016275E+02  0.27895651765E+00 -0.98378472270E+01  0.40252717750E+02  0.00000000000E+00 0. -1.
         21    1    1    2  506  502  0.35853249567E+02 -0.74576991909E+02 -0.28154045564E+02  0.87406141136E+02  0.00000000000E+00 0.  1.
<scales pt_clust_3="100.78607" pt_clust_4="33.59947" pt_clust_5="45.26507" pt_clust_6="14000.00000"></scales>
<clustering>
<clus scale="   33.599">  1  4  2 -1</clus>
<clus scale="   45.265">  1  5  2 -1</clus>
<clus scale="  100.786">  2  3  1 -1</clus>
<clus scale="   33.599">  1  3  2 -1</clus>
</clustering>
</event>
<event>
 6    0  0.8777103E+002  0.1351721E+03  0.7546771E-02  0.1219977E+00
         21   -1    0    0  504  501  0.00000000000E+00  0.00000000000E+00  0.13279879294E+03  0.13279879294E+03  0.00000000000E+00 0.  1.
         21   -1    0    0  505  502 -0.00000000000E+00 -0.00000000000E+00 -0.12793560293E+04  0.12793560293E+04  0.00000000000E+00 0.  1.
         21    1    1    2  503  502 -0.95161193210E+02 -0.72016538956E+02 -0.72995162091E+03  0.73964275394E+03  0.00000000000E+00 0.  1.
         21    1    1    2  504  503 -0.88825303186E+02  0.99528841246E+02  0.61142487497E+02  0.14674579552E+03  0.00000000000E+00 0.  1.
         21    1    1    2  505  506  0.28910023199E+02  0.28929209013E+02 -0.18725753875E+03  0.19167178820E+03  0.00000000000E+00 0.  1.
         21    1    1    2  506  501  0.15507647320E+03 -0.56441511303E+02 -0.29049056416E+03  0.33409448455E+03  0.00000000000E+00 0.  1.
<scales pt_clust_3="92.10629" pt_clust_4="135.17213" pt_clust_5="40.89852" pt_clust_6="14000.00000"></scales>
<clustering>
<clus scale="   40.899">  2  5  1 -1</clus>
<clus scale="   92.106">  2  3  1 -1</clus>
<clus scale="  135.172">  1  4  2 -1</clus>
<clus scale="  135.172">  1  3  2 -1</clus>
</clustering>
</event>
<event>
 6    0  0.8777103E+002  0.1342809E+03  0.7546771E-02  0.1221238E+00
         21   -1    0    0  504  501  0.00000000000E+00  0.00000000000E+00  0.21132571647E+04  0.21132571647E+04  0.00000000000E+00 0. -1.
         21   -1    0    0  506  502 -0.00000000000E+00 -0.00000000000E+00 -0.31146152802E+03  0.31146152802E+03  0.00000000000E+00 0.  1.
         21    1    1    2  503  501  0.27836946250E+02  0.24054759225E+02  0.16658505329E+04  0.16662567404E+04  0.00000000000E+00 0. -1.
         21    1    1    2  504  505  0.57707888356E+01 -0.32405502934E+02  0.49593791323E+02  0.59522791954E+02  0.00000000000E+00 0.  1.
         21    1    1    2  505  502 -0.65433615087E+02 -0.11765680703E+03 -0.27974715985E+03  0.31045636677E+03  0.00000000000E+00 0.  1.
         21    1    1    2  506  503  0.31825880002E+02  0.12600755074E+03  0.36609847228E+03  0.38848279355E+03  0.00000000000E+00 0.  1.
<scales pt_clust_3="32.57946" pt_clust_4="32.91533" pt_clust_5="134.28093" pt_clust_6="14000.00000"></scales>
<clustering>
<clus scale="   32.915">  1  4  2 -1</clus>
<clus scale="   32.579">  1  3  2 -1</clus>
<clus scale="  134.281">  2  5  1 -1</clus>
<clus scale="   32.915">  1  3  2 -1</clus>
</clustering>
</event>
<event>
 6    0  0.8777103E+002  0.1266097E+03  0.7546771E-02  0.1232575E+00
         21   -1    0    0  504  501  0.00000000000E+00  0.00000000000E+00  0.11281318882E+04  0.11281318882E+04  0.00000000000E+00 0.  1.
         21   -1    0    0  505  502 -0.00000000000E+00 -0.00000000000E+00 -0.59647584837E+02  0.59647584837E+02  0.00000000000E+00 0. -1.
         21    1    1    2  503  506 -0.49706025988E+02 -0.14013083981E+02 -0.14200835680E+02  0.53560426400E+02  0.00000000000E+00 0. -1.
         21    1    1    2  504  503 -0.47839637687E+02  0.91380791190E+02  0.23005912804E+03  0.25212354576E+03  0.00000000000E+00 0. -1.
         21    1    1    2  505  501  0.12966599339E+03 -0.71178297110E+02  0.82811015159E+03  0.84121700113E+03  0.00000000000E+00 0.  1.
         21    1    1    2  506  502 -0.32120329710E+02 -0.61894100987E+01  0.24515859387E+02  0.40878499722E+02  0.00000000000E+00 0.  1.
<scales pt_clust_3="73.12344" pt_clust_4="126.60969" pt_clust_5="14000.00000" pt_clust_6="32.71123"></scales>
<clustering>
<clus scale="   32.711">  2  6  1 -1</clus>
<clus scale="   73.123">  2  3  1 -1</clus>
<clus scale="  126.610">  2  4  1 -1</clus>
<clus scale="  126.610">  1  3  2 -1</clus>
</clustering>
</event>
<event>
 6    0  0.8777103E+002  0.1324731E+03  0.7546771E-02  0.1223832E+00
         21   -1    0    0  503  501  0.00000000000E+00  0.00000000000E+00  0.57082777260E+03  0.57082777260E+03  0.00000000000E+00 0. -1.
         21   -1    0    0  505  502 -0.00000000000E+00 -0.00000000000E+00 -0.25508876625E+03  0.25508876625E+03  0.00000000000E+00 0. -1.
         21    1    1    2  503  502 -0.73665983059E+02 -0.51255999890E+02  0.17151447138E+03  0.19357445203E+03  0.00000000000E+00 0. -1.
         21    1    1    2  504  506  0.17381279489E+02 -0.98246983310E+02  0.11682790973E+03  0.15363378241E+03  0.00000000000E+00 0. -1.
         21    1    1    2  505  504 -0.27952572831E+01 -0.31237295984E+02 -0.18845474253E+03  0.19104651817E+03  0.00000000000E+00 0. -1.
         21    1    1    2  506  501  0.59079960853E+02  0.18074027918E+03  0.21585136777E+03  0.28766178624E+03  0.00000000000E+00 0. -1.
<scales pt_clust_3="93.23081" pt_clust_4="132.47308" pt_clust_5="31.36211" pt_clust_6="14000.00000"></scales>
<clustering>
<clus scale="   31.362">  2  5  1 -1</clus>
<clus scale="   93.231">  1  3  2 -1</clus>
<clus scale="  132.473">  2  4  1 -1</clus>
<clus scale="   93.231">  1  3  2 -1</clus>
</clustering>
</event>
<event>
 6    0  0.8777103E+002  0.1062529E+03  0.7546771E-02  0.1267671E+00
         21   -1    0    0  503  501  0.00000000000E+00  0.00000000000E+00  0.11328609254E+03  0.11328609254E+03  0.00000000000E+00 0. -1.
         21   -1    0    0  504  502 -0.00000000000E+00 -0.00000000000E+00 -0.59415245696E+03  0.59415245696E+03  0.00000000000E+00 0. -1.
         21    1    1    2  503  506  0.63799709564E+01  0.30668853661E+02  0.76236325244E+00  0.31334706190E+02  0.00000000000E+00 0.  1.
         21    1    1    2  504  505 -0.33715397665E+02 -0.20002543142E+02 -0.28233614129E+03  0.28504477973E+03  0.00000000000E+00 0. -1.
         21    1    1    2  505  501 -0.77165751212E+02  0.50317567137E+02  0.56518140085E+02  0.10807733750E+03  0.00000000000E+00 0. -1.
         21    1    1    2  506  502  0.10450117792E+03 -0.60983877657E+02 -0.25581072647E+03  0.28298172608E+03  0.00000000000E+00 0. -1.
<scales pt_clust_3="31.32543" pt_clust_4="38.90938" pt_clust_5="14000.00000" pt_clust_6="106.25292"></scales>
<clustering>
<clus scale="   31.325">  1  3  2 -1</clus>
<clus scale="   38.909">  2  4  1 -1</clus>
<clus scale="  106.253">  2  6  1 -1</clus>
<clus scale="   31.325">  1  3  2 -1</clus>
</clustering>
</event>
<event>
 6    0  0.8777103E+002  0.9503996E+02  0.7546771E-02  0.1291086E+00
         21   -1    0    0  506  501  0.00000000000E+00  0.00000000000E+00  0.23113545329E+03  0.23113545329E+03  0.00000000000E+00 0. -1.
         21   -1    0    0  504  502 -0.00000000000E+00 -0.00000000000E+00 -0.11143282077E+04  0.11143282077E+04  0.00000000000E+00 0. -1.
         21    1    1    2  503  502 -0.50233110189E+01 -0.34250725683E+02 -0.97518488877E+03  0.97579911516E+03  0.00000000000E+00 0. -1.
         21    1    1    2  504  505  0.29074850660E+02 -0.45822728992E+02 -0.14801537844E+02  0.56250821823E+02  0.00000000000E+00 0. -1.
         21    1    1    2  505  501  0.67582759420E+02  0.73916744109E+02  0.17320451312E+03  0.20007727956E+03  0.00000000000E+00 0. -1.
         21    1    1    2  506  503 -0.91634299061E+02  0.61567105666E+01 -0.66410840920E+02  0.11333644445E+03  0.00000000000E+00 0. -1.
<scales pt_clust_3="34.61713" pt_clust_4="61.25352" pt_clust_5="14000.00000" pt_clust_6="95.03996"></scales>
<clustering>
<clus scale="   34.617">  2  3  1 -1</clus>
<clus scale="   61.254">  2  4  1 -1</clus>
<clus scale="   95.040">  2  6  1 -1</clus>
<clus scale="   95.040">  1  3  2 -1</clus>
</clustering>
</event>
<event>
 6    0  0.8777103E+002  0.9555730E+02  0.7546771E-02  0.1289926E+00
         21   -1    0    0  504  501  0.00000000000E+00  0.00000000000E+00  0.17822474419E+04  0.17822474419E+04  0.00000000000E+00 0.  1.
         21   -1    0    0  505  502 -0.00000000000E+00 -0.00000000000E+00 -0.82953726871E+02  0.82953726871E+02  0.00000000000E+00 0.  1.
         21    1    1    2  503  502 -0.33458370653E+02 -0.92801378779E+01 -0.45481265834E+02  0.57220005834E+02  0.00000000000E+00 0.  1.
         21    1    1    2  504  506  0.85785061270E+01 -0.43300951989E+02  0.25398937558E+03  0.25779675351E+03  0.00000000000E+00 0.  1.
         21    1    1    2  505  501  0.48996321948E+02  0.12213207931E+03  0.14669029881E+04  0.14727936926E+04  0.00000000000E+00 0.  1.
         21    1    1    2  506  503 -0.24116457422E+02 -0.69550989442E+02  0.23882617157E+02  0.77390716841E+02  0.00000000000E+00 0.  1.
<scales pt_clust_3="34.72151" pt_clust_4="44.34828" pt_clust_5="14000.00000" pt_clust_6="95.55730"></scales>
<clustering>
<clus scale="   34.722">  2  3  1 -1</clus>
<clus scale="   44.348">  1  4  2 -1</clus>
<clus scale="   95.557">  2  6  1 -1</clus>
<clus scale="   44.348">  1  3  2 -1</clus>
</clustering>
</event>
<event>
 6    0  0.8777103E+002  0.1064019E+03  0.7546771E-02  0.1267382E+00
         21   -1    0    0  506  501  0.00000000000E+00  0.00000000000E+00  0.10092806632E+04  0.10092806632E+04  0.00000000000E+00 0. -1.
         21   -1    0    0  503  502 -0.00000000000E+00 -0.00000000000E+00 -0.10126616098E+04  0.10126616098E+04  0.00000000000E+00 0.  1.
         21    1    1    2  503  504  0.15552134248E+02  0.60805832595E+02  0.41959145702E+02  0.75496940768E+02  0.00000000000E+00 0. -1.
         21    1    1    2  504  501  0.38089182552E+02 -0.91451967964E+01  0.93521968369E+03  0.93603967716E+03  0.00000000000E+00 0. -1.
         21    1    1    2  505  502  0.74947529218E+02  0.39526955636E+02 -0.39597925757E+03  0.40494331058E+03  0.00000000000E+00 0.  1.
         21    1    1    2  506  505 -0.12858884602E+03 -0.91187591435E+02 -0.58458051843E+03  0.60546234456E+03  0.00000000000E+00 0.  1.
<scales pt_clust_3="70.51739" pt_clust_4="39.17168" pt_clust_5="14000.00000" pt_clust_6="106.40189"></scales>
<clustering>
<clus scale="   39.172">  1  4  2 -1</clus>
<clus scale="   70.517">  1  3  2 -1</clus>
<clus scale="  106.402">  1  6  2 -1</clus>
<clus scale="   39.172">  1  3  2 -1</clus>
</clustering>
</event>
<event>
 6    0  0.8777103E+002  0.1265372E+03  0.7546771E-02  0.1232686E+00
         21   -1    0    0  503  501  0.00000000000E+00  0.00000000000E+00  0.12855750268E+04  0.12855750268E+04  0.00000000000E+00 0.  1.
         21   -1    0    0  505  502 -0.00000000000E+00 -0.00000000000E+00 -0.58985736921E+02  0.58985736921E+02  0.00000000000E+00 0. -1.
         21    1    1    2  503  504 -0.82137463684E+02 -0.23995808303E+02  0.19243588228E+03  0.21060372871E+03  0.00000000000E+00 0. -1.
         21    1    1    2  504  506  0.44978950394E+02  0.70359715186E+02  0.40405533987E+02  0.92769621517E+02  0.00000000000E+00 0. -1.
         21    1    1    2  505  501 -0.15906992764E+02 -0.50120209413E+02  0.98603125234E+03  0.98743237662E+03  0.00000000000E+00 0.  1.
         21    1    1    2  506  502  0.53065506054E+02  0.37563025303E+01  0.77166212283E+01  0.53755036830E+02  0.00000000000E+00 0. -1.
<scales pt_clust_3="109.37928" pt_clust_4="50.78039" pt_clust_5="52.58391" pt_clust_6="50.78039"></scales>
<clustering>
<clus scale="   50.780">  4  6 -1 -1</clus>
<clus scale="   52.584">  1  5  2 -1</clus>
<clus scale="  109.379">  1  3  2 -1</clus>
<clus scale="   52.584">  1  3  2 -1</clus>
</clustering>
</event>
<event>
 6    0  0.8777103E+002  0.1801608E+03  0.7546771E-02  0.1167648E+00
         21   -1    0    0  506  501  0.00000000000E+00  0.00000000000E+00  0.76673229148E+02  0.76673229148E+02  0.00000000000E+00 0. -1.
         21   -1    0    0  505  502 -0.00000000000E+00 -0.00000000000E+00 -0.99239684855E+03  0.99239684855E+03  0.00000000000E+00 0. -1.
         21    1    1    2  503  501 -0.32068928303E+02 -0.79909826521E+00  0.16671049833E+01  0.32122172398E+02  0.00000000000E+00 0. -1.
         21    1    1    2  504  502 -0.92178237456E+01 -0.29909152218E+02 -0.41625800278E+03  0.41743292939E+03  0.00000000000E+00 0. -1.
         21    1    1    2  505  503  0.15595291839E+03 -0.10145277468E+03 -0.29914978869E+03  0.35228479149E+03  0.00000000000E+00 0. -1.
         21    1    1    2  506  504 -0.11466616634E+03  0.13216102516E+03 -0.20198293292E+03  0.26723018442E+03  0.00000000000E+00 0. -1.
<scales pt_clust_3="32.35192" pt_clust_4="31.29737" pt_clust_5="14000.00000" pt_clust_6="180.16075"></scales>
<clustering>
<clus scale="   31.297">  2  4  1 -1</clus>
<clus scale="   32.352">  1  3  2 -1</clus>
<clus scale="  180.161">  1  6  2 -1</clus>
<clus scale="   32.352">  1  3  2 -1</clus>
</clustering>
</event>
<event>
 6    0  0.8777103E+002  0.1564484E+03  0.7546771E-02  0.1192766E+00
         21   -1    0    0  504  501  0.00000000000E+00  0.00000000000E+00  0.33871918323E+03  0.33871918323E+03  0.00000000000E+00 0.  1.
         21   -1    0    0  506  502 -0.00000000000E+00 -0.00000000000E+00 -0.44241041652E+03  0.44241041652E+03  0.00000000000E+00 0.  1.
         21    1    1    2  503  505  0.10949495583E+03 -0.12699940400E+03  0.23652143340E+03  0.28993168579E+03  0.00000000000E+00 0.  1.
         21    1    1    2  504  502  0.30042770174E+02  0.78132415026E+01 -0.52158143532E+02  0.60696677992E+02  0.00000000000E+00 0.  1.
         21    1    1    2  505  501 -0.49787727748E+02 -0.16654489218E+02  0.38840513725E+02  0.65305247506E+02  0.00000000000E+00 0.  1.
         21    1    1    2  506  503 -0.89749998255E+02  0.13584065172E+03 -0.32689503688E+03  0.36519598845E+03  0.00000000000E+00 0.  1.
<scales pt_clust_3="156.44842" pt_clust_4="31.04215" pt_clust_5="51.43777" pt_clust_6="14000.00000"></scales>
<clustering>
<clus scale="   31.042">  2  4  1 -1</clus>
<clus scale="   51.438">  1  5  2 -1</clus>
<clus scale="  156.448">  1  3  2 -1</clus>
<clus scale="   51.438">  1  3  2 -1</clus>
</clustering>
</event>
<event>
 6    0  0.8777103E+002  0.9254372E+02  0.7546771E-02  0.1296806E+00
         21   -1    0    0  503  501  0.00000000000E+00  0.00000000000E+00  0.72266568068E+03  0.72266568068E+03  0.00000000000E+00 0.  1.
         21   -1    0    0  505  502 -0.00000000000E+00 -0.00000000000E+00 -0.78854590054E+02  0.78854590054E+02  0.00000000000E+00 0.  1.
         21    1    1    2  503  506 -0.52181745724E+02 -0.89377612644E+01  0.46674015996E+03  0.46973311048E+03  0.00000000000E+00 0.  1.
         21    1    1    2  504  502  0.37185802051E+02 -0.34382404135E+02 -0.19194515020E+02  0.54160529865E+02  0.00000000000E+00 0.  1.
         21    1    1    2  505  501  0.84724101460E+02  0.34418155284E+02  0.28590865795E+02  0.95813466634E+02  0.00000000000E+00 0.  1.
         21    1    1    2  506  504 -0.69728157788E+02  0.89020101156E+01  0.16767457990E+03  0.18181316376E+03  0.00000000000E+00 0.  1.
<scales pt_clust_3="51.86674" pt_clust_4="50.64517" pt_clust_5="14000.00000" pt_clust_6="92.54372"></scales>
<clustering>
<clus scale="   50.645">  2  4  1 -1</clus>
<clus scale="   51.867">  1  3  2 -1</clus>
<clus scale="   92.544">  1  6  2 -1</clus>
<clus scale="   51.867">  1  3  2 -1</clus>
</clustering>
</event>
<event>
 6    0  0.8777103E+002  0.1053491E+03  0.7546771E-02  0.1269433E+00
         21   -1    0    0  506  501  0.00000000000E+00  0.00000000000E+00  0.79487934228E+03  0.79487934228E+03  0.00000000000E+00 0.  1.
         21   -1    0    0  504  502 -0.00000000000E+00 -0.00000000000E+00 -0.23657587936E+03  0.23657587936E+03  0.00000000000E+00 0. -1.
         21    1    1    2  503  502 -0.10602133189E+02  0.54621234715E+02 -0.19008256149E+03  0.19805874051E+03  0.00000000000E+00 0. -1.
         21    1    1    2  504  501 -0.31421897458E+01  0.10643078458E+03  0.57785487509E+03  0.58758288090E+03  0.00000000000E+00 0.  1.
         21    1    1    2  505  503  0.14827024662E+02 -0.59268721129E+02  0.20364873558E+02  0.64399922667E+02  0.00000000000E+00 0. -1.
         21    1    1    2  506  505 -0.10827017273E+01 -0.10178329816E+03  0.15016627577E+03  0.18141367756E+03  0.00000000000E+00 0. -1.
<scales pt_clust_3="55.64067" pt_clust_4="14000.00000" pt_clust_5="32.35129" pt_clust_6="105.34914"></scales>
<clustering>
<clus scale="   55.641">  2  3  1 -1</clus>
<clus scale="   32.351">  2  5  1 -1</clus>
<clus scale="  105.349">  2  6  1 -1</clus>
<clus scale="  105.349">  1  3  2 -1</clus>
</clustering>
</event>
<event>
 6    0  0.8777103E+002  0.9752516E+02  0.7546771E-02  0.1285588E+00
         21   -1    0    0  504  501  0.00000000000E+00  0.00000000000E+00  0.30837084204E+03  0.30837084204E+03  0.00000000000E+00 0.  1.
         21   -1    0    0  503  502 -0.00000000000E+00 -0.00000000000E+00 -0.69020378356E+03  0.69020378356E+03  0.00000000000E+00 0.  1.
         21    1    1    2  503  501 -0.30105790761E+02 -0.88450594746E+02 -0.89632296443E+02  0.12947515172E+03  0.00000000000E+00 0.  1.
         21    1    1    2  504  506  0.79131712325E+02 -0.56572911106E+02  0.25967887642E+03  0.27730027231E+03  0.00000000000E+00 0.  1.
         21    1    1    2  505  502 -0.61386926225E+01  0.29537477529E+02 -0.37520155555E+03  0.37641247776E+03  0.00000000000E+00 0.  1.
         21    1    1    2  506  505 -0.42887228942E+02  0.11548602832E+03 -0.17667796594E+03  0.21538672380E+03  0.00000000000E+00 0.  1.
<scales pt_clust_3="84.54829" pt_clust_4="14000.00000" pt_clust_5="30.16863" pt_clust_6="97.52516"></scales>
<clustering>
<clus scale="   30.169">  2  5  1 -1</clus>
<clus scale="   84.548">  2  3  1 -1</clus>
<clus scale="   97.525">  2  6  1 -1</clus>
<clus scale="   97.525">  1  3  2 -1</clus>
</clustering>
</event>
<event>
 6    0  0.8777103E+002  0.8466187E+02  0.7546771E-02  0.1316319E+00
         21   -1    0    0  506  501  0.00000000000E+00  0.00000000000E+00  0.95186850288E+03  0.95186850288E+03  0.00000000000E+00 0.  1.
         21   -1    0    0  503  502 -0.00000000000E+00 -0.00000000000E+00 -0.44566719272E+02  0.44566719272E+02  0.00000000000E+00 0. -1.
         21    1    1    2  503  505 -0.51974731699E+01  0.31827755425E+02  0.22436268025E+02  0.39286204521E+02  0.00000000000E+00 0. -1.
         21    1    1    2  504  501 -0.52191549518E+02  0.34156454382E+02  0.38154227695E+03  0.38660720417E+03  0.00000000000E+00 0.  1.
         21    1    1    2  505  504  0.34552325813E+02 -0.11517966535E+03  0.81548561471E+02  0.14529413755E+03  0.00000000000E+00 0. -1.
         21    1    1    2  506  502  0.22836696875E+02  0.49195455541E+02  0.42177467716E+03  0.42524767591E+03  0.00000000000E+00 0.  1.
<scales pt_clust_3="32.24934" pt_clust_4="14000.00000" pt_clust_5="84.66187" pt_clust_6="55.52625"></scales>
<clustering>
<clus scale="   32.249">  2  3  1 -1</clus>
<clus scale="   55.526">  1  6  2 -1</clus>
<clus scale="   84.662">  2  5  1 -1</clus>
<clus scale="   55.526">  1  3  2 -1</clus>
</clustering>
</event>
<event>
 6    0  0.8777103E+002  0.7412493E+02  0.7546771E-02  0.1346602E+00
         21   -1    0    0  504  501  0.00000000000E+00  0.00000000000E+00  0.90169959150E+03  0.90169959150E+03  0.00000000000E+00 0. -1.
         21   -1    0    0  503  502 -0.00000000000E+00 -0.00000000000E+00 -0.69797314900E+03  0.69797314900E+03  0.00000000000E+00 0. -1.
         21    1    1    2  503  505  0.79549625023E+02  0.44477337664E+01 -0.33140638125E+03  0.34084910842E+03  0.00000000000E+00 0. -1.
         21    1    1    2  504  506  0.33438366258E+02  0.17135779672E+02  0.63521895245E+03  0.63632922047E+03  0.00000000000E+00 0. -1.
         21    1    1    2  505  501 -0.94495516863E+02 -0.57856631175E+02  0.24821454629E+03  0.27182209893E+03  0.00000000000E+00 0. -1.
         21    1    1    2  506  502 -0.18492474418E+02  0.36273117737E+02 -0.34830067498E+03  0.35067231267E+03  0.00000000000E+00 0. -1.
<scales pt_clust_3="74.12493" pt_clust_4="37.57339" pt_clust_5="14000.00000" pt_clust_6="40.71569"></scales>
<clustering>
<clus scale="   37.573">  1  4  2 -1</clus>
<clus scale="   40.716">  2  6  1 -1</clus>
<clus scale="   74.125">  2  3  1 -1</clus>
<clus scale="   37.573">  1  3  2 -1</clus>
</clustering>
</event>
<event>
 6    0  0.8777103E+002  0.9736915E+02  0.7546771E-02  0.1285928E+00
         21   -1    0    0  506  501  0.00000000000E+00  0.00000000000E+00  0.35896232706E+03  0.35896232706E+03  0.00000000000E+00 0. -1.
         21   -1    0    0  504  502 -0.00000000000E+00 -0.00000000000E+00 -0.42096744392E+03  0.42096744392E+03  0.00000000000E+00 0. -1.
         21    1    1    2  503  501 -0.14498795129E+02  0.30580260086E+02  0.83747853413E+02  0.90327572305E+02  0.00000000000E+00 0. -1.
         21    1    1    2  504  503  0.59048520398E+02 -0.12515977012E+03  0.21040396582E+03  0.25183630526E+03  0.00000000000E+00 0. -1.
         21    1    1    2  505  502 -0.88216474423E+02  0.40564980506E+02 -0.35527343885E+03  0.36830270208E+03  0.00000000000E+00 0. -1.
         21    1    1    2  506  505  0.43666749154E+02  0.54014529529E+02 -0.88349724029E+00  0.69463191327E+02  0.00000000000E+00 0. -1.
<scales pt_clust_3="33.84328" pt_clust_4="97.36915" pt_clust_5="14000.00000" pt_clust_6="71.41061"></scales>
<clustering>
<clus scale="   33.843">  1  3  2 -1</clus>
<clus scale="   71.411">  1  6  2 -1</clus>
<clus scale="   97.369">  1  4  2 -1</clus>
<clus scale="   33.843">  1  3  2 -1</clus>
</clustering>
</event>
<event>
 6    0  0.8777103E+002  0.9125459E+02  0.7546771E-02  0.1299842E+00
         21   -1    0    0  504  501  0.00000000000E+00  0.00000000000E+00  0.36833621758E+03  0.36833621758E+03  0.00000000000E+00 0.  1.
         21   -1    0    0  505  502 -0.00000000000E+00 -0.00000000000E+00 -0.11908504266E+03  0.11908504266E+03  0.00000000000E+00 0.  1.
         21    1    1    2  503  501  0.88436487861E+02  0.97000072412E+01  0.23544903389E+03  0.25169694095E+03  0.00000000000E+00 0.  1.
         21    1    1    2  504  502 -0.95089087406E+02 -0.74200296875E+02  0.20109584981E+02  0.12227842822E+03  0.00000000000E+00 0.  1.
         21    1    1    2  505  506  0.30163407837E+02  0.15103584340E+02 -0.37525413200E+02  0.50458954290E+02  0.00000000000E+00 0.  1.
         21    1    1    2  506  503 -0.23510808292E+02  0.49396705294E+02  0.31217969252E+02  0.62986936778E+02  0.00000000000E+00 0.  1.
<scales pt_clust_3="14000.00000" pt_clust_4="91.25459" pt_clust_5="33.73351" pt_clust_6="55.31114"></scales>
<clustering>
<clus scale="   33.734">  2  5  1 -1</clus>
<clus scale="   55.311">  2  6  1 -1</clus>
<clus scale="   91.255">  2  4  1 -1</clus>
<clus scale="   91.255">  1  3  2 -1</clus>
</clustering>
</event>
<event>
 6    0  0.8777103E+002  0.1880648E+03  0.7546771E-02  0.1160218E+00
         21   -1    0    0  506  501  0.00000000000E+00  0.00000000000E+00  0.61552749862E+03  0.61552749862E+03  0.00000000000E+00 0.  1.
         21   -1    0    0  505  502 -0.00000000000E+00 -0.00000000000E+00 -0.19834475508E+03  0.19834475508E+03  0.00000000000E+00 0. -1.
         21    1    1    2  503  502  0.10417375161E+03  0.16752508887E+03 -0.12887422076E+01  0.19727768952E+03  0.00000000000E+00 0. -1.
         21    1    1    2  504  503  0.52121603340E+01 -0.18371695932E+03  0.92451900122E+02  0.20573390969E+03  0.00000000000E+00 0.  1.
         21    1    1    2  505  501 -0.55447018151E+02  0.58406214931E+02  0.29260764877E+01  0.80586721536E+02  0.00000000000E+00 0.  1.
         21    1    1    2  506  504 -0.53938893793E+02 -0.42214344475E+02  0.32309350914E+03  0.33027393296E+03  0.00000000000E+00 0.  1.
<scales pt_clust_3="188.06481" pt_clust_4="14000.00000" pt_clust_5="82.07036" pt_clust_6="68.49420"></scales>
<clustering>
<clus scale="   68.494">  1  6  2 -1</clus>
<clus scale="   82.070">  2  5  1 -1</clus>
<clus scale="  188.065">  2  3  1 -1</clus>
<clus scale="   68.494">  1  3  2 -1</clus>
</clustering>
</event>
<event>
 6    0  0.8777103E+002  0.1949656E+03  0.7546771E-02  0.1154057E+00
         21   -1    0    0  503  501  0.00000000000E+00  0.00000000000E+00  0.50112044391E+03  0.50112044391E+03  0.00000000000E+00 0. -1.
         21   -1    0    0  506  502 -0.00000000000E+00 -0.00000000000E+00 -0.23348450007E+04  0.23348450007E+04  0.00000000000E+00 0. -1.
         21    1    1    2  503  504 -0.16013697184E+03 -0.12819001990E+03  0.41547688882E+03  0.46335469793E+03  0.00000000000E+00 0. -1.
         21    1    1    2  504  505  0.10140704055E+02  0.11481003506E+03 -0.27645237239E+03  0.29951643065E+03  0.00000000000E+00 0. -1.
         21    1    1    2  505  502  0.77884370635E+01 -0.40726450749E+02 -0.19068211516E+04  0.19072719281E+04  0.00000000000E+00 0. -1.
         21    1    1    2  506  501  0.14220783072E+03  0.54106435593E+02 -0.65927921626E+02  0.16582238794E+03  0.00000000000E+00 0. -1.
<scales pt_clust_3="14000.00000" pt_clust_4="88.73754" pt_clust_5="41.46449" pt_clust_6="194.96564"></scales>
<clustering>
<clus scale="   41.464">  2  5  1 -1</clus>
<clus scale="   88.738">  2  4  1 -1</clus>
<clus scale="  194.966">  2  6  1 -1</clus>
<clus scale="  194.966">  1  3  2 -1</clus>
</clustering>
</event>
<event>
 6    0  0.8777103E+002  0.1287011E+03  0.7546771E-02  0.1229396E+00
         21   -1    0    0  505  501  0.00000000000E+00  0.00000000000E+00  0.79121539656E+03  0.79121539656E+03  0.00000000000E+00 0. -1.
         21   -1    0    0  506  502 -0.00000000000E+00 -0.00000000000E+00 -0.28587465641E+03  0.28587465641E+03  0.00000000000E+00 0.  1.
         21    1    1    2  503  502 -0.13809846222E+01  0.31827435114E+02 -0.16215795686E+03  0.16525766463E+03  0.00000000000E+00 0.  1.
         21    1    1    2  504  503 -0.60253933108E+02  0.26214267149E+02 -0.81358494618E+02  0.10457977292E+03  0.00000000000E+00 0.  1.
         21    1    1    2  505  504  0.59230840140E+02 -0.11998242233E+03  0.73042937540E+03  0.74258410065E+03  0.00000000000E+00 0. -1.
         21    1    1    2  506  501  0.24040775903E+01  0.61940720064E+02  0.18427816231E+02  0.64668514767E+02  0.00000000000E+00 0.  1.
<scales pt_clust_3="31.85738" pt_clust_4="14000.00000" pt_clust_5="128.70113" pt_clust_6="67.99790"></scales>
<clustering>
<clus scale="   31.857">  2  3  1 -1</clus>
<clus scale="   67.998">  2  6  1 -1</clus>
<clus scale="  128.701">  1  5  2 -1</clus>
<clus scale="  128.701">  1  3  2 -1</clus>
</clustering>
</event>
<event>
 6    0  0.8777103E+002  0.1045470E+03  0.7546771E-02  0.1271015E+00
         21   -1    0    0  505  501  0.00000000000E+00  0.00000000000E+00  0.28385462425E+03  0.28385462425E+03  0.00000000000E+00 0. -1.
         21   -1    0    0  503  502 -0.00000000000E+00 -0.00000000000E+00 -0.16286258296E+04  0.16286258296E+04  0.00000000000E+00 0.  1.
         21    1    1    2  503  506 -0.45324647550E+02 -0.10652381949E+03 -0.13415648119E+04  0.13465503304E+04  0.00000000000E+00 0.  1.
         21    1    1    2  504  502  0.36798354857E+02  0.67198208180E+02 -0.22767842783E+03  0.24022319747E+03  0.00000000000E+00 0.  1.
         21    1    1    2  505  504  0.29932686876E+02  0.64726238917E+02 -0.23833238009E+02  0.75189593574E+02  0.00000000000E+00 0. -1.
         21    1    1    2  506  501 -0.21406394184E+02 -0.25400627610E+02  0.24830527233E+03  0.25051733246E+03  0.00000000000E+00 0. -1.
<scales pt_clust_3="104.54701" pt_clust_4="14000.00000" pt_clust_5="47.87433" pt_clust_6="33.21785"></scales>
<clustering>
<clus scale="   33.218">  1  6  2 -1</clus>
<clus scale="   47.874">  1  5  2 -1</clus>
<clus scale="  104.547">  2  3  1 -1</clus>
<clus scale="   33.218">  1  3  2 -1</clus>
</clustering>
</event>
<event>
 6    0  0.8777103E+002  0.1763374E+03  0.7546771E-02  0.1171396E+00
         21   -1    0    0  502  501  0.00000000000E+00  0.00000000000E+00  0.58839067726E+03  0.58839067726E+03  0.00000000000E+00 0. -1.
         21   -1    0    0  503  502 -0.00000000000E+00 -0.00000000000E+00 -0.78298182165E+03  0.78298182165E+03  0.00000000000E+00 0. -1.
         21    1    1    2  503  505 -0.21642186863E+02  0.59020300430E+02 -0.66577388413E+03  0.66873510818E+03  0.00000000000E+00 0. -1.
         21    1    1    2  504  501 -0.15095115053E+02 -0.31829797526E+02  0.25922643111E+03  0.26160913802E+03  0.00000000000E+00 0.  1.
         21    1    1    2  505  506  0.11994221305E+03 -0.17305031672E+03  0.72300226567E+02  0.22262046031E+03  0.00000000000E+00 0. -1.
         21    1    1    2  506  504 -0.83204911130E+02  0.14585981382E+03  0.13965608207E+03  0.21840779240E+03  0.00000000000E+00 0. -1.
<scales pt_clust_3="62.75184" pt_clust_4="35.22781" pt_clust_5="14000.00000" pt_clust_6="176.33743"></scales>
<clustering>
<clus scale="   35.228">  1  4  2 -1</clus>
<clus scale="   62.752">  2  3  1 -1</clus>
<clus scale="  176.337">  1  6  2 -1</clus>
<clus scale="   35.228">  1  3  2 -1</clus>
</clustering>
</event>
