<event>
 4    0  0.2270578E-002  0.2449495E+03  0.7546771E-02  0.1116539E+00
         21   -1    0    0  502  501  0.00000000000E+00  0.00000000000E+00  0.50576273913E+03  0.50576273913E+03  0.00000000000E+00 0. -1.
         21   -1    0    0  501  502 -0.00000000000E+00 -0.00000000000E+00 -0.11863317875E+03  0.11863317875E+03  0.00000000000E+00 0. -1.
         25    1    1    2    0    0 -0.49081333766E+02 -0.17752714399E+03  0.63272241886E+02  0.23141573147E+03  0.12500000000E+03 0.  0.
         25    1    1    2    0    0  0.49081333766E+02  0.17752714399E+03  0.32385731849E+03  0.39298018642E+03  0.12500000000E+03 0.  0.
</event>
<event>
 4    0  0.2270578E-002  0.1529054E+03  0.7546771E-02  0.1196948E+00
         21   -1    0    0  502  501  0.00000000000E+00  0.00000000000E+00  0.99646923420E+03  0.99646923420E+03  0.00000000000E+00 0.  1.
         21   -1    0    0  501  502 -0.00000000000E+00 -0.00000000000E+00 -0.23462914933E+02  0.23462914933E+02  0.00000000000E+00 0.  1.
         25    1    1    2    0    0 -0.76916409512E+02  0.16351894428E+02  0.35428744980E+03  0.38383344772E+03  0.12500000000E+03 0.  0.
         25    1    1    2    0    0  0.76916409512E+02 -0.16351894428E+02  0.61871886947E+03  0.63609870141E+03  0.12500000000E+03 0.  0.
</event>
<event>
 4    0  0.2270578E-002  0.3752775E+03  0.7546771E-02  0.1052693E+00
         21   -1    0    0  502  501  0.00000000000E+00  0.00000000000E+00  0.23155017925E+03  0.23155017925E+03  0.00000000000E+00 0. -1.
         21   -1    0    0  501  502 -0.00000000000E+00 -0.00000000000E+00 -0.60821906015E+03  0.60821906015E+03  0.00000000000E+00 0. -1.
         25    1    1    2    0    0 -0.98277213833E+02 -0.10887965086E+03 -0.54862791106E+03  0.58149013226E+03  0.12500000000E+03 0.  0.
         25    1    1    2    0    0  0.98277213833E+02  0.10887965086E+03  0.17195903015E+03  0.25827910713E+03  0.12500000000E+03 0.  0.
</event>
<event>
 4    0  0.2270578E-002  0.2062955E+03  0.7546771E-02  0.1144534E+00
         21   -1    0    0  502  501  0.00000000000E+00  0.00000000000E+00  0.14504881192E+04  0.14504881192E+04  0.00000000000E+00 0. -1.
         21   -1    0    0  501  502 -0.00000000000E+00 -0.00000000000E+00 -0.29340360681E+02  0.29340360681E+02  0.00000000000E+00 0. -1.
         25    1    1    2    0    0  0.54385565596E+01 -0.73818570199E+02  0.18522649314E+03  0.23539883807E+03  0.12500000000E+03 0.  0.
         25    1    1    2    0    0 -0.54385565596E+01  0.73818570199E+02  0.12359212654E+04  0.12444296418E+04  0.12500000000E+03 0.  0.
</event>
<event>
 4    0  0.2270578E-002  0.1620331E+03  0.7546771E-02  0.1186420E+00
         21   -1    0    0  502  501  0.00000000000E+00  0.00000000000E+00  0.30348141715E+02  0.30348141715E+02  0.00000000000E+00 0.  1.
         21   -1    0    0  501  502 -0.00000000000E+00 -0.00000000000E+00 -0.86511774532E+03  0.86511774532E+03  0.00000000000E+00 0.  1.
         25    1    1    2    0    0 -0.69265803573E+02  0.59178489579E+02 -0.28400769145E+03  0.32339637285E+03  0.12500000000E+03 0.  0.
         25    1    1    2    0    0  0.69265803573E+02 -0.59178489579E+02 -0.55076191216E+03  0.57206951419E+03  0.12500000000E+03 0.  0.
</event>
<event>
 4    0  0.2270578E-002  0.1880125E+03  0.7546771E-02  0.1160266E+00
         21   -1    0    0  502  501  0.00000000000E+00  0.00000000000E+00  0.69431236730E+02  0.69431236730E+02  0.00000000000E+00 0.  1.
         21   -1    0    0  501  502 -0.00000000000E+00 -0.00000000000E+00 -0.50911837784E+03  0.50911837784E+03  0.00000000000E+00 0.  1.
         25    1    1    2    0    0 -0.46251928510E+02 -0.43990853932E+02 -0.41231709126E+03  0.43555116791E+03  0.12500000000E+03 0.  0.
         25    1    1    2    0    0  0.46251928510E+02  0.43990853932E+02 -0.27370049856E+02  0.14299844667E+03  0.12500000000E+03 0.  0.
</event>
<event>
 4    0  0.2270578E-002  0.1963776E+03  0.7546771E-02  0.1152832E+00
         21   -1    0    0  502  501  0.00000000000E+00  0.00000000000E+00  0.69535353265E+02  0.69535353265E+02  0.00000000000E+00 0. -1.
         21   -1    0    0  501  502 -0.00000000000E+00 -0.00000000000E+00 -0.55459776343E+03  0.55459776343E+03  0.00000000000E+00 0. -1.
         25    1    1    2    0    0 -0.14840519862E+03  0.30101392218E+02 -0.23777589714E+03  0.30837083853E+03  0.12500000000E+03 0.  0.
         25    1    1    2    0    0  0.14840519862E+03 -0.30101392218E+02 -0.24728651302E+03  0.31576227817E+03  0.12500000000E+03 0.  0.
</event>
<event>
 4    0  0.2270578E-002  0.2434897E+03  0.7546771E-02  0.1117490E+00
         21   -1    0    0  502  501  0.00000000000E+00  0.00000000000E+00  0.20623486050E+03  0.20623486050E+03  0.00000000000E+00 0. -1.
         21   -1    0    0  501  502 -0.00000000000E+00 -0.00000000000E+00 -0.28747442047E+03  0.28747442047E+03  0.00000000000E+00 0. -1.
         25    1    1    2    0    0  0.24159632528E+02  0.57605931785E+02  0.16153521363E+03  0.21359016003E+03  0.12500000000E+03 0.  0.
         25    1    1    2    0    0 -0.24159632528E+02 -0.57605931785E+02 -0.24277477360E+03  0.28011912094E+03  0.12500000000E+03 0.  0.
</event>
<event>
 4    0  0.2270578E-002  0.2156527E+03  0.7546771E-02  0.1137166E+00
         21   -1    0    0  502  501  0.00000000000E+00  0.00000000000E+00  0.26298671774E+03  0.26298671774E+03  0.00000000000E+00 0.  1.
         21   -1    0    0  501  502 -0.00000000000E+00 -0.00000000000E+00 -0.17683822477E+03  0.17683822477E+03  0.00000000000E+00 0.  1.
         25    1    1    2    0    0 -0.36603774956E+02 -0.50976194808E+01  0.21826789151E+03  0.25422764313E+03  0.12500000000E+03 0.  0.
         25    1    1    2    0    0  0.36603774956E+02  0.50976194808E+01 -0.13211939854E+03  0.18559729938E+03  0.12500000000E+03 0.  0.
</event>
<event>
 4    0  0.2270578E-002  0.2144112E+03  0.7546771E-02  0.1138120E+00
         21   -1    0    0  502  501  0.00000000000E+00  0.00000000000E+00  0.31508976895E+03  0.31508976895E+03  0.00000000000E+00 0.  1.
         21   -1    0    0  501  502 -0.00000000000E+00 -0.00000000000E+00 -0.14590174369E+03  0.14590174369E+03  0.00000000000E+00 0.  1.
         25    1    1    2    0    0  0.55671950789E+02 -0.12809167333E+03  0.19652137494E+03  0.27157410350E+03  0.12500000000E+03 0.  0.
         25    1    1    2    0    0 -0.55671950789E+02  0.12809167333E+03 -0.27333349678E+02  0.18941740914E+03  0.12500000000E+03 0.  0.
</event>
<event>
 4    0  0.2270578E-002  0.2088704E+03  0.7546771E-02  0.1142464E+00
         21   -1    0    0  502  501  0.00000000000E+00  0.00000000000E+00  0.92518520013E+03  0.92518520013E+03  0.00000000000E+00 0. -1.
         21   -1    0    0  501  502 -0.00000000000E+00 -0.00000000000E+00 -0.47154702450E+02  0.47154702450E+02  0.00000000000E+00 0. -1.
         25    1    1    2    0    0  0.41910348225E+02 -0.10023355392E+02  0.62654207108E+02  0.14631300219E+03  0.12500000000E+03 0.  0.
         25    1    1    2    0    0 -0.41910348225E+02  0.10023355392E+02  0.81537629057E+03  0.82602690039E+03  0.12500000000E+03 0.  0.
</event>
<event>
 4    0  0.2270578E-002  0.2790656E+03  0.7546771E-02  0.1096200E+00
         21   -1    0    0  502  501  0.00000000000E+00  0.00000000000E+00  0.43477639016E+03  0.43477639016E+03  0.00000000000E+00 0. -1.
         21   -1    0    0  501  502 -0.00000000000E+00 -0.00000000000E+00 -0.17912109514E+03  0.17912109514E+03  0.00000000000E+00 0. -1.
         25    1    1    2    0    0 -0.23978277121E+03 -0.65630911477E+02  0.10450970775E+03  0.29723807448E+03  0.12500000000E+03 0.  0.
         25    1    1    2    0    0  0.23978277121E+03  0.65630911477E+02  0.15114558727E+03  0.31665941082E+03  0.12500000000E+03 0.  0.
</event>
<event>
 4    0  0.2270578E-002  0.1961169E+03  0.7546771E-02  0.1153057E+00
         21   -1    0    0  502  501  0.00000000000E+00  0.00000000000E+00  0.11909027434E+03  0.11909027434E+03  0.00000000000E+00 0. -1.
         21   -1    0    0  501  502 -0.00000000000E+00 -0.00000000000E+00 -0.32296376503E+03  0.32296376503E+03  0.00000000000E+00 0. -1.
         25    1    1    2    0    0 -0.13210748229E+03 -0.21964891269E+02 -0.23029482973E+02  0.18463531734E+03  0.12500000000E+03 0.  0.
         25    1    1    2    0    0  0.13210748229E+03  0.21964891269E+02 -0.18084400771E+03  0.25741872203E+03  0.12500000000E+03 0.  0.
</event>
<event>
 4    0  0.2270578E-002  0.2027236E+03  0.7546771E-02  0.1147461E+00
         21   -1    0    0  502  501  0.00000000000E+00  0.00000000000E+00  0.62856201552E+02  0.62856201552E+02  0.00000000000E+00 0.  1.
         21   -1    0    0  501  502 -0.00000000000E+00 -0.00000000000E+00 -0.65382316249E+03  0.65382316249E+03  0.00000000000E+00 0.  1.
         25    1    1    2    0    0 -0.80531274583E+02 -0.17646819804E+01 -0.51939081663E+02  0.15751529606E+03  0.12500000000E+03 0.  0.
         25    1    1    2    0    0  0.80531274583E+02  0.17646819804E+01 -0.53902787927E+03  0.55916406798E+03  0.12500000000E+03 0.  0.
</event>
<event>
 4    0  0.2270578E-002  0.2085926E+03  0.7546771E-02  0.1142685E+00
         21   -1    0    0  502  501  0.00000000000E+00  0.00000000000E+00  0.14366251156E+04  0.14366251156E+04  0.00000000000E+00 0. -1.
         21   -1    0    0  501  502 -0.00000000000E+00 -0.00000000000E+00 -0.30286857596E+02  0.30286857596E+02  0.00000000000E+00 0. -1.
         25    1    1    2    0    0 -0.14997914844E+03 -0.56685966546E+02  0.53904004229E+03  0.57610434035E+03  0.12500000000E+03 0.  0.
         25    1    1    2    0    0  0.14997914844E+03  0.56685966546E+02  0.86729821574E+03  0.89080763288E+03  0.12500000000E+03 0.  0.
</event>
<event>
 4    0  0.2270578E-002  0.2619262E+03  0.7546771E-02  0.1105991E+00
         21   -1    0    0  502  501  0.00000000000E+00  0.00000000000E+00  0.93500744746E+03  0.93500744746E+03  0.00000000000E+00 0.  1.
         21   -1    0    0  501  502 -0.00000000000E+00 -0.00000000000E+00 -0.73374130357E+02  0.73374130357E+02  0.00000000000E+00 0.  1.
         25    1    1    2    0    0  0.72671831470E+02  0.13617822153E+03  0.75949405922E+03  0.78503625974E+03  0.12500000000E+03 0.  0.
         25    1    1    2    0    0 -0.72671831470E+02 -0.13617822153E+03  0.10213925788E+03  0.22334531808E+03  0.12500000000E+03 0.  0.
</event>
<event>
 4    0  0.2270578E-002  0.2288905E+03  0.7546771E-02  0.1127423E+00
         21   -1    0    0  502  501  0.00000000000E+00  0.00000000000E+00  0.11581449780E+04  0.11581449780E+04  0.00000000000E+00 0. -1.
         21   -1    0    0  501  502 -0.00000000000E+00 -0.00000000000E+00 -0.45236858189E+02  0.45236858189E+02  0.00000000000E+00 0. -1.
         25    1    1    2    0    0  0.15939191342E+02  0.19059946144E+03  0.52083234973E+03  0.56874735080E+03  0.12500000000E+03 0.  0.
         25    1    1    2    0    0 -0.15939191342E+02 -0.19059946144E+03  0.59207577010E+03  0.63463448540E+03  0.12500000000E+03 0.  0.
</event>
<event>
 4    0  0.2270578E-002  0.2780679E+03  0.7546771E-02  0.1096749E+00
         21   -1    0    0  502  501  0.00000000000E+00  0.00000000000E+00  0.48768971819E+03  0.48768971819E+03  0.00000000000E+00 0. -1.
         21   -1    0    0  501  502 -0.00000000000E+00 -0.00000000000E+00 -0.15854707771E+03  0.15854707771E+03  0.00000000000E+00 0. -1.
         25    1    1    2    0    0  0.14666534736E+01  0.14137414975E+03  0.40188366808E+03  0.44398680606E+03  0.12500000000E+03 0.  0.
         25    1    1    2    0    0 -0.14666534736E+01 -0.14137414975E+03 -0.72741027603E+02  0.20224998983E+03  0.12500000000E+03 0.  0.
</event>
<event>
 4    0  0.2270578E-002  0.4038040E+03  0.7546771E-02  0.1042470E+00
         21   -1    0    0  502  501  0.00000000000E+00  0.00000000000E+00  0.10170366616E+04  0.10170366616E+04  0.00000000000E+00 0. -1.
         21   -1    0    0  501  502 -0.00000000000E+00 -0.00000000000E+00 -0.16032626233E+03  0.16032626233E+03  0.00000000000E+00 0. -1.
         25    1    1    2    0    0  0.13020600730E+03  0.12830377875E+03 -0.63905257187E+02  0.23048719243E+03  0.12500000000E+03 0.  0.
         25    1    1    2    0    0 -0.13020600730E+03 -0.12830377875E+03  0.92061565651E+03  0.94687573154E+03  0.12500000000E+03 0.  0.
</event>
<event>
 4    0  0.2270578E-002  0.1587503E+03  0.7546771E-02  0.1190115E+00
         21   -1    0    0  502  501  0.00000000000E+00  0.00000000000E+00  0.34094799988E+02  0.34094799988E+02  0.00000000000E+00 0.  1.
         21   -1    0    0  501  502 -0.00000000000E+00 -0.00000000000E+00 -0.73916400854E+03  0.73916400854E+03  0.00000000000E+00 0.  1.
         25    1    1    2    0    0 -0.69330897841E+02 -0.48206224436E+02 -0.23208322319E+03  0.27679999270E+03  0.12500000000E+03 0.  0.
         25    1    1    2    0    0  0.69330897841E+02  0.48206224436E+02 -0.47298598536E+03  0.49645881583E+03  0.12500000000E+03 0.  0.
</event>
<event>
 4    0  0.2270578E-002  0.2201724E+03  0.7546771E-02  0.1133755E+00
         21   -1    0    0  502  501  0.00000000000E+00  0.00000000000E+00  0.46833654288E+02  0.46833654288E+02  0.00000000000E+00 0.  1.
         21   -1    0    0  501  502 -0.00000000000E+00 -0.00000000000E+00 -0.10350649556E+04  0.10350649556E+04  0.00000000000E+00 0.  1.
         25    1    1    2    0    0 -0.72561956272E+02 -0.12203912441E+03 -0.21731934161E+03  0.28811713178E+03  0.12500000000E+03 0.  0.
         25    1    1    2    0    0  0.72561956272E+02  0.12203912441E+03 -0.77091195969E+03  0.79378147810E+03  0.12500000000E+03 0.  0.
</event>
<event>
 4    0  0.2270578E-002  0.2312169E+03  0.7546771E-02  0.1125786E+00
         21   -1    0    0  502  501  0.00000000000E+00  0.00000000000E+00  0.23132373493E+02  0.23132373493E+02  0.00000000000E+00 0.  1.
         21   -1    0    0  501  502 -0.00000000000E+00 -0.00000000000E+00 -0.23111009144E+04  0.23111009144E+04  0.00000000000E+00 0.  1.
         25    1    1    2    0    0  0.18830931415E+02 -0.18875803318E+03 -0.92675361219E+03  0.95419151996E+03  0.12500000000E+03 0.  0.
         25    1    1    2    0    0 -0.18830931415E+02  0.18875803318E+03 -0.13612149288E+04  0.13800417680E+04  0.12500000000E+03 0.  0.
</event>
<event>
 4    0  0.2270578E-002  0.2479223E+03  0.7546771E-02  0.1114625E+00
         21   -1    0    0  502  501  0.00000000000E+00  0.00000000000E+00  0.10233141234E+03  0.10233141234E+03  0.00000000000E+00 0. -1.
         21   -1    0    0  501  502 -0.00000000000E+00 -0.00000000000E+00 -0.60065107618E+03  0.60065107618E+03  0.00000000000E+00 0. -1.
         25    1    1    2    0    0  0.20235352824E+03 -0.46773803452E+02 -0.32290633576E+03  0.40376755783E+03  0.12500000000E+03 0.  0.
         25    1    1    2    0    0 -0.20235352824E+03  0.46773803452E+02 -0.17541332807E+03  0.29921493069E+03  0.12500000000E+03 0.  0.
</event>
<event>
 4    0  0.2270578E-002  0.2312863E+03  0.7546771E-02  0.1125738E+00
         21   -1    0    0  502  501  0.00000000000E+00  0.00000000000E+00  0.11062206521E+03  0.11062206521E+03  0.00000000000E+00 0.  1.
         21   -1    0    0  501  502 -0.00000000000E+00 -0.00000000000E+00 -0.48356864468E+03  0.48356864468E+03  0.00000000000E+00 0.  1.
         25    1    1    2    0    0  0.18122342752E+03  0.64207725708E+02 -0.22509059313E+03  0.32133368613E+03  0.12500000000E+03 0.  0.
         25    1    1    2    0    0 -0.18122342752E+03 -0.64207725708E+02 -0.14785598634E+03  0.27285702377E+03  0.12500000000E+03 0.  0.
</event>
<event>
 4    0  0.2270578E-002  0.1960036E+03  0.7546771E-02  0.1153155E+00
         21   -1    0    0  502  501  0.00000000000E+00  0.00000000000E+00  0.32619641197E+02  0.32619641197E+02  0.00000000000E+00 0. -1.
         21   -1    0    0  501  502 -0.00000000000E+00 -0.00000000000E+00 -0.11777381899E+04  0.11777381899E+04  0.00000000000E+00 0. -1.
         25    1    1    2    0    0 -0.11636297864E+03 -0.91132429892E+02 -0.66757157049E+03  0.69506997079E+03  0.12500000000E+03 0.  0.
         25    1    1    2    0    0  0.11636297864E+03  0.91132429892E+02 -0.47754697823E+03  0.51528786032E+03  0.12500000000E+03 0.  0.
</event>
<event>
 4    0  0.2270578E-002  0.2261823E+03  0.7546771E-02  0.1129356E+00
         21   -1    0    0  502  501  0.00000000000E+00  0.00000000000E+00  0.13459877924E+03  0.13459877924E+03  0.00000000000E+00 0.  1.
         21   -1    0    0  501  502 -0.00000000000E+00 -0.00000000000E+00 -0.38008107715E+03  0.38008107715E+03  0.00000000000E+00 0.  1.
         25    1    1    2    0    0 -0.88147202111E+02  0.71453388161E+02  0.48519914201E+02  0.17565505399E+03  0.12500000000E+03 0.  0.
         25    1    1    2    0    0  0.88147202111E+02 -0.71453388161E+02 -0.29400221211E+03  0.33902480240E+03  0.12500000000E+03 0.  0.
</event>
<event>
 4    0  0.2270578E-002  0.2449526E+03  0.7546771E-02  0.1116537E+00
         21   -1    0    0  502  501  0.00000000000E+00  0.00000000000E+00  0.84797854238E+02  0.84797854238E+02  0.00000000000E+00 0.  1.
         21   -1    0    0  501  502 -0.00000000000E+00 -0.00000000000E+00 -0.70758598183E+03  0.70758598183E+03  0.00000000000E+00 0.  1.
         25    1    1    2    0    0  0.99645489062E+02  0.17709254239E+03 -0.22154653993E+03  0.32557466336E+03  0.12500000000E+03 0.  0.
         25    1    1    2    0    0 -0.99645489062E+02 -0.17709254239E+03 -0.40124158766E+03  0.46680917271E+03  0.12500000000E+03 0.  0.
</event>
<event>
 4    0  0.2270578E-002  0.2184593E+03  0.7546771E-02  0.1135037E+00
         21   -1    0    0  502  501  0.00000000000E+00  0.00000000000E+00  0.27023841116E+03  0.27023841116E+03  0.00000000000E+00 0. -1.
         21   -1    0    0  501  502 -0.00000000000E+00 -0.00000000000E+00 -0.17660142112E+03  0.17660142112E+03  0.00000000000E+00 0. -1.
         25    1    1    2    0    0  0.13690664173E+03 -0.18642934245E+02  0.16346315381E+03  0.24786324900E+03  0.12500000000E+03 0.  0.
         25    1    1    2    0    0 -0.13690664173E+03  0.18642934245E+02 -0.69826163769E+02  0.19897658328E+03  0.12500000000E+03 0.  0.
</event>
<event>
 4    0  0.2270578E-002  0.1845636E+03  0.7546771E-02  0.1163458E+00
         21   -1    0    0  502  501  0.00000000000E+00  0.00000000000E+00  0.55949624230E+02  0.55949624230E+02  0.00000000000E+00 0. -1.
         21   -1    0    0  501  502 -0.00000000000E+00 -0.00000000000E+00 -0.60882871951E+03  0.60882871951E+03  0.00000000000E+00 0. -1.
         25    1    1    2    0    0  0.56155876986E+02  0.45553879291E+02 -0.69447451853E+02  0.16023915566E+03  0.12500000000E+03 0.  0.
         25    1    1    2    0    0 -0.56155876986E+02 -0.45553879291E+02 -0.48343164343E+03  0.50453918808E+03  0.12500000000E+03 0.  0.
</event>
<event>
 4    0  0.2270578E-002  0.4992581E+03  0.7546771E-02  0.1013973E+00
         21   -1    0    0  502  501  0.00000000000E+00  0.00000000000E+00  0.85666193731E+03  0.85666193731E+03  0.00000000000E+00 0.  1.
         21   -1    0    0  501  502 -0.00000000000E+00 -0.00000000000E+00 -0.29096500625E+03  0.29096500625E+03  0.00000000000E+00 0.  1.
         25    1    1    2    0    0  0.30683220340E+03  0.31822365260E+02  0.71054061946E+03  0.78463471493E+03  0.12500000000E+03 0.  0.
         25    1    1    2    0    0 -0.30683220340E+03 -0.31822365260E+02 -0.14484368840E+03  0.36299222863E+03  0.12500000000E+03 0.  0.
</event>
<event>
 4    0  0.2270578E-002  0.1752356E+03  0.7546771E-02  0.1172495E+00
         21   -1    0    0  502  501  0.00000000000E+00  0.00000000000E+00  0.32864824135E+03  0.32864824135E+03  0.00000000000E+00 0.  1.
         21   -1    0    0  501  502 -0.00000000000E+00 -0.00000000000E+00 -0.93435825213E+02  0.93435825213E+02  0.00000000000E+00 0.  1.
         25    1    1    2    0    0 -0.10441133754E+03 -0.22667719652E+02  0.44677238525E+02  0.17040131620E+03  0.12500000000E+03 0.  0.
         25    1    1    2    0    0  0.10441133754E+03  0.22667719652E+02  0.19053517761E+03  0.25168275036E+03  0.12500000000E+03 0.  0.
</event>
<event>
 4    0  0.2270578E-002  0.2836965E+03  0.7546771E-02  0.1093687E+00
         21   -1    0    0  502  501  0.00000000000E+00  0.00000000000E+00  0.12724305944E+03  0.12724305944E+03  0.00000000000E+00 0. -1.
         21   -1    0    0  501  502 -0.00000000000E+00 -0.00000000000E+00 -0.63251957063E+03  0.63251957063E+03  0.00000000000E+00 0. -1.
         25    1    1    2    0    0 -0.14918430718E+03 -0.13864597214E+03 -0.47891641297E+02  0.24371555635E+03  0.12500000000E+03 0.  0.
         25    1    1    2    0    0  0.14918430718E+03  0.13864597214E+03 -0.45738486989E+03  0.51604707373E+03  0.12500000000E+03 0.  0.
</event>
<event>
 4    0  0.2270578E-002  0.2160469E+03  0.7546771E-02  0.1136865E+00
         21   -1    0    0  502  501  0.00000000000E+00  0.00000000000E+00  0.28555382419E+03  0.28555382419E+03  0.00000000000E+00 0.  1.
         21   -1    0    0  501  502 -0.00000000000E+00 -0.00000000000E+00 -0.16345869385E+03  0.16345869385E+03  0.00000000000E+00 0.  1.
         25    1    1    2    0    0  0.30588377594E+02  0.16320050161E+03  0.12235951076E+03  0.24117815498E+03  0.12500000000E+03 0.  0.
         25    1    1    2    0    0 -0.30588377594E+02 -0.16320050161E+03 -0.26438041724E+00  0.20783436305E+03  0.12500000000E+03 0.  0.
</event>
<event>
 4    0  0.2270578E-002  0.1951279E+03  0.7546771E-02  0.1153916E+00
         21   -1    0    0  502  501  0.00000000000E+00  0.00000000000E+00  0.12750776659E+03  0.12750776659E+03  0.00000000000E+00 0. -1.
         21   -1    0    0  501  502 -0.00000000000E+00 -0.00000000000E+00 -0.29860841080E+03  0.29860841080E+03  0.00000000000E+00 0. -1.
         25    1    1    2    0    0  0.96217479792E+02  0.92177750618E+02 -0.16036945904E+03  0.24310060575E+03  0.12500000000E+03 0.  0.
         25    1    1    2    0    0 -0.96217479792E+02 -0.92177750618E+02 -0.10731185176E+02  0.18301557164E+03  0.12500000000E+03 0.  0.
</event>
<event>
 4    0  0.2270578E-002  0.2770341E+03  0.7546771E-02  0.1097320E+00
         21   -1    0    0  502  501  0.00000000000E+00  0.00000000000E+00  0.81808212424E+02  0.81808212424E+02  0.00000000000E+00 0.  1.
         21   -1    0    0  501  502 -0.00000000000E+00 -0.00000000000E+00 -0.93814416416E+03  0.93814416416E+03  0.00000000000E+00 0.  1.
         25    1    1    2    0    0 -0.10946404762E+03  0.20435937166E+03 -0.58628517442E+03  0.64272889795E+03  0.12500000000E+03 0.  0.
         25    1    1    2    0    0  0.10946404762E+03 -0.20435937166E+03 -0.27005077731E+03  0.37722347864E+03  0.12500000000E+03 0.  0.
</event>
<event>
 4    0  0.2270578E-002  0.2957912E+03  0.7546771E-02  0.1087364E+00
         21   -1    0    0  502  501  0.00000000000E+00  0.00000000000E+00  0.21452702146E+03  0.21452702146E+03  0.00000000000E+00 0. -1.
         21   -1    0    0  501  502 -0.00000000000E+00 -0.00000000000E+00 -0.40783886915E+03  0.40783886915E+03  0.00000000000E+00 0. -1.
         25    1    1    2    0    0 -0.10179288657E+03  0.14276592123E+03  0.11668580932E+03  0.24491728832E+03  0.12500000000E+03 0.  0.
         25    1    1    2    0    0  0.10179288657E+03 -0.14276592123E+03 -0.30999765701E+03  0.37744860229E+03  0.12500000000E+03 0.  0.
</event>
<event>
 4    0  0.2270578E-002  0.2456082E+03  0.7546771E-02  0.1116112E+00
         21   -1    0    0  502  501  0.00000000000E+00  0.00000000000E+00  0.44917516828E+03  0.44917516828E+03  0.00000000000E+00 0. -1.
         21   -1    0    0  501  502 -0.00000000000E+00 -0.00000000000E+00 -0.13429817447E+03  0.13429817447E+03  0.00000000000E+00 0.  1.
         25    1    1    2    0    0  0.15589983435E+03  0.10522138072E+01  0.32706111280E+03  0.38327514531E+03  0.12500000000E+03 0.  0.
         25    1    1    2    0    0 -0.15589983435E+03 -0.10522138072E+01 -0.12184118990E+02  0.20019819745E+03  0.12500000000E+03 0.  0.
</event>
<event>
 4    0  0.2270578E-002  0.3311586E+03  0.7546771E-02  0.1070625E+00
         21   -1    0    0  502  501  0.00000000000E+00  0.00000000000E+00  0.19009463543E+03  0.19009463543E+03  0.00000000000E+00 0.  1.
         21   -1    0    0  501  502 -0.00000000000E+00 -0.00000000000E+00 -0.57690234168E+03  0.57690234168E+03  0.00000000000E+00 0.  1.
         25    1    1    2    0    0  0.17170730523E+02 -0.18150764015E+03 -0.47895479012E+03  0.52750597001E+03  0.12500000000E+03 0.  0.
         25    1    1    2    0    0 -0.17170730523E+02  0.18150764015E+03  0.92147083866E+02  0.23949100710E+03  0.12500000000E+03 0.  0.
</event>
<event>
 4    0  0.2270578E-002  0.2343921E+03  0.7546771E-02  0.1123586E+00
         21   -1    0    0  502  501  0.00000000000E+00  0.00000000000E+00  0.14072504930E+03  0.14072504930E+03  0.00000000000E+00 0.  1.
         21   -1    0    0  501  502 -0.00000000000E+00 -0.00000000000E+00 -0.39040426867E+03  0.39040426867E+03  0.00000000000E+00 0.  1.
         25    1    1    2    0    0 -0.94576170670E+02 -0.58994730731E+02 -0.31062848510E+03  0.35290237470E+03  0.12500000000E+03 0.  0.
         25    1    1    2    0    0  0.94576170670E+02  0.58994730731E+02  0.60949265739E+02  0.17822694327E+03  0.12500000000E+03 0.  0.
</event>
<event>
 4    0  0.2270578E-002  0.2386902E+03  0.7546771E-02  0.1120668E+00
         21   -1    0    0  502  501  0.00000000000E+00  0.00000000000E+00  0.45513801648E+03  0.45513801648E+03  0.00000000000E+00 0. -1.
         21   -1    0    0  501  502 -0.00000000000E+00 -0.00000000000E+00 -0.12517747241E+03  0.12517747241E+03  0.00000000000E+00 0. -1.
         25    1    1    2    0    0 -0.80764377435E+02 -0.16392597208E+03  0.56568507791E+02  0.22851609365E+03  0.12500000000E+03 0.  0.
         25    1    1    2    0    0  0.80764377435E+02  0.16392597208E+03  0.27339203628E+03  0.35179939523E+03  0.12500000000E+03 0.  0.
</event>
<event>
 4    0  0.2270578E-002  0.2204190E+03  0.7546771E-02  0.1133571E+00
         21   -1    0    0  502  501  0.00000000000E+00  0.00000000000E+00  0.13108505433E+03  0.13108505433E+03  0.00000000000E+00 0. -1.
         21   -1    0    0  501  502 -0.00000000000E+00 -0.00000000000E+00 -0.37063377575E+03  0.37063377575E+03  0.00000000000E+00 0. -1.
         25    1    1    2    0    0  0.80181794198E+02 -0.13944630084E+03 -0.23976440771E+02  0.20512011274E+03  0.12500000000E+03 0.  0.
         25    1    1    2    0    0 -0.80181794198E+02  0.13944630084E+03 -0.21557228065E+03  0.29659871733E+03  0.12500000000E+03 0.  0.
</event>
<event>
 4    0  0.2270578E-002  0.1900066E+03  0.7546771E-02  0.1158455E+00
         21   -1    0    0  502  501  0.00000000000E+00  0.00000000000E+00  0.10635314072E+03  0.10635314072E+03  0.00000000000E+00 0. -1.
         21   -1    0    0  501  502 -0.00000000000E+00 -0.00000000000E+00 -0.33945891186E+03  0.33945891186E+03  0.00000000000E+00 0. -1.
         25    1    1    2    0    0 -0.24884407071E+02  0.74531142583E+02 -0.25685771864E+03  0.29626848053E+03  0.12500000000E+03 0.  0.
         25    1    1    2    0    0  0.24884407071E+02 -0.74531142583E+02  0.23751947506E+02  0.14954357205E+03  0.12500000000E+03 0.  0.
</event>
<event>
 4    0  0.2270578E-002  0.2385993E+03  0.7546771E-02  0.1120729E+00
         21   -1    0    0  502  501  0.00000000000E+00  0.00000000000E+00  0.71712116973E+03  0.71712116973E+03  0.00000000000E+00 0. -1.
         21   -1    0    0  501  502 -0.00000000000E+00 -0.00000000000E+00 -0.79386318514E+02  0.79386318514E+02  0.00000000000E+00 0. -1.
         25    1    1    2    0    0  0.18203041391E+03  0.77955643176E+02  0.39521915894E+03  0.45938582639E+03  0.12500000000E+03 0.  0.
         25    1    1    2    0    0 -0.18203041391E+03 -0.77955643176E+02  0.24251569227E+03  0.33712166185E+03  0.12500000000E+03 0.  0.
</event>
<event>
 4    0  0.2270578E-002  0.2105094E+03  0.7546771E-02  0.1141163E+00
         21   -1    0    0  502  501  0.00000000000E+00  0.00000000000E+00  0.68565070647E+03  0.68565070647E+03  0.00000000000E+00 0.  1.
         21   -1    0    0  501  502 -0.00000000000E+00 -0.00000000000E+00 -0.64630894850E+02  0.64630894850E+02  0.00000000000E+00 0.  1.
         25    1    1    2    0    0 -0.71749379968E+02 -0.12666124370E+03  0.46482219896E+03  0.50286749828E+03  0.12500000000E+03 0.  0.
         25    1    1    2    0    0  0.71749379968E+02  0.12666124370E+03  0.15619761266E+03  0.24741410303E+03  0.12500000000E+03 0.  0.
</event>
<event>
 4    0  0.2270578E-002  0.2376075E+03  0.7546771E-02  0.1121397E+00
         21   -1    0    0  502  501  0.00000000000E+00  0.00000000000E+00  0.29202828721E+03  0.29202828721E+03  0.00000000000E+00 0. -1.
         21   -1    0    0  501  502 -0.00000000000E+00 -0.00000000000E+00 -0.19332828963E+03  0.19332828963E+03  0.00000000000E+00 0. -1.
         25    1    1    2    0    0  0.26050167388E+02 -0.90646937224E+02  0.23187266462E+03  0.27979530204E+03  0.12500000000E+03 0.  0.
         25    1    1    2    0    0 -0.26050167388E+02  0.90646937224E+02 -0.13317266703E+03  0.20556127479E+03  0.12500000000E+03 0.  0.
</event>
<event>
 4    0  0.2270578E-002  0.1677155E+03  0.7546771E-02  0.1180251E+00
         21   -1    0    0  502  501  0.00000000000E+00  0.00000000000E+00  0.13601643237E+04  0.13601643237E+04  0.00000000000E+00 0. -1.
         21   -1    0    0  501  502 -0.00000000000E+00 -0.00000000000E+00 -0.20680218795E+02  0.20680218795E+02  0.00000000000E+00 0. -1.
         25    1    1    2    0    0  0.11021061411E+03 -0.16229248167E+02  0.62988768950E+03  0.65176166606E+03  0.12500000000E+03 0.  0.
         25    1    1    2    0    0 -0.11021061411E+03  0.16229248167E+02  0.70959641545E+03  0.72908287649E+03  0.12500000000E+03 0.  0.
</event>
<event>
 4    0  0.2270578E-002  0.4420903E+03  0.7546771E-02  0.1030107E+00
         21   -1    0    0  502  501  0.00000000000E+00  0.00000000000E+00  0.67636235747E+03  0.67636235747E+03  0.00000000000E+00 0. -1.
         21   -1    0    0  501  502 -0.00000000000E+00 -0.00000000000E+00 -0.28896322176E+03  0.28896322176E+03  0.00000000000E+00 0. -1.
         25    1    1    2    0    0  0.21687343545E+03  0.17500248903E+03 -0.15525661414E+03  0.34262161987E+03  0.12500000000E+03 0.  0.
         25    1    1    2    0    0 -0.21687343545E+03 -0.17500248903E+03  0.54265574985E+03  0.62270395937E+03  0.12500000000E+03 0.  0.
</event>
<event>
 4    0  0.2270578E-002  0.2028056E+03  0.7546771E-02  0.1147393E+00
         21   -1    0    0  502  501  0.00000000000E+00  0.00000000000E+00  0.56118846186E+02  0.56118846186E+02  0.00000000000E+00 0. -1.
         21   -1    0    0  501  502 -0.00000000000E+00 -0.00000000000E+00 -0.73291051329E+03  0.73291051329E+03  0.00000000000E+00 0. -1.
         25    1    1    2    0    0 -0.15591630748E+03 -0.21714427639E+02 -0.28606508726E+03  0.34962786710E+03  0.12500000000E+03 0.  0.
         25    1    1    2    0    0  0.15591630748E+03  0.21714427639E+02 -0.39072657984E+03  0.43940149237E+03  0.12500000000E+03 0.  0.
</event>
<event>
 4    0  0.2270578E-002  0.1670815E+03  0.7546771E-02  0.1180926E+00
         21   -1    0    0  502  501  0.00000000000E+00  0.00000000000E+00  0.48908507206E+02  0.48908507206E+02  0.00000000000E+00 0. -1.
         21   -1    0    0  501  502 -0.00000000000E+00 -0.00000000000E+00 -0.57078479334E+03  0.57078479334E+03  0.00000000000E+00 0. -1.
         25    1    1    2    0    0 -0.88103035898E+02  0.17945344188E+01 -0.13617988769E+03  0.20478116881E+03  0.12500000000E+03 0.  0.
         25    1    1    2    0    0  0.88103035898E+02 -0.17945344188E+01 -0.38569639844E+03  0.41491213173E+03  0.12500000000E+03 0.  0.
</event>
<event>
 4    0  0.2270578E-002  0.2796933E+03  0.7546771E-02  0.1095857E+00
         21   -1    0    0  502  501  0.00000000000E+00  0.00000000000E+00  0.31562712633E+03  0.31562712633E+03  0.00000000000E+00 0. -1.
         21   -1    0    0  501  502 -0.00000000000E+00 -0.00000000000E+00 -0.24785056228E+03  0.24785056228E+03  0.00000000000E+00 0. -1.
         25    1    1    2    0    0  0.61882546717E+02  0.18253286750E+02  0.27740143565E+03  0.31102924069E+03  0.12500000000E+03 0.  0.
         25    1    1    2    0    0 -0.61882546717E+02 -0.18253286750E+02 -0.20962487160E+03  0.25244844792E+03  0.12500000000E+03 0.  0.
</event>
<event>
 4    0  0.2270578E-002  0.1995974E+03  0.7546771E-02  0.1150079E+00
         21   -1    0    0  502  501  0.00000000000E+00  0.00000000000E+00  0.38316032368E+03  0.38316032368E+03  0.00000000000E+00 0. -1.
         21   -1    0    0  501  502 -0.00000000000E+00 -0.00000000000E+00 -0.10397505174E+03  0.10397505174E+03  0.00000000000E+00 0. -1.
         25    1    1    2    0    0  0.57224454932E+02 -0.15085805534E+01  0.31616557266E+03  0.34476453326E+03  0.12500000000E+03 0.  0.
         25    1    1    2    0    0 -0.57224454932E+02  0.15085805534E+01 -0.36980300722E+02  0.14237084217E+03  0.12500000000E+03 0.  0.
</event>
<event>
 4    0  0.2270578E-002  0.2100862E+03  0.7546771E-02  0.1141498E+00
         21   -1    0    0  502  501  0.00000000000E+00  0.00000000000E+00  0.13813893051E+04  0.13813893051E+04  0.00000000000E+00 0. -1.
         21   -1    0    0  501  502 -0.00000000000E+00 -0.00000000000E+00 -0.31950594086E+02  0.31950594086E+02  0.00000000000E+00 0. -1.
         25    1    1    2    0    0 -0.28041311337E+02  0.16529246049E+03  0.60716843948E+03  0.64217320602E+03  0.12500000000E+03 0.  0.
         25    1    1    2    0    0  0.28041311337E+02 -0.16529246049E+03  0.74227027149E+03  0.77116669312E+03  0.12500000000E+03 0.  0.
</event>
<event>
 4    0  0.2270578E-002  0.1849542E+03  0.7546771E-02  0.1163093E+00
         21   -1    0    0  502  501  0.00000000000E+00  0.00000000000E+00  0.32250572052E+03  0.32250572052E+03  0.00000000000E+00 0. -1.
         21   -1    0    0  501  502 -0.00000000000E+00 -0.00000000000E+00 -0.10606965996E+03  0.10606965996E+03  0.00000000000E+00 0. -1.
         25    1    1    2    0    0 -0.61184507870E+02 -0.10783112227E+03  0.17388079271E+03  0.24744822693E+03  0.12500000000E+03 0.  0.
         25    1    1    2    0    0  0.61184507870E+02  0.10783112227E+03  0.42555267848E+02  0.18112715356E+03  0.12500000000E+03 0.  0.
</event>
<event>
 4    0  0.2270578E-002  0.2063709E+03  0.7546771E-02  0.1144473E+00
         21   -1    0    0  502  501  0.00000000000E+00  0.00000000000E+00  0.17648611367E+03  0.17648611367E+03  0.00000000000E+00 0.  1.
         21   -1    0    0  501  502 -0.00000000000E+00 -0.00000000000E+00 -0.24131608001E+03  0.24131608001E+03  0.00000000000E+00 0.  1.
         25    1    1    2    0    0 -0.12098917361E+03 -0.84298128250E+02  0.40716079602E+02  0.19755341985E+03  0.12500000000E+03 0.  0.
         25    1    1    2    0    0  0.12098917361E+03  0.84298128250E+02 -0.10554604595E+03  0.22024877383E+03  0.12500000000E+03 0.  0.
</event>
<event>
 4    0  0.2270578E-002  0.3599324E+03  0.7546771E-02  0.1058611E+00
         21   -1    0    0  502  501  0.00000000000E+00  0.00000000000E+00  0.11141354957E+04  0.11141354957E+04  0.00000000000E+00 0. -1.
         21   -1    0    0  501  502 -0.00000000000E+00 -0.00000000000E+00 -0.11627966868E+03  0.11627966868E+03  0.00000000000E+00 0. -1.
         25    1    1    2    0    0  0.20871033097E+03  0.19470808629E+03  0.19100498820E+03  0.36548481040E+03  0.12500000000E+03 0.  0.
         25    1    1    2    0    0 -0.20871033097E+03 -0.19470808629E+03  0.80685083879E+03  0.86493035395E+03  0.12500000000E+03 0.  0.
</event>
<event>
 4    0  0.2270578E-002  0.2128500E+03  0.7546771E-02  0.1139329E+00
         21   -1    0    0  502  501  0.00000000000E+00  0.00000000000E+00  0.30616233346E+03  0.30616233346E+03  0.00000000000E+00 0.  1.
         21   -1    0    0  501  502 -0.00000000000E+00 -0.00000000000E+00 -0.14797750159E+03  0.14797750159E+03  0.00000000000E+00 0.  1.
         25    1    1    2    0    0  0.87152844818E+01 -0.17205819026E+03  0.79519360360E+02  0.22721862972E+03  0.12500000000E+03 0.  0.
         25    1    1    2    0    0 -0.87152844818E+01  0.17205819026E+03  0.78665471508E+02  0.22692120532E+03  0.12500000000E+03 0.  0.
</event>
<event>
 4    0  0.2270578E-002  0.2147994E+03  0.7546771E-02  0.1137821E+00
         21   -1    0    0  502  501  0.00000000000E+00  0.00000000000E+00  0.13174611680E+03  0.13174611680E+03  0.00000000000E+00 0.  1.
         21   -1    0    0  501  502 -0.00000000000E+00 -0.00000000000E+00 -0.35020987145E+03  0.35020987145E+03  0.00000000000E+00 0.  1.
         25    1    1    2    0    0  0.43231758982E+02  0.13250924003E+03 -0.22735469925E+03  0.29452137945E+03  0.12500000000E+03 0.  0.
         25    1    1    2    0    0 -0.43231758982E+02 -0.13250924003E+03  0.88909446038E+01  0.18743460880E+03  0.12500000000E+03 0.  0.
</event>
<event>
 4    0  0.2270578E-002  0.2204081E+03  0.7546771E-02  0.1133579E+00
         21   -1    0    0  502  501  0.00000000000E+00  0.00000000000E+00  0.69595735349E+03  0.69595735349E+03  0.00000000000E+00 0. -1.
         21   -1    0    0  501  502 -0.00000000000E+00 -0.00000000000E+00 -0.69802731704E+02  0.69802731704E+02  0.00000000000E+00 0. -1.
         25    1    1    2    0    0  0.15609979572E+03 -0.92594920623E+02  0.30663373948E+03  0.37761119652E+03  0.12500000000E+03 0.  0.
         25    1    1    2    0    0 -0.15609979572E+03  0.92594920623E+02  0.31952088230E+03  0.38814888867E+03  0.12500000000E+03 0.  0.
</event>
<event>
 4    0  0.2270578E-002  0.3990372E+03  0.7546771E-02  0.1044114E+00
         21   -1    0    0  502  501  0.00000000000E+00  0.00000000000E+00  0.15656933166E+03  0.15656933166E+03  0.00000000000E+00 0. -1.
         21   -1    0    0  501  502 -0.00000000000E+00 -0.00000000000E+00 -0.10169981663E+04  0.10169981663E+04  0.00000000000E+00 0. -1.
         25    1    1    2    0    0  0.17063237587E+03  0.33149184003E+03 -0.33044267374E+03  0.51363372974E+03  0.12500000000E+03 0.  0.
         25    1    1    2    0    0 -0.17063237587E+03 -0.33149184003E+03 -0.52998616094E+03  0.65993376826E+03  0.12500000000E+03 0.  0.
</event>
<event>
 4    0  0.2270578E-002  0.1933367E+03  0.7546771E-02  0.1155486E+00
         21   -1    0    0  502  501  0.00000000000E+00  0.00000000000E+00  0.39035082782E+03  0.39035082782E+03  0.00000000000E+00 0.  1.
         21   -1    0    0  501  502 -0.00000000000E+00 -0.00000000000E+00 -0.95757640964E+02  0.95757640964E+02  0.00000000000E+00 0.  1.
         25    1    1    2    0    0  0.87772480226E+02 -0.95523667841E+02  0.23552431106E+03  0.29652231030E+03  0.12500000000E+03 0.  0.
         25    1    1    2    0    0 -0.87772480226E+02  0.95523667841E+02  0.59068875797E+02  0.18958615849E+03  0.12500000000E+03 0.  0.
</event>
<event>
 4    0  0.2270578E-002  0.3276784E+03  0.7546771E-02  0.1072169E+00
         21   -1    0    0  502  501  0.00000000000E+00  0.00000000000E+00  0.23580206841E+03  0.23580206841E+03  0.00000000000E+00 0.  1.
         21   -1    0    0  501  502 -0.00000000000E+00 -0.00000000000E+00 -0.45535275134E+03  0.45535275134E+03  0.00000000000E+00 0. -1.
         25    1    1    2    0    0  0.23766338545E+03 -0.17568651795E+03 -0.17971911012E+03  0.36779558985E+03  0.12500000000E+03 0.  0.
         25    1    1    2    0    0 -0.23766338545E+03  0.17568651795E+03 -0.39831572814E+02  0.32335922990E+03  0.12500000000E+03 0.  0.
</event>
<event>
 4    0  0.2270578E-002  0.2429547E+03  0.7546771E-02  0.1117840E+00
         21   -1    0    0  502  501  0.00000000000E+00  0.00000000000E+00  0.10356395778E+03  0.10356395778E+03  0.00000000000E+00 0.  1.
         21   -1    0    0  501  502 -0.00000000000E+00 -0.00000000000E+00 -0.56995665777E+03  0.56995665777E+03  0.00000000000E+00 0.  1.
         25    1    1    2    0    0  0.68345368284E+02 -0.10291218299E+03 -0.46571479196E+03  0.49777231163E+03  0.12500000000E+03 0.  0.
         25    1    1    2    0    0 -0.68345368284E+02  0.10291218299E+03 -0.67790803447E+00  0.17574830392E+03  0.12500000000E+03 0.  0.
</event>
<event>
 4    0  0.2270578E-002  0.2298544E+03  0.7546771E-02  0.1126742E+00
         21   -1    0    0  502  501  0.00000000000E+00  0.00000000000E+00  0.71656415613E+03  0.71656415613E+03  0.00000000000E+00 0. -1.
         21   -1    0    0  501  502 -0.00000000000E+00 -0.00000000000E+00 -0.73731073439E+02  0.73731073439E+02  0.00000000000E+00 0. -1.
         25    1    1    2    0    0  0.99401224877E+02  0.15891628096E+03  0.24314351571E+03  0.33147964809E+03  0.12500000000E+03 0.  0.
         25    1    1    2    0    0 -0.99401224877E+02 -0.15891628096E+03  0.39968956698E+03  0.45881558149E+03  0.12500000000E+03 0.  0.
</event>
<event>
 4    0  0.2270578E-002  0.1608649E+03  0.7546771E-02  0.1187724E+00
         21   -1    0    0  502  501  0.00000000000E+00  0.00000000000E+00  0.36168653710E+02  0.36168653710E+02  0.00000000000E+00 0.  1.
         21   -1    0    0  501  502 -0.00000000000E+00 -0.00000000000E+00 -0.71546849034E+03  0.71546849034E+03  0.00000000000E+00 0.  1.
         25    1    1    2    0    0  0.18284997084E+02  0.87523831204E+02 -0.22864131162E+03  0.27549339652E+03  0.12500000000E+03 0.  0.
         25    1    1    2    0    0 -0.18284997084E+02 -0.87523831204E+02 -0.45065852501E+03  0.47614374753E+03  0.12500000000E+03 0.  0.
</event>
<event>
 4    0  0.2270578E-002  0.2006385E+03  0.7546771E-02  0.1149201E+00
         21   -1    0    0  502  501  0.00000000000E+00  0.00000000000E+00  0.44577461400E+02  0.44577461400E+02  0.00000000000E+00 0. -1.
         21   -1    0    0  501  502 -0.00000000000E+00 -0.00000000000E+00 -0.90305337642E+03  0.90305337642E+03  0.00000000000E+00 0. -1.
         25    1    1    2    0    0 -0.60064070589E+02 -0.75493565401E+02 -0.13690428375E+03  0.20898505665E+03  0.12500000000E+03 0.  0.
         25    1    1    2    0    0  0.60064070589E+02  0.75493565401E+02 -0.72157163126E+03  0.73864578117E+03  0.12500000000E+03 0.  0.
</event>
<event>
 4    0  0.2270578E-002  0.3164674E+03  0.7546771E-02  0.1077287E+00
         21   -1    0    0  502  501  0.00000000000E+00  0.00000000000E+00  0.71206682184E+03  0.71206682184E+03  0.00000000000E+00 0. -1.
         21   -1    0    0  501  502 -0.00000000000E+00 -0.00000000000E+00 -0.14064915216E+03  0.14064915216E+03  0.00000000000E+00 0. -1.
         25    1    1    2    0    0  0.11863715953E+03 -0.89786171578E+02  0.62222340681E+03  0.65186141181E+03  0.12500000000E+03 0.  0.
         25    1    1    2    0    0 -0.11863715953E+03  0.89786171578E+02 -0.50805737129E+02  0.20085456219E+03  0.12500000000E+03 0.  0.
</event>
<event>
 4    0  0.2270578E-002  0.2457550E+03  0.7546771E-02  0.1116017E+00
         21   -1    0    0  502  501  0.00000000000E+00  0.00000000000E+00  0.57341224680E+02  0.57341224680E+02  0.00000000000E+00 0.  1.
         21   -1    0    0  501  502 -0.00000000000E+00 -0.00000000000E+00 -0.10532656232E+04  0.10532656232E+04  0.00000000000E+00 0.  1.
         25    1    1    2    0    0  0.10820494878E+02  0.79492279743E+01 -0.20819862986E+02  0.12743131495E+03  0.12500000000E+03 0.  0.
         25    1    1    2    0    0 -0.10820494878E+02 -0.79492279743E+01 -0.97510453553E+03  0.98317553293E+03  0.12500000000E+03 0.  0.
</event>
<event>
 4    0  0.2270578E-002  0.2061315E+03  0.7546771E-02  0.1144667E+00
         21   -1    0    0  502  501  0.00000000000E+00  0.00000000000E+00  0.31543069976E+03  0.31543069976E+03  0.00000000000E+00 0. -1.
         21   -1    0    0  501  502 -0.00000000000E+00 -0.00000000000E+00 -0.13470535290E+03  0.13470535290E+03  0.00000000000E+00 0. -1.
         25    1    1    2    0    0 -0.79317174934E+02 -0.77267529108E+02 -0.41584812965E+02  0.17209236463E+03  0.12500000000E+03 0.  0.
         25    1    1    2    0    0  0.79317174934E+02  0.77267529108E+02  0.22231015982E+03  0.27804368803E+03  0.12500000000E+03 0.  0.
</event>
<event>
 4    0  0.2270578E-002  0.2125964E+03  0.7546771E-02  0.1139526E+00
         21   -1    0    0  502  501  0.00000000000E+00  0.00000000000E+00  0.19413380344E+03  0.19413380344E+03  0.00000000000E+00 0.  1.
         21   -1    0    0  501  502 -0.00000000000E+00 -0.00000000000E+00 -0.23281489508E+03  0.23281489508E+03  0.00000000000E+00 0.  1.
         25    1    1    2    0    0 -0.31743140123E+02 -0.89697156212E+02 -0.16317674363E+03  0.22650575366E+03  0.12500000000E+03 0.  0.
         25    1    1    2    0    0  0.31743140123E+02  0.89697156212E+02  0.12449565200E+03  0.20044294486E+03  0.12500000000E+03 0.  0.
</event>
<event>
 4    0  0.2270578E-002  0.1980429E+03  0.7546771E-02  0.1151401E+00
         21   -1    0    0  502  501  0.00000000000E+00  0.00000000000E+00  0.16931402596E+03  0.16931402596E+03  0.00000000000E+00 0. -1.
         21   -1    0    0  501  502 -0.00000000000E+00 -0.00000000000E+00 -0.23164639322E+03  0.23164639322E+03  0.00000000000E+00 0. -1.
         25    1    1    2    0    0 -0.74961475128E+02  0.92103226712E+02  0.67468875230E+02  0.18514663445E+03  0.12500000000E+03 0.  0.
         25    1    1    2    0    0  0.74961475128E+02 -0.92103226712E+02 -0.12980124250E+03  0.21581378473E+03  0.12500000000E+03 0.  0.
</event>
<event>
 4    0  0.2270578E-002  0.1625333E+03  0.7546771E-02  0.1185866E+00
         21   -1    0    0  502  501  0.00000000000E+00  0.00000000000E+00  0.10210133267E+03  0.10210133267E+03  0.00000000000E+00 0. -1.
         21   -1    0    0  501  502 -0.00000000000E+00 -0.00000000000E+00 -0.25873390192E+03  0.25873390192E+03  0.00000000000E+00 0. -1.
         25    1    1    2    0    0  0.71542350886E+02 -0.55288860874E+01  0.50708932272E+01  0.14422063136E+03  0.12500000000E+03 0.  0.
         25    1    1    2    0    0 -0.71542350886E+02  0.55288860874E+01 -0.16170346248E+03  0.21661460322E+03  0.12500000000E+03 0.  0.
</event>
<event>
 4    0  0.2270578E-002  0.2427335E+03  0.7546771E-02  0.1117985E+00
         21   -1    0    0  502  501  0.00000000000E+00  0.00000000000E+00  0.65530049743E+02  0.65530049743E+02  0.00000000000E+00 0.  1.
         21   -1    0    0  501  502 -0.00000000000E+00 -0.00000000000E+00 -0.89912288752E+03  0.89912288752E+03  0.00000000000E+00 0.  1.
         25    1    1    2    0    0  0.19576290310E+03 -0.31742062043E+02 -0.54190076023E+03  0.59043382921E+03  0.12500000000E+03 0.  0.
         25    1    1    2    0    0 -0.19576290310E+03  0.31742062043E+02 -0.29169207754E+03  0.37421910805E+03  0.12500000000E+03 0.  0.
</event>
<event>
 4    0  0.2270578E-002  0.1959960E+03  0.7546771E-02  0.1153162E+00
         21   -1    0    0  502  501  0.00000000000E+00  0.00000000000E+00  0.16085470815E+03  0.16085470815E+03  0.00000000000E+00 0. -1.
         21   -1    0    0  501  502 -0.00000000000E+00 -0.00000000000E+00 -0.23881436515E+03  0.23881436515E+03  0.00000000000E+00 0. -1.
         25    1    1    2    0    0 -0.74317946127E+02 -0.78838340599E+02 -0.14616131683E+03  0.22074141343E+03  0.12500000000E+03 0.  0.
         25    1    1    2    0    0  0.74317946127E+02  0.78838340599E+02  0.68201659821E+02  0.17892765987E+03  0.12500000000E+03 0.  0.
</event>
<event>
 4    0  0.2270578E-002  0.2442598E+03  0.7546771E-02  0.1116987E+00
         21   -1    0    0  502  501  0.00000000000E+00  0.00000000000E+00  0.16283419940E+03  0.16283419940E+03  0.00000000000E+00 0.  1.
         21   -1    0    0  501  502 -0.00000000000E+00 -0.00000000000E+00 -0.36640241283E+03  0.36640241283E+03  0.00000000000E+00 0.  1.
         25    1    1    2    0    0  0.58467568758E+02 -0.19530601664E+03 -0.15567940088E+03  0.28534886120E+03  0.12500000000E+03 0.  0.
         25    1    1    2    0    0 -0.58467568758E+02  0.19530601664E+03 -0.47888812558E+02  0.24388775103E+03  0.12500000000E+03 0.  0.
</event>
<event>
 4    0  0.2270578E-002  0.3285798E+03  0.7546771E-02  0.1071767E+00
         21   -1    0    0  502  501  0.00000000000E+00  0.00000000000E+00  0.14478383034E+03  0.14478383034E+03  0.00000000000E+00 0.  1.
         21   -1    0    0  501  502 -0.00000000000E+00 -0.00000000000E+00 -0.74569586136E+03  0.74569586136E+03  0.00000000000E+00 0.  1.
         25    1    1    2    0    0 -0.21108322546E+03  0.19725217441E+03 -0.17280005663E+03  0.35909526306E+03  0.12500000000E+03 0.  0.
         25    1    1    2    0    0  0.21108322546E+03 -0.19725217441E+03 -0.42811197440E+03  0.53138442864E+03  0.12500000000E+03 0.  0.
</event>
<event>
 4    0  0.2270578E-002  0.2065725E+03  0.7546771E-02  0.1144309E+00
         21   -1    0    0  502  501  0.00000000000E+00  0.00000000000E+00  0.21697778439E+03  0.21697778439E+03  0.00000000000E+00 0. -1.
         21   -1    0    0  501  502 -0.00000000000E+00 -0.00000000000E+00 -0.19666619493E+03  0.19666619493E+03  0.00000000000E+00 0. -1.
         25    1    1    2    0    0  0.83533313256E+02  0.11022972494E+03 -0.78939258687E+02  0.20244706282E+03  0.12500000000E+03 0.  0.
         25    1    1    2    0    0 -0.83533313256E+02 -0.11022972494E+03  0.99250848145E+02  0.21119691650E+03  0.12500000000E+03 0.  0.
</event>
<event>
 4    0  0.2270578E-002  0.3225782E+03  0.7546771E-02  0.1074469E+00
         21   -1    0    0  502  501  0.00000000000E+00  0.00000000000E+00  0.46480306743E+03  0.46480306743E+03  0.00000000000E+00 0. -1.
         21   -1    0    0  501  502 -0.00000000000E+00 -0.00000000000E+00 -0.22387263904E+03  0.22387263904E+03  0.00000000000E+00 0. -1.
         25    1    1    2    0    0  0.18102012958E+03  0.14211581240E+03  0.32149430972E+03  0.41466707445E+03  0.12500000000E+03 0.  0.
         25    1    1    2    0    0 -0.18102012958E+03 -0.14211581240E+03 -0.80563881331E+02  0.27400863202E+03  0.12500000000E+03 0.  0.
</event>
<event>
 4    0  0.2270578E-002  0.2250946E+03  0.7546771E-02  0.1130141E+00
         21   -1    0    0  502  501  0.00000000000E+00  0.00000000000E+00  0.35825202452E+03  0.35825202452E+03  0.00000000000E+00 0. -1.
         21   -1    0    0  501  502 -0.00000000000E+00 -0.00000000000E+00 -0.14142995671E+03  0.14142995671E+03  0.00000000000E+00 0. -1.
         25    1    1    2    0    0 -0.15922946868E+03  0.98338002169E+02  0.11314384209E+03  0.25189465133E+03  0.12500000000E+03 0.  0.
         25    1    1    2    0    0  0.15922946868E+03 -0.98338002169E+02  0.10367822573E+03  0.24778732990E+03  0.12500000000E+03 0.  0.
</event>
<event>
 4    0  0.2270578E-002  0.2527775E+03  0.7546771E-02  0.1111562E+00
         21   -1    0    0  502  501  0.00000000000E+00  0.00000000000E+00  0.27699954192E+03  0.27699954192E+03  0.00000000000E+00 0. -1.
         21   -1    0    0  501  502 -0.00000000000E+00 -0.00000000000E+00 -0.23067358642E+03  0.23067358642E+03  0.00000000000E+00 0. -1.
         25    1    1    2    0    0  0.39041706347E+02 -0.21458193264E+03  0.49765799268E+02  0.25626411264E+03  0.12500000000E+03 0.  0.
         25    1    1    2    0    0 -0.39041706347E+02  0.21458193264E+03 -0.34398437699E+01  0.25140901570E+03  0.12500000000E+03 0.  0.
</event>
<event>
 4    0  0.2270578E-002  0.1707234E+03  0.7546771E-02  0.1177096E+00
         21   -1    0    0  502  501  0.00000000000E+00  0.00000000000E+00  0.32610356008E+02  0.32610356008E+02  0.00000000000E+00 0.  1.
         21   -1    0    0  501  502 -0.00000000000E+00 -0.00000000000E+00 -0.89377944189E+03  0.89377944189E+03  0.00000000000E+00 0.  1.
         25    1    1    2    0    0 -0.89333059127E+02 -0.68853720331E+02 -0.50733478150E+03  0.53454168292E+03  0.12500000000E+03 0.  0.
         25    1    1    2    0    0  0.89333059127E+02  0.68853720331E+02 -0.35383430438E+03  0.39184811498E+03  0.12500000000E+03 0.  0.
</event>
<event>
 4    0  0.2270578E-002  0.2161529E+03  0.7546771E-02  0.1136784E+00
         21   -1    0    0  502  501  0.00000000000E+00  0.00000000000E+00  0.18149865537E+04  0.18149865537E+04  0.00000000000E+00 0. -1.
         21   -1    0    0  501  502 -0.00000000000E+00 -0.00000000000E+00 -0.25742378293E+02  0.25742378293E+02  0.00000000000E+00 0. -1.
         25    1    1    2    0    0 -0.14434671134E+03 -0.51481228405E+02  0.12660832398E+04  0.12814359368E+04  0.12500000000E+03 0.  0.
         25    1    1    2    0    0  0.14434671134E+03  0.51481228405E+02  0.52316093557E+03  0.55929299518E+03  0.12500000000E+03 0.  0.
</event>
<event>
 4    0  0.2270578E-002  0.3197826E+03  0.7546771E-02  0.1075749E+00
         21   -1    0    0  502  501  0.00000000000E+00  0.00000000000E+00  0.72606650745E+03  0.72606650745E+03  0.00000000000E+00 0. -1.
         21   -1    0    0  501  502 -0.00000000000E+00 -0.00000000000E+00 -0.14084232260E+03  0.14084232260E+03  0.00000000000E+00 0. -1.
         25    1    1    2    0    0 -0.19232973259E+03  0.39861003783E+02  0.58975382996E+03  0.63404590182E+03  0.12500000000E+03 0.  0.
         25    1    1    2    0    0  0.19232973259E+03 -0.39861003783E+02 -0.45296451102E+01  0.23286292823E+03  0.12500000000E+03 0.  0.
</event>
<event>
 4    0  0.2270578E-002  0.2345879E+03  0.7546771E-02  0.1123452E+00
         21   -1    0    0  502  501  0.00000000000E+00  0.00000000000E+00  0.55543694923E+03  0.55543694923E+03  0.00000000000E+00 0.  1.
         21   -1    0    0  501  502 -0.00000000000E+00 -0.00000000000E+00 -0.99077806805E+02  0.99077806805E+02  0.00000000000E+00 0.  1.
         25    1    1    2    0    0  0.17826560275E+03  0.28215071198E+02  0.11287403711E+03  0.24686081832E+03  0.12500000000E+03 0.  0.
         25    1    1    2    0    0 -0.17826560275E+03 -0.28215071198E+02  0.34348510532E+03  0.40765393772E+03  0.12500000000E+03 0.  0.
</event>
<event>
 4    0  0.2270578E-002  0.2962866E+03  0.7546771E-02  0.1087112E+00
         21   -1    0    0  502  501  0.00000000000E+00  0.00000000000E+00  0.85722389885E+03  0.85722389885E+03  0.00000000000E+00 0.  1.
         21   -1    0    0  501  502 -0.00000000000E+00 -0.00000000000E+00 -0.10240702631E+03  0.10240702631E+03  0.00000000000E+00 0.  1.
         25    1    1    2    0    0 -0.17745547979E+03 -0.18850234145E+03  0.26133730719E+03  0.38851739751E+03  0.12500000000E+03 0.  0.
         25    1    1    2    0    0  0.17745547979E+03  0.18850234145E+03  0.49347956535E+03  0.57111352764E+03  0.12500000000E+03 0.  0.
</event>
<event>
 4    0  0.2270578E-002  0.2047473E+03  0.7546771E-02  0.1145794E+00
         21   -1    0    0  502  501  0.00000000000E+00  0.00000000000E+00  0.65623131187E+02  0.65623131187E+02  0.00000000000E+00 0.  1.
         21   -1    0    0  501  502 -0.00000000000E+00 -0.00000000000E+00 -0.63882137307E+03  0.63882137307E+03  0.00000000000E+00 0.  1.
         25    1    1    2    0    0  0.14345294283E+03  0.71987436844E+02 -0.24678961307E+03  0.31982972186E+03  0.12500000000E+03 0.  0.
         25    1    1    2    0    0 -0.14345294283E+03 -0.71987436844E+02 -0.32640862881E+03  0.38461478239E+03  0.12500000000E+03 0.  0.
</event>
<event>
 4    0  0.2270578E-002  0.2099502E+03  0.7546771E-02  0.1141605E+00
         21   -1    0    0  502  501  0.00000000000E+00  0.00000000000E+00  0.11221201130E+03  0.11221201130E+03  0.00000000000E+00 0. -1.
         21   -1    0    0  501  502 -0.00000000000E+00 -0.00000000000E+00 -0.39281962591E+03  0.39281962591E+03  0.00000000000E+00 0. -1.
         25    1    1    2    0    0 -0.41101067171E+02  0.88373875427E+02 -0.30589315552E+03  0.34452120714E+03  0.12500000000E+03 0.  0.
         25    1    1    2    0    0  0.41101067171E+02 -0.88373875427E+02  0.25285540902E+02  0.16051043006E+03  0.12500000000E+03 0.  0.
</event>
<event>
 4    0  0.2270578E-002  0.1757711E+03  0.7546771E-02  0.1171960E+00
         21   -1    0    0  502  501  0.00000000000E+00  0.00000000000E+00  0.27604722354E+03  0.27604722354E+03  0.00000000000E+00 0.  1.
         21   -1    0    0  501  502 -0.00000000000E+00 -0.00000000000E+00 -0.11192096444E+03  0.11192096444E+03  0.00000000000E+00 0.  1.
         25    1    1    2    0    0 -0.61776127418E+02  0.79884516323E+02  0.34607002244E+01  0.16073208240E+03  0.12500000000E+03 0.  0.
         25    1    1    2    0    0  0.61776127418E+02 -0.79884516323E+02  0.16066555888E+03  0.22723610557E+03  0.12500000000E+03 0.  0.
</event>
<event>
 4    0  0.2270578E-002  0.2079575E+03  0.7546771E-02  0.1143194E+00
         21   -1    0    0  502  501  0.00000000000E+00  0.00000000000E+00  0.24803001948E+03  0.24803001948E+03  0.00000000000E+00 0.  1.
         21   -1    0    0  501  502 -0.00000000000E+00 -0.00000000000E+00 -0.17435919252E+03  0.17435919252E+03  0.00000000000E+00 0.  1.
         25    1    1    2    0    0  0.10353728430E+02  0.11891271029E+03  0.15428108354E+03  0.23167884042E+03  0.12500000000E+03 0.  0.
         25    1    1    2    0    0 -0.10353728430E+02 -0.11891271029E+03 -0.80610256573E+02  0.19071037158E+03  0.12500000000E+03 0.  0.
</event>
<event>
 4    0  0.2270578E-002  0.2725205E+03  0.7546771E-02  0.1099846E+00
         21   -1    0    0  502  501  0.00000000000E+00  0.00000000000E+00  0.19316015379E+03  0.19316015379E+03  0.00000000000E+00 0.  1.
         21   -1    0    0  501  502 -0.00000000000E+00 -0.00000000000E+00 -0.38448621734E+03  0.38448621734E+03  0.00000000000E+00 0.  1.
         25    1    1    2    0    0  0.14303685573E+03 -0.46905312961E+02 -0.29670196402E+03  0.35541061595E+03  0.12500000000E+03 0.  0.
         25    1    1    2    0    0 -0.14303685573E+03  0.46905312961E+02  0.10537590047E+03  0.22223575518E+03  0.12500000000E+03 0.  0.
</event>
<event>
 4    0  0.2270578E-002  0.2308272E+03  0.7546771E-02  0.1126059E+00
         21   -1    0    0  502  501  0.00000000000E+00  0.00000000000E+00  0.15217324445E+03  0.15217324445E+03  0.00000000000E+00 0.  1.
         21   -1    0    0  501  502 -0.00000000000E+00 -0.00000000000E+00 -0.35013516301E+03  0.35013516301E+03  0.00000000000E+00 0.  1.
         25    1    1    2    0    0 -0.17275333560E+03  0.58702368267E+02 -0.27082232178E+02  0.22281860403E+03  0.12500000000E+03 0.  0.
         25    1    1    2    0    0  0.17275333560E+03 -0.58702368267E+02 -0.17087968639E+03  0.27948980343E+03  0.12500000000E+03 0.  0.
</event>
<event>
 4    0  0.2270578E-002  0.2199872E+03  0.7546771E-02  0.1133893E+00
         21   -1    0    0  502  501  0.00000000000E+00  0.00000000000E+00  0.89095882726E+02  0.89095882726E+02  0.00000000000E+00 0. -1.
         21   -1    0    0  501  502 -0.00000000000E+00 -0.00000000000E+00 -0.54317198588E+03  0.54317198588E+03  0.00000000000E+00 0. -1.
         25    1    1    2    0    0  0.79148982595E+02 -0.13532825835E+03 -0.96977848156E+02  0.22272853878E+03  0.12500000000E+03 0.  0.
         25    1    1    2    0    0 -0.79148982595E+02  0.13532825835E+03 -0.35709825500E+03  0.40953932983E+03  0.12500000000E+03 0.  0.
</event>
<event>
 4    0  0.2270578E-002  0.2253787E+03  0.7546771E-02  0.1129935E+00
         21   -1    0    0  502  501  0.00000000000E+00  0.00000000000E+00  0.16285368424E+04  0.16285368424E+04  0.00000000000E+00 0.  1.
         21   -1    0    0  501  502 -0.00000000000E+00 -0.00000000000E+00 -0.31190929879E+02  0.31190929879E+02  0.00000000000E+00 0.  1.
         25    1    1    2    0    0  0.33849579480E+02  0.13318963463E+03  0.12685582656E+04  0.12820882754E+04  0.12500000000E+03 0.  0.
         25    1    1    2    0    0 -0.33849579480E+02 -0.13318963463E+03  0.32878764693E+03  0.37763949684E+03  0.12500000000E+03 0.  0.
</event>
<event>
 4    0  0.2270578E-002  0.4520648E+03  0.7546771E-02  0.1027108E+00
         21   -1    0    0  502  501  0.00000000000E+00  0.00000000000E+00  0.54589789166E+03  0.54589789166E+03  0.00000000000E+00 0.  1.
         21   -1    0    0  501  502 -0.00000000000E+00 -0.00000000000E+00 -0.37436044394E+03  0.37436044394E+03  0.00000000000E+00 0.  1.
         25    1    1    2    0    0  0.18965042505E+03 -0.34026346127E+03  0.28153033358E+03  0.49661940711E+03  0.12500000000E+03 0.  0.
         25    1    1    2    0    0 -0.18965042505E+03  0.34026346127E+03 -0.10999288585E+03  0.42363892849E+03  0.12500000000E+03 0.  0.
</event>
<event>
 4    0  0.2270578E-002  0.2202586E+03  0.7546771E-02  0.1133690E+00
         21   -1    0    0  502  501  0.00000000000E+00  0.00000000000E+00  0.23979699580E+02  0.23979699580E+02  0.00000000000E+00 0.  1.
         21   -1    0    0  501  502 -0.00000000000E+00 -0.00000000000E+00 -0.20231218015E+04  0.20231218015E+04  0.00000000000E+00 0.  1.
         25    1    1    2    0    0  0.16983200523E+03 -0.24611360008E+02 -0.72700619622E+03  0.75737153259E+03  0.12500000000E+03 0.  0.
         25    1    1    2    0    0 -0.16983200523E+03  0.24611360008E+02 -0.12721359057E+04  0.12897299685E+04  0.12500000000E+03 0.  0.
</event>
<event>
 4    0  0.2270578E-002  0.2186844E+03  0.7546771E-02  0.1134868E+00
         21   -1    0    0  502  501  0.00000000000E+00  0.00000000000E+00  0.95252080672E+02  0.95252080672E+02  0.00000000000E+00 0.  1.
         21   -1    0    0  501  502 -0.00000000000E+00 -0.00000000000E+00 -0.50206621317E+03  0.50206621317E+03  0.00000000000E+00 0.  1.
         25    1    1    2    0    0 -0.13869218846E+03 -0.17161100010E+01 -0.35887837469E+03  0.40454561671E+03  0.12500000000E+03 0.  0.
         25    1    1    2    0    0  0.13869218846E+03  0.17161100010E+01 -0.47935757804E+02  0.19277267714E+03  0.12500000000E+03 0.  0.
</event>
<event>
 4    0  0.2270578E-002  0.2692797E+03  0.7546771E-02  0.1101693E+00
         21   -1    0    0  502  501  0.00000000000E+00  0.00000000000E+00  0.58099259958E+02  0.58099259958E+02  0.00000000000E+00 0. -1.
         21   -1    0    0  501  502 -0.00000000000E+00 -0.00000000000E+00 -0.12480633063E+04  0.12480633063E+04  0.00000000000E+00 0. -1.
         25    1    1    2    0    0  0.21481767517E+03  0.86627485165E+02 -0.45702588625E+03  0.52739796687E+03  0.12500000000E+03 0.  0.
         25    1    1    2    0    0 -0.21481767517E+03 -0.86627485165E+02 -0.73293816010E+03  0.77876459940E+03  0.12500000000E+03 0.  0.
</event>
<event>
 4    0  0.2270578E-002  0.4413683E+03  0.7546771E-02  0.1030328E+00
         21   -1    0    0  502  501  0.00000000000E+00  0.00000000000E+00  0.91785572163E+02  0.91785572163E+02  0.00000000000E+00 0.  1.
         21   -1    0    0  501  502 -0.00000000000E+00 -0.00000000000E+00 -0.21224027964E+04  0.21224027964E+04  0.00000000000E+00 0.  1.
         25    1    1    2    0    0  0.19010467808E+03 -0.37728833181E+03 -0.94919723695E+03  0.10464638879E+04  0.12500000000E+03 0.  0.
         25    1    1    2    0    0 -0.19010467808E+03  0.37728833181E+03 -0.10814199873E+04  0.11677244807E+04  0.12500000000E+03 0.  0.
</event>
<event>
 4    0  0.2270578E-002  0.1939212E+03  0.7546771E-02  0.1154972E+00
         21   -1    0    0  502  501  0.00000000000E+00  0.00000000000E+00  0.11740467691E+03  0.11740467691E+03  0.00000000000E+00 0. -1.
         21   -1    0    0  501  502 -0.00000000000E+00 -0.00000000000E+00 -0.32030593781E+03  0.32030593781E+03  0.00000000000E+00 0. -1.
         25    1    1    2    0    0  0.30847491298E+01  0.26986095559E+02 -0.26593939443E+03  0.29510426384E+03  0.12500000000E+03 0.  0.
         25    1    1    2    0    0 -0.30847491298E+01 -0.26986095559E+02  0.63038133528E+02  0.14260635087E+03  0.12500000000E+03 0.  0.
</event>
<event>
 4    0  0.2270578E-002  0.1979110E+03  0.7546771E-02  0.1151514E+00
         21   -1    0    0  502  501  0.00000000000E+00  0.00000000000E+00  0.24088770619E+03  0.24088770619E+03  0.00000000000E+00 0.  1.
         21   -1    0    0  501  502 -0.00000000000E+00 -0.00000000000E+00 -0.16260179446E+03  0.16260179446E+03  0.00000000000E+00 0.  1.
         25    1    1    2    0    0 -0.90978793753E+02 -0.12063071621E+03  0.11888119975E+02  0.19645670770E+03  0.12500000000E+03 0.  0.
         25    1    1    2    0    0  0.90978793753E+02  0.12063071621E+03  0.66397791757E+02  0.20703279295E+03  0.12500000000E+03 0.  0.
</event>
<event>
 4    0  0.2270578E-002  0.2099486E+03  0.7546771E-02  0.1141607E+00
         21   -1    0    0  502  501  0.00000000000E+00  0.00000000000E+00  0.66234523404E+02  0.66234523404E+02  0.00000000000E+00 0.  1.
         21   -1    0    0  501  502 -0.00000000000E+00 -0.00000000000E+00 -0.66548972625E+03  0.66548972625E+03  0.00000000000E+00 0.  1.
         25    1    1    2    0    0 -0.35068809332E+02 -0.54927687256E+02 -0.28501849351E+02  0.14382012249E+03  0.12500000000E+03 0.  0.
         25    1    1    2    0    0  0.35068809332E+02  0.54927687256E+02 -0.57075335349E+03  0.58790412717E+03  0.12500000000E+03 0.  0.
</event>
<event>
 4    0  0.2270578E-002  0.3821360E+03  0.7546771E-02  0.1050147E+00
         21   -1    0    0  502  501  0.00000000000E+00  0.00000000000E+00  0.20361343992E+03  0.20361343992E+03  0.00000000000E+00 0.  1.
         21   -1    0    0  501  502 -0.00000000000E+00 -0.00000000000E+00 -0.71718200285E+03  0.71718200285E+03  0.00000000000E+00 0.  1.
         25    1    1    2    0    0 -0.30025054863E+03  0.12037052086E+03 -0.45016678681E+03  0.56825574365E+03  0.12500000000E+03 0.  0.
         25    1    1    2    0    0  0.30025054863E+03 -0.12037052086E+03 -0.63401776117E+02  0.35253969913E+03  0.12500000000E+03 0.  0.
</event>
<event>
 4    0  0.2270578E-002  0.5574088E+03  0.7546771E-02  0.9997935E-01
         21   -1    0    0  502  501  0.00000000000E+00  0.00000000000E+00  0.45016125023E+03  0.45016125023E+03  0.00000000000E+00 0. -1.
         21   -1    0    0  501  502 -0.00000000000E+00 -0.00000000000E+00 -0.69020730947E+03  0.69020730947E+03  0.00000000000E+00 0.  1.
         25    1    1    2    0    0  0.18680129764E+03  0.36053615589E+03  0.24907732865E+03  0.49248914724E+03  0.12500000000E+03 0.  0.
         25    1    1    2    0    0 -0.18680129764E+03 -0.36053615589E+03 -0.48912338790E+03  0.64787941246E+03  0.12500000000E+03 0.  0.
</event>
<event>
 4    0  0.2270578E-002  0.3887072E+03  0.7546771E-02  0.1047762E+00
         21   -1    0    0  502  501  0.00000000000E+00  0.00000000000E+00  0.91366541258E+03  0.91366541258E+03  0.00000000000E+00 0.  1.
         21   -1    0    0  501  502 -0.00000000000E+00 -0.00000000000E+00 -0.16537046393E+03  0.16537046393E+03  0.00000000000E+00 0.  1.
         25    1    1    2    0    0  0.34048472011E+03  0.56924036652E+02  0.19695242611E+03  0.41663587067E+03  0.12500000000E+03 0.  0.
         25    1    1    2    0    0 -0.34048472011E+03 -0.56924036652E+02  0.55134252254E+03  0.66240000584E+03  0.12500000000E+03 0.  0.
</event>
<event>
 4    0  0.2270578E-002  0.2364969E+03  0.7546771E-02  0.1122149E+00
         21   -1    0    0  502  501  0.00000000000E+00  0.00000000000E+00  0.17481080980E+03  0.17481080980E+03  0.00000000000E+00 0. -1.
         21   -1    0    0  501  502 -0.00000000000E+00 -0.00000000000E+00 -0.31995048031E+03  0.31995048031E+03  0.00000000000E+00 0. -1.
         25    1    1    2    0    0  0.57712132921E+02 -0.15482612511E+03  0.46713120698E+02  0.21238864129E+03  0.12500000000E+03 0.  0.
         25    1    1    2    0    0 -0.57712132921E+02  0.15482612511E+03 -0.19185279121E+03  0.28237264881E+03  0.12500000000E+03 0.  0.
</event>
<event>
 4    0  0.2270578E-002  0.2296615E+03  0.7546771E-02  0.1126878E+00
         21   -1    0    0  502  501  0.00000000000E+00  0.00000000000E+00  0.53145731821E+03  0.53145731821E+03  0.00000000000E+00 0.  1.
         21   -1    0    0  501  502 -0.00000000000E+00 -0.00000000000E+00 -0.99244858521E+02  0.99244858521E+02  0.00000000000E+00 0.  1.
         25    1    1    2    0    0 -0.52391626218E+02 -0.75841916901E+02 -0.16199606267E+02  0.15615475049E+03  0.12500000000E+03 0.  0.
         25    1    1    2    0    0  0.52391626218E+02  0.75841916901E+02  0.44841206595E+03  0.47454742624E+03  0.12500000000E+03 0.  0.
</event>
<event>
 4    0  0.2270578E-002  0.1969309E+03  0.7546771E-02  0.1152355E+00
         21   -1    0    0  502  501  0.00000000000E+00  0.00000000000E+00  0.29834660452E+03  0.29834660452E+03  0.00000000000E+00 0. -1.
         21   -1    0    0  501  502 -0.00000000000E+00 -0.00000000000E+00 -0.12998895982E+03  0.12998895982E+03  0.00000000000E+00 0. -1.
         25    1    1    2    0    0  0.14531361095E+03  0.14090495371E+01  0.13328324636E+03  0.23346831628E+03  0.12500000000E+03 0.  0.
         25    1    1    2    0    0 -0.14531361095E+03 -0.14090495371E+01  0.35074398345E+02  0.19486724806E+03  0.12500000000E+03 0.  0.
</event>
<event>
 4    0  0.2270578E-002  0.1951612E+03  0.7546771E-02  0.1153887E+00
         21   -1    0    0  502  501  0.00000000000E+00  0.00000000000E+00  0.26325080026E+03  0.26325080026E+03  0.00000000000E+00 0.  1.
         21   -1    0    0  501  502 -0.00000000000E+00 -0.00000000000E+00 -0.14468289158E+03  0.14468289158E+03  0.00000000000E+00 0.  1.
         25    1    1    2    0    0  0.82726303674E+02 -0.91050930110E+02  0.14875607369E+03  0.22997235193E+03  0.12500000000E+03 0.  0.
         25    1    1    2    0    0 -0.82726303674E+02  0.91050930110E+02 -0.30188165012E+02  0.17796133990E+03  0.12500000000E+03 0.  0.
</event>
<event>
 4    0  0.2270578E-002  0.2317331E+03  0.7546771E-02  0.1125426E+00
         21   -1    0    0  502  501  0.00000000000E+00  0.00000000000E+00  0.64075353451E+03  0.64075353451E+03  0.00000000000E+00 0.  1.
         21   -1    0    0  501  502 -0.00000000000E+00 -0.00000000000E+00 -0.83807898955E+02  0.83807898955E+02  0.00000000000E+00 0.  1.
         25    1    1    2    0    0 -0.27993032440E+02  0.75324723020E+02  0.48680231282E+00  0.14860235779E+03  0.12500000000E+03 0.  0.
         25    1    1    2    0    0  0.27993032440E+02 -0.75324723020E+02  0.55645883324E+03  0.57595907568E+03  0.12500000000E+03 0.  0.
</event>
<event>
 4    0  0.2270578E-002  0.1996366E+03  0.7546771E-02  0.1150046E+00
         21   -1    0    0  502  501  0.00000000000E+00  0.00000000000E+00  0.36427376707E+02  0.36427376707E+02  0.00000000000E+00 0.  1.
         21   -1    0    0  501  502 -0.00000000000E+00 -0.00000000000E+00 -0.10940880002E+04  0.10940880002E+04  0.00000000000E+00 0.  1.
         25    1    1    2    0    0  0.64555002879E+02 -0.56989538265E+02 -0.16167512247E+03  0.22176338988E+03  0.12500000000E+03 0.  0.
         25    1    1    2    0    0 -0.64555002879E+02  0.56989538265E+02 -0.89598550101E+03  0.90875198700E+03  0.12500000000E+03 0.  0.
</event>
<event>
 4    0  0.2270578E-002  0.3077246E+03  0.7546771E-02  0.1081442E+00
         21   -1    0    0  502  501  0.00000000000E+00  0.00000000000E+00  0.25646859422E+04  0.25646859422E+04  0.00000000000E+00 0. -1.
         21   -1    0    0  501  502 -0.00000000000E+00 -0.00000000000E+00 -0.36922425513E+02  0.36922425513E+02  0.00000000000E+00 0. -1.
         25    1    1    2    0    0 -0.23558632405E+03  0.78621342200E+02  0.18212785563E+04  0.18423796599E+04  0.12500000000E+03 0.  0.
         25    1    1    2    0    0  0.23558632405E+03 -0.78621342200E+02  0.70648496037E+03  0.75922870781E+03  0.12500000000E+03 0.  0.
</event>
<event>
 4    0  0.2270578E-002  0.1928461E+03  0.7546771E-02  0.1155919E+00
         21   -1    0    0  502  501  0.00000000000E+00  0.00000000000E+00  0.59095775915E+03  0.59095775915E+03  0.00000000000E+00 0. -1.
         21   -1    0    0  501  502 -0.00000000000E+00 -0.00000000000E+00 -0.62931107242E+02  0.62931107242E+02  0.00000000000E+00 0. -1.
         25    1    1    2    0    0 -0.93061783288E+01 -0.13255904526E+03  0.36997184251E+03  0.41250778136E+03  0.12500000000E+03 0.  0.
         25    1    1    2    0    0  0.93061783288E+01  0.13255904526E+03  0.15805480940E+03  0.24138108503E+03  0.12500000000E+03 0.  0.
</event>
<event>
 4    0  0.2270578E-002  0.1535948E+03  0.7546771E-02  0.1196124E+00
         21   -1    0    0  502  501  0.00000000000E+00  0.00000000000E+00  0.30887156308E+02  0.30887156308E+02  0.00000000000E+00 0. -1.
         21   -1    0    0  501  502 -0.00000000000E+00 -0.00000000000E+00 -0.76379223191E+03  0.76379223191E+03  0.00000000000E+00 0. -1.
         25    1    1    2    0    0 -0.57358416481E+02  0.67031259864E+02 -0.33143875806E+03  0.36504770658E+03  0.12500000000E+03 0.  0.
         25    1    1    2    0    0  0.57358416481E+02 -0.67031259864E+02 -0.40146631755E+03  0.42963168164E+03  0.12500000000E+03 0.  0.
</event>
<event>
 4    0  0.2270578E-002  0.2132583E+03  0.7546771E-02  0.1139011E+00
         21   -1    0    0  502  501  0.00000000000E+00  0.00000000000E+00  0.23026217406E+03  0.23026217406E+03  0.00000000000E+00 0.  1.
         21   -1    0    0  501  502 -0.00000000000E+00 -0.00000000000E+00 -0.19751001392E+03  0.19751001392E+03  0.00000000000E+00 0.  1.
         25    1    1    2    0    0  0.91450152682E+02 -0.67033154562E+02 -0.11438224661E+03  0.20387464917E+03  0.12500000000E+03 0.  0.
         25    1    1    2    0    0 -0.91450152682E+02  0.67033154562E+02  0.14713440675E+03  0.22389753881E+03  0.12500000000E+03 0.  0.
</event>
<event>
 4    0  0.2270578E-002  0.1970921E+03  0.7546771E-02  0.1152216E+00
         21   -1    0    0  502  501  0.00000000000E+00  0.00000000000E+00  0.18557311252E+03  0.18557311252E+03  0.00000000000E+00 0.  1.
         21   -1    0    0  501  502 -0.00000000000E+00 -0.00000000000E+00 -0.20932613939E+03  0.20932613939E+03  0.00000000000E+00 0.  1.
         25    1    1    2    0    0  0.12983216678E+03 -0.56791976414E+02 -0.68001192888E+02  0.20082550224E+03  0.12500000000E+03 0.  0.
         25    1    1    2    0    0 -0.12983216678E+03  0.56791976414E+02  0.44248166014E+02  0.19407374967E+03  0.12500000000E+03 0.  0.
</event>
<event>
 4    0  0.2270578E-002  0.1827001E+03  0.7546771E-02  0.1165215E+00
         21   -1    0    0  502  501  0.00000000000E+00  0.00000000000E+00  0.28852964402E+02  0.28852964402E+02  0.00000000000E+00 0. -1.
         21   -1    0    0  501  502 -0.00000000000E+00 -0.00000000000E+00 -0.11568762812E+04  0.11568762812E+04  0.00000000000E+00 0. -1.
         25    1    1    2    0    0  0.75157430889E+02  0.35918695039E+02 -0.22653750111E+03  0.27181433273E+03  0.12500000000E+03 0.  0.
         25    1    1    2    0    0 -0.75157430889E+02 -0.35918695039E+02 -0.90148581565E+03  0.91391491282E+03  0.12500000000E+03 0.  0.
</event>
<event>
 4    0  0.2270578E-002  0.2143567E+03  0.7546771E-02  0.1138162E+00
         21   -1    0    0  502  501  0.00000000000E+00  0.00000000000E+00  0.53676999013E+03  0.53676999013E+03  0.00000000000E+00 0. -1.
         21   -1    0    0  501  502 -0.00000000000E+00 -0.00000000000E+00 -0.85602364847E+02  0.85602364847E+02  0.00000000000E+00 0. -1.
         25    1    1    2    0    0  0.12217228547E+03  0.10166709532E+03  0.32886555692E+03  0.38605675766E+03  0.12500000000E+03 0.  0.
         25    1    1    2    0    0 -0.12217228547E+03 -0.10166709532E+03  0.12230206836E+03  0.23631559731E+03  0.12500000000E+03 0.  0.
</event>
<event>
 4    0  0.2270578E-002  0.2170680E+03  0.7546771E-02  0.1136088E+00
         21   -1    0    0  502  501  0.00000000000E+00  0.00000000000E+00  0.60116471217E+02  0.60116471217E+02  0.00000000000E+00 0.  1.
         21   -1    0    0  501  502 -0.00000000000E+00 -0.00000000000E+00 -0.78378720803E+03  0.78378720803E+03  0.00000000000E+00 0.  1.
         25    1    1    2    0    0 -0.83208611634E+02  0.11918657787E+03 -0.16393832585E+03  0.25224965427E+03  0.12500000000E+03 0.  0.
         25    1    1    2    0    0  0.83208611634E+02 -0.11918657787E+03 -0.55973241097E+03  0.59165402498E+03  0.12500000000E+03 0.  0.
</event>
<event>
 4    0  0.2270578E-002  0.2081091E+03  0.7546771E-02  0.1143072E+00
         21   -1    0    0  502  501  0.00000000000E+00  0.00000000000E+00  0.26954931537E+03  0.26954931537E+03  0.00000000000E+00 0.  1.
         21   -1    0    0  501  502 -0.00000000000E+00 -0.00000000000E+00 -0.16067338986E+03  0.16067338986E+03  0.00000000000E+00 0.  1.
         25    1    1    2    0    0  0.47626957719E+02 -0.13854742323E+03  0.13596307381E+03  0.23574281119E+03  0.12500000000E+03 0.  0.
         25    1    1    2    0    0 -0.47626957719E+02  0.13854742323E+03 -0.27087148307E+02  0.19447989405E+03  0.12500000000E+03 0.  0.
</event>
<event>
 4    0  0.2270578E-002  0.4021046E+03  0.7546771E-02  0.1043053E+00
         21   -1    0    0  502  501  0.00000000000E+00  0.00000000000E+00  0.83171770037E+02  0.83171770037E+02  0.00000000000E+00 0. -1.
         21   -1    0    0  501  502 -0.00000000000E+00 -0.00000000000E+00 -0.19440259840E+04  0.19440259840E+04  0.00000000000E+00 0. -1.
         25    1    1    2    0    0 -0.32958130991E+02  0.27027974734E+03 -0.16064620901E+04  0.16341611999E+04  0.12500000000E+03 0.  0.
         25    1    1    2    0    0  0.32958130991E+02 -0.27027974734E+03 -0.25439212382E+03  0.39303655413E+03  0.12500000000E+03 0.  0.
</event>
<event>
 4    0  0.2270578E-002  0.1702871E+03  0.7546771E-02  0.1177549E+00
         21   -1    0    0  502  501  0.00000000000E+00  0.00000000000E+00  0.21677751323E+03  0.21677751323E+03  0.00000000000E+00 0.  1.
         21   -1    0    0  501  502 -0.00000000000E+00 -0.00000000000E+00 -0.13376709928E+03  0.13376709928E+03  0.00000000000E+00 0.  1.
         25    1    1    2    0    0 -0.37927759245E+02 -0.10597375060E+03  0.68810084958E+02  0.18173821428E+03  0.12500000000E+03 0.  0.
         25    1    1    2    0    0  0.37927759245E+02  0.10597375060E+03  0.14200328988E+02  0.16880639823E+03  0.12500000000E+03 0.  0.
</event>
<event>
 4    0  0.2270578E-002  0.2694925E+03  0.7546771E-02  0.1101570E+00
         21   -1    0    0  502  501  0.00000000000E+00  0.00000000000E+00  0.38050876982E+03  0.38050876982E+03  0.00000000000E+00 0.  1.
         21   -1    0    0  501  502 -0.00000000000E+00 -0.00000000000E+00 -0.19086601574E+03  0.19086601574E+03  0.00000000000E+00 0.  1.
         25    1    1    2    0    0  0.11237828622E+03  0.14566394243E+03 -0.66488344369E+02  0.23214771865E+03  0.12500000000E+03 0.  0.
         25    1    1    2    0    0 -0.11237828622E+03 -0.14566394243E+03  0.25613109845E+03  0.33922706692E+03  0.12500000000E+03 0.  0.
</event>
<event>
 4    0  0.2270578E-002  0.2678240E+03  0.7546771E-02  0.1102531E+00
         21   -1    0    0  502  501  0.00000000000E+00  0.00000000000E+00  0.12433391098E+03  0.12433391098E+03  0.00000000000E+00 0. -1.
         21   -1    0    0  501  502 -0.00000000000E+00 -0.00000000000E+00 -0.57691189866E+03  0.57691189866E+03  0.00000000000E+00 0. -1.
         25    1    1    2    0    0 -0.33230313040E+02 -0.21615759872E+03 -0.34538856576E+03  0.42748873967E+03  0.12500000000E+03 0.  0.
         25    1    1    2    0    0  0.33230313040E+02  0.21615759872E+03 -0.10718942192E+03  0.27375706997E+03  0.12500000000E+03 0.  0.
</event>
<event>
 4    0  0.2270578E-002  0.2015129E+03  0.7546771E-02  0.1148469E+00
         21   -1    0    0  502  501  0.00000000000E+00  0.00000000000E+00  0.24254005005E+02  0.24254005005E+02  0.00000000000E+00 0. -1.
         21   -1    0    0  501  502 -0.00000000000E+00 -0.00000000000E+00 -0.16742581150E+04  0.16742581150E+04  0.00000000000E+00 0. -1.
         25    1    1    2    0    0  0.11740891359E+03 -0.45450253755E+02 -0.12277338899E+04  0.12404862285E+04  0.12500000000E+03 0.  0.
         25    1    1    2    0    0 -0.11740891359E+03  0.45450253755E+02 -0.42227022005E+03  0.45802589152E+03  0.12500000000E+03 0.  0.
</event>
<event>
 4    0  0.2270578E-002  0.2183252E+03  0.7546771E-02  0.1135138E+00
         21   -1    0    0  502  501  0.00000000000E+00  0.00000000000E+00  0.40635049357E+02  0.40635049357E+02  0.00000000000E+00 0.  1.
         21   -1    0    0  501  502 -0.00000000000E+00 -0.00000000000E+00 -0.11730238582E+04  0.11730238582E+04  0.00000000000E+00 0.  1.
         25    1    1    2    0    0 -0.57110989580E+02  0.11117100303E+03 -0.92236034783E+03  0.93914549900E+03  0.12500000000E+03 0.  0.
         25    1    1    2    0    0  0.57110989580E+02 -0.11117100303E+03 -0.21002846106E+03  0.27451340860E+03  0.12500000000E+03 0.  0.
</event>
<event>
 4    0  0.2270578E-002  0.1801759E+03  0.7546771E-02  0.1167633E+00
         21   -1    0    0  502  501  0.00000000000E+00  0.00000000000E+00  0.80675182853E+02  0.80675182853E+02  0.00000000000E+00 0.  1.
         21   -1    0    0  501  502 -0.00000000000E+00 -0.00000000000E+00 -0.40239575316E+03  0.40239575316E+03  0.00000000000E+00 0.  1.
         25    1    1    2    0    0 -0.64228726909E+02 -0.11232747340E+03 -0.17396486345E+03  0.25026299038E+03  0.12500000000E+03 0.  0.
         25    1    1    2    0    0  0.64228726909E+02  0.11232747340E+03 -0.14775570685E+03  0.23280794563E+03  0.12500000000E+03 0.  0.
</event>
<event>
 4    0  0.2270578E-002  0.2578189E+03  0.7546771E-02  0.1108461E+00
         21   -1    0    0  502  501  0.00000000000E+00  0.00000000000E+00  0.14276103525E+03  0.14276103525E+03  0.00000000000E+00 0.  1.
         21   -1    0    0  501  502 -0.00000000000E+00 -0.00000000000E+00 -0.46560718117E+03  0.46560718117E+03  0.00000000000E+00 0.  1.
         25    1    1    2    0    0 -0.33495202724E+01  0.10064544514E+03 -0.39946028696E+03  0.43050464083E+03  0.12500000000E+03 0.  0.
         25    1    1    2    0    0  0.33495202724E+01 -0.10064544514E+03  0.76614141046E+02  0.17786357559E+03  0.12500000000E+03 0.  0.
</event>
<event>
 4    0  0.2270578E-002  0.4417759E+03  0.7546771E-02  0.1030203E+00
         21   -1    0    0  502  501  0.00000000000E+00  0.00000000000E+00  0.30624201778E+03  0.30624201778E+03  0.00000000000E+00 0.  1.
         21   -1    0    0  501  502 -0.00000000000E+00 -0.00000000000E+00 -0.63729311588E+03  0.63729311588E+03  0.00000000000E+00 0.  1.
         25    1    1    2    0    0  0.36435787740E+03 -0.17134140445E+03 -0.24554544930E+02  0.42230612756E+03  0.12500000000E+03 0.  0.
         25    1    1    2    0    0 -0.36435787740E+03  0.17134140445E+03 -0.30649655316E+03  0.52122900610E+03  0.12500000000E+03 0.  0.
</event>
<event>
 4    0  0.2270578E-002  0.2925892E+03  0.7546771E-02  0.1089005E+00
         21   -1    0    0  502  501  0.00000000000E+00  0.00000000000E+00  0.40124709194E+02  0.40124709194E+02  0.00000000000E+00 0. -1.
         21   -1    0    0  501  502 -0.00000000000E+00 -0.00000000000E+00 -0.21335598168E+04  0.21335598168E+04  0.00000000000E+00 0. -1.
         25    1    1    2    0    0  0.23480959429E+03 -0.72687881732E+00 -0.59409805061E+03  0.65093284421E+03  0.12500000000E+03 0.  0.
         25    1    1    2    0    0 -0.23480959429E+03  0.72687881732E+00 -0.14993370570E+04  0.15227516818E+04  0.12500000000E+03 0.  0.
</event>
<event>
 4    0  0.2270578E-002  0.2910065E+03  0.7546771E-02  0.1089825E+00
         21   -1    0    0  502  501  0.00000000000E+00  0.00000000000E+00  0.39519886004E+03  0.39519886004E+03  0.00000000000E+00 0.  1.
         21   -1    0    0  501  502 -0.00000000000E+00 -0.00000000000E+00 -0.21428392424E+03  0.21428392424E+03  0.00000000000E+00 0.  1.
         25    1    1    2    0    0  0.21112875772E+03  0.13058440099E+03  0.17876782357E+00  0.27794364551E+03  0.12500000000E+03 0.  0.
         25    1    1    2    0    0 -0.21112875772E+03 -0.13058440099E+03  0.18073616798E+03  0.33153913877E+03  0.12500000000E+03 0.  0.
</event>
<event>
 4    0  0.2270578E-002  0.3938875E+03  0.7546771E-02  0.1045917E+00
         21   -1    0    0  502  501  0.00000000000E+00  0.00000000000E+00  0.32033682383E+03  0.32033682383E+03  0.00000000000E+00 0. -1.
         21   -1    0    0  501  502 -0.00000000000E+00 -0.00000000000E+00 -0.48432583682E+03  0.48432583682E+03  0.00000000000E+00 0.  1.
         25    1    1    2    0    0 -0.84266510006E+02  0.27171276076E+03  0.16525599383E+03  0.35194205853E+03  0.12500000000E+03 0.  0.
         25    1    1    2    0    0  0.84266510006E+02 -0.27171276076E+03 -0.32924500682E+03  0.45272060212E+03  0.12500000000E+03 0.  0.
</event>
<event>
 4    0  0.2270578E-002  0.2601312E+03  0.7546771E-02  0.1107064E+00
         21   -1    0    0  502  501  0.00000000000E+00  0.00000000000E+00  0.54344895070E+02  0.54344895070E+02  0.00000000000E+00 0.  1.
         21   -1    0    0  501  502 -0.00000000000E+00 -0.00000000000E+00 -0.12451627111E+04  0.12451627111E+04  0.00000000000E+00 0.  1.
         25    1    1    2    0    0  0.10824696303E+03 -0.12120912221E+02 -0.10960834441E+04  0.11085523163E+04  0.12500000000E+03 0.  0.
         25    1    1    2    0    0 -0.10824696303E+03  0.12120912221E+02 -0.94734371976E+02  0.19095528993E+03  0.12500000000E+03 0.  0.
</event>
<event>
 4    0  0.2270578E-002  0.1804198E+03  0.7546771E-02  0.1167397E+00
         21   -1    0    0  502  501  0.00000000000E+00  0.00000000000E+00  0.90233321035E+03  0.90233321035E+03  0.00000000000E+00 0.  1.
         21   -1    0    0  501  502 -0.00000000000E+00 -0.00000000000E+00 -0.36074611851E+02  0.36074611851E+02  0.00000000000E+00 0.  1.
         25    1    1    2    0    0  0.12682729212E+03 -0.24120610605E+02  0.39124761245E+03  0.43054228611E+03  0.12500000000E+03 0.  0.
         25    1    1    2    0    0 -0.12682729212E+03  0.24120610605E+02  0.47501098606E+03  0.50786553610E+03  0.12500000000E+03 0.  0.
</event>
<event>
 4    0  0.2270578E-002  0.2735869E+03  0.7546771E-02  0.1099244E+00
         21   -1    0    0  502  501  0.00000000000E+00  0.00000000000E+00  0.46027248999E+02  0.46027248999E+02  0.00000000000E+00 0. -1.
         21   -1    0    0  501  502 -0.00000000000E+00 -0.00000000000E+00 -0.16262066614E+04  0.16262066614E+04  0.00000000000E+00 0. -1.
         25    1    1    2    0    0 -0.17524427635E+03  0.14538095964E+03 -0.10526081299E+04  0.10841840503E+04  0.12500000000E+03 0.  0.
         25    1    1    2    0    0  0.17524427635E+03 -0.14538095964E+03 -0.52757128245E+03  0.58804986004E+03  0.12500000000E+03 0.  0.
</event>
<event>
 4    0  0.2270578E-002  0.2185435E+03  0.7546771E-02  0.1134974E+00
         21   -1    0    0  502  501  0.00000000000E+00  0.00000000000E+00  0.42905272759E+02  0.42905272759E+02  0.00000000000E+00 0. -1.
         21   -1    0    0  501  502 -0.00000000000E+00 -0.00000000000E+00 -0.11131788267E+04  0.11131788267E+04  0.00000000000E+00 0. -1.
         25    1    1    2    0    0  0.41085444242E+02  0.95819075003E+02 -0.14941509249E+03  0.22095062509E+03  0.12500000000E+03 0.  0.
         25    1    1    2    0    0 -0.41085444242E+02 -0.95819075003E+02 -0.92085846141E+03  0.93513347433E+03  0.12500000000E+03 0.  0.
</event>
<event>
 4    0  0.2270578E-002  0.1702693E+03  0.7546771E-02  0.1177567E+00
         21   -1    0    0  502  501  0.00000000000E+00  0.00000000000E+00  0.76309860686E+02  0.76309860686E+02  0.00000000000E+00 0. -1.
         21   -1    0    0  501  502 -0.00000000000E+00 -0.00000000000E+00 -0.37991972231E+03  0.37991972231E+03  0.00000000000E+00 0. -1.
         25    1    1    2    0    0 -0.47441697625E+02  0.97702385587E+02 -0.98717977158E+02  0.19278669518E+03  0.12500000000E+03 0.  0.
         25    1    1    2    0    0  0.47441697625E+02 -0.97702385587E+02 -0.20489188447E+03  0.26344288782E+03  0.12500000000E+03 0.  0.
</event>
<event>
 4    0  0.2270578E-002  0.1886696E+03  0.7546771E-02  0.1159667E+00
         21   -1    0    0  502  501  0.00000000000E+00  0.00000000000E+00  0.37359798267E+02  0.37359798267E+02  0.00000000000E+00 0. -1.
         21   -1    0    0  501  502 -0.00000000000E+00 -0.00000000000E+00 -0.95279491734E+03  0.95279491734E+03  0.00000000000E+00 0. -1.
         25    1    1    2    0    0  0.69360006495E+02 -0.98659934991E+02 -0.65101953761E+03  0.67379227632E+03  0.12500000000E+03 0.  0.
         25    1    1    2    0    0 -0.69360006495E+02  0.98659934991E+02 -0.26441558146E+03  0.31636243929E+03  0.12500000000E+03 0.  0.
</event>
<event>
 4    0  0.2270578E-002  0.2054192E+03  0.7546771E-02  0.1145246E+00
         21   -1    0    0  502  501  0.00000000000E+00  0.00000000000E+00  0.15623536497E+03  0.15623536497E+03  0.00000000000E+00 0. -1.
         21   -1    0    0  501  502 -0.00000000000E+00 -0.00000000000E+00 -0.27008650702E+03  0.27008650702E+03  0.00000000000E+00 0. -1.
         25    1    1    2    0    0 -0.12755382267E+03 -0.20116561617E+02 -0.16016064845E+03  0.24073032015E+03  0.12500000000E+03 0.  0.
         25    1    1    2    0    0  0.12755382267E+03  0.20116561617E+02  0.46309506397E+02  0.18559155183E+03  0.12500000000E+03 0.  0.
</event>
<event>
 4    0  0.2270578E-002  0.1977377E+03  0.7546771E-02  0.1151662E+00
         21   -1    0    0  502  501  0.00000000000E+00  0.00000000000E+00  0.48652183192E+03  0.48652183192E+03  0.00000000000E+00 0. -1.
         21   -1    0    0  501  502 -0.00000000000E+00 -0.00000000000E+00 -0.80366755942E+02  0.80366755942E+02  0.00000000000E+00 0. -1.
         25    1    1    2    0    0  0.13108343381E+03  0.57214183585E+02  0.28183636455E+03  0.33987213155E+03  0.12500000000E+03 0.  0.
         25    1    1    2    0    0 -0.13108343381E+03 -0.57214183585E+02  0.12431871143E+03  0.22701645631E+03  0.12500000000E+03 0.  0.
</event>
<event>
 4    0  0.2270578E-002  0.3557302E+03  0.7546771E-02  0.1060287E+00
         21   -1    0    0  502  501  0.00000000000E+00  0.00000000000E+00  0.47421111370E+03  0.47421111370E+03  0.00000000000E+00 0. -1.
         21   -1    0    0  501  502 -0.00000000000E+00 -0.00000000000E+00 -0.26685160031E+03  0.26685160031E+03  0.00000000000E+00 0. -1.
         25    1    1    2    0    0  0.18265678869E+03  0.27813300387E+03  0.89040654529E+02  0.36643513540E+03  0.12500000000E+03 0.  0.
         25    1    1    2    0    0 -0.18265678869E+03 -0.27813300387E+03  0.11831885886E+03  0.37462757861E+03  0.12500000000E+03 0.  0.
</event>
<event>
 4    0  0.2270578E-002  0.1991981E+03  0.7546771E-02  0.1150417E+00
         21   -1    0    0  502  501  0.00000000000E+00  0.00000000000E+00  0.63396470550E+02  0.63396470550E+02  0.00000000000E+00 0. -1.
         21   -1    0    0  501  502 -0.00000000000E+00 -0.00000000000E+00 -0.62590023313E+03  0.62590023313E+03  0.00000000000E+00 0. -1.
         25    1    1    2    0    0 -0.92781748839E+02  0.12022678831E+03 -0.33574379908E+03  0.38911673334E+03  0.12500000000E+03 0.  0.
         25    1    1    2    0    0  0.92781748839E+02 -0.12022678831E+03 -0.22675996350E+03  0.30017997034E+03  0.12500000000E+03 0.  0.
</event>
<event>
 4    0  0.2270578E-002  0.2872282E+03  0.7546771E-02  0.1091805E+00
         21   -1    0    0  502  501  0.00000000000E+00  0.00000000000E+00  0.10771961884E+04  0.10771961884E+04  0.00000000000E+00 0.  1.
         21   -1    0    0  501  502 -0.00000000000E+00 -0.00000000000E+00 -0.76587768738E+02  0.76587768738E+02  0.00000000000E+00 0.  1.
         25    1    1    2    0    0  0.11486113356E+03 -0.14954052088E+03  0.14485665829E+03  0.26863339114E+03  0.12500000000E+03 0.  0.
         25    1    1    2    0    0 -0.11486113356E+03  0.14954052088E+03  0.85575176136E+03  0.88515056598E+03  0.12500000000E+03 0.  0.
</event>
<event>
 4    0  0.2270578E-002  0.1961101E+03  0.7546771E-02  0.1153063E+00
         21   -1    0    0  502  501  0.00000000000E+00  0.00000000000E+00  0.30364734607E+02  0.30364734607E+02  0.00000000000E+00 0. -1.
         21   -1    0    0  501  502 -0.00000000000E+00 -0.00000000000E+00 -0.12665730131E+04  0.12665730131E+04  0.00000000000E+00 0. -1.
         25    1    1    2    0    0 -0.89475656049E+02  0.50611357495E+02 -0.98433424945E+03  0.99755015773E+03  0.12500000000E+03 0.  0.
         25    1    1    2    0    0  0.89475656049E+02 -0.50611357495E+02 -0.25187402907E+03  0.29938759001E+03  0.12500000000E+03 0.  0.
</event>
<event>
 4    0  0.2270578E-002  0.2365474E+03  0.7546771E-02  0.1122114E+00
         21   -1    0    0  502  501  0.00000000000E+00  0.00000000000E+00  0.86195234139E+02  0.86195234139E+02  0.00000000000E+00 0.  1.
         21   -1    0    0  501  502 -0.00000000000E+00 -0.00000000000E+00 -0.64916200703E+03  0.64916200703E+03  0.00000000000E+00 0.  1.
         25    1    1    2    0    0  0.14406537174E+03 -0.11695349699E+03 -0.16212431417E+03  0.27630100441E+03  0.12500000000E+03 0.  0.
         25    1    1    2    0    0 -0.14406537174E+03  0.11695349699E+03 -0.40084245873E+03  0.45905623676E+03  0.12500000000E+03 0.  0.
</event>
<event>
 4    0  0.2270578E-002  0.3007393E+03  0.7546771E-02  0.1084872E+00
         21   -1    0    0  502  501  0.00000000000E+00  0.00000000000E+00  0.21919453205E+03  0.21919453205E+03  0.00000000000E+00 0. -1.
         21   -1    0    0  501  502 -0.00000000000E+00 -0.00000000000E+00 -0.41262028698E+03  0.41262028698E+03  0.00000000000E+00 0. -1.
         25    1    1    2    0    0 -0.15746813060E+03 -0.15352039808E+03  0.74138509344E+02  0.26360243426E+03  0.12500000000E+03 0.  0.
         25    1    1    2    0    0  0.15746813060E+03  0.15352039808E+03 -0.26756426427E+03  0.36821238477E+03  0.12500000000E+03 0.  0.
</event>
<event>
 4    0  0.2270578E-002  0.2555337E+03  0.7546771E-02  0.1109857E+00
         21   -1    0    0  502  501  0.00000000000E+00  0.00000000000E+00  0.11586218062E+03  0.11586218062E+03  0.00000000000E+00 0.  1.
         21   -1    0    0  501  502 -0.00000000000E+00 -0.00000000000E+00 -0.56357862690E+03  0.56357862690E+03  0.00000000000E+00 0.  1.
         25    1    1    2    0    0  0.34604415424E+02 -0.13369628294E+03 -0.45641889602E+03  0.49296589160E+03  0.12500000000E+03 0.  0.
         25    1    1    2    0    0 -0.34604415424E+02  0.13369628294E+03  0.87024497398E+01  0.18647491593E+03  0.12500000000E+03 0.  0.
</event>
<event>
 4    0  0.2270578E-002  0.2601289E+03  0.7546771E-02  0.1107066E+00
         21   -1    0    0  502  501  0.00000000000E+00  0.00000000000E+00  0.12272605344E+03  0.12272605344E+03  0.00000000000E+00 0. -1.
         21   -1    0    0  501  502 -0.00000000000E+00 -0.00000000000E+00 -0.55136670031E+03  0.55136670031E+03  0.00000000000E+00 0. -1.
         25    1    1    2    0    0 -0.15579680246E+03  0.76515332825E+01 -0.43000837567E+03  0.47419763050E+03  0.12500000000E+03 0.  0.
         25    1    1    2    0    0  0.15579680246E+03 -0.76515332825E+01  0.13677288059E+01  0.19989512325E+03  0.12500000000E+03 0.  0.
</event>
<event>
 4    0  0.2270578E-002  0.2153474E+03  0.7546771E-02  0.1137400E+00
         21   -1    0    0  502  501  0.00000000000E+00  0.00000000000E+00  0.49661248256E+03  0.49661248256E+03  0.00000000000E+00 0.  1.
         21   -1    0    0  501  502 -0.00000000000E+00 -0.00000000000E+00 -0.93381634341E+02  0.93381634341E+02  0.00000000000E+00 0.  1.
         25    1    1    2    0    0 -0.44764842418E+02  0.77602320619E+02  0.40811325688E+03  0.43612778142E+03  0.12500000000E+03 0.  0.
         25    1    1    2    0    0  0.44764842418E+02 -0.77602320619E+02 -0.48824086584E+01  0.15386633549E+03  0.12500000000E+03 0.  0.
</event>
<event>
 4    0  0.2270578E-002  0.2815698E+03  0.7546771E-02  0.1094835E+00
         21   -1    0    0  502  501  0.00000000000E+00  0.00000000000E+00  0.13016809299E+03  0.13016809299E+03  0.00000000000E+00 0.  1.
         21   -1    0    0  501  502 -0.00000000000E+00 -0.00000000000E+00 -0.60907041456E+03  0.60907041456E+03  0.00000000000E+00 0.  1.
         25    1    1    2    0    0 -0.24072924227E+03  0.64647966345E+02 -0.29074109573E+03  0.40284651219E+03  0.12500000000E+03 0.  0.
         25    1    1    2    0    0  0.24072924227E+03 -0.64647966345E+02 -0.18816122583E+03  0.33639199536E+03  0.12500000000E+03 0.  0.
</event>
<event>
 4    0  0.2270578E-002  0.2729677E+03  0.7546771E-02  0.1099593E+00
         21   -1    0    0  502  501  0.00000000000E+00  0.00000000000E+00  0.92562093060E+02  0.92562093060E+02  0.00000000000E+00 0. -1.
         21   -1    0    0  501  502 -0.00000000000E+00 -0.00000000000E+00 -0.80498777450E+03  0.80498777450E+03  0.00000000000E+00 0. -1.
         25    1    1    2    0    0 -0.21831012238E+03 -0.84510146483E+02 -0.46129224225E+03  0.53218117888E+03  0.12500000000E+03 0.  0.
         25    1    1    2    0    0  0.21831012238E+03  0.84510146483E+02 -0.25113343919E+03  0.36536868868E+03  0.12500000000E+03 0.  0.
</event>
<event>
 4    0  0.2270578E-002  0.2011346E+03  0.7546771E-02  0.1148785E+00
         21   -1    0    0  502  501  0.00000000000E+00  0.00000000000E+00  0.19555614056E+03  0.19555614056E+03  0.00000000000E+00 0.  1.
         21   -1    0    0  501  502 -0.00000000000E+00 -0.00000000000E+00 -0.20687216891E+03  0.20687216891E+03  0.00000000000E+00 0.  1.
         25    1    1    2    0    0  0.43540379593E+02  0.56076339497E+02  0.13507386774E+03  0.19725686364E+03  0.12500000000E+03 0.  0.
         25    1    1    2    0    0 -0.43540379593E+02 -0.56076339497E+02 -0.14638989609E+03  0.20517144583E+03  0.12500000000E+03 0.  0.
</event>
<event>
 4    0  0.2270578E-002  0.2307098E+03  0.7546771E-02  0.1126141E+00
         21   -1    0    0  502  501  0.00000000000E+00  0.00000000000E+00  0.81572758797E+02  0.81572758797E+02  0.00000000000E+00 0.  1.
         21   -1    0    0  501  502 -0.00000000000E+00 -0.00000000000E+00 -0.65250955809E+03  0.65250955809E+03  0.00000000000E+00 0.  1.
         25    1    1    2    0    0  0.28930403275E+02 -0.88083105548E+02 -0.55642247763E+03  0.57777727139E+03  0.12500000000E+03 0.  0.
         25    1    1    2    0    0 -0.28930403275E+02  0.88083105548E+02 -0.14514321664E+02  0.15630504550E+03  0.12500000000E+03 0.  0.
</event>
<event>
 4    0  0.2270578E-002  0.1765895E+03  0.7546771E-02  0.1171145E+00
         21   -1    0    0  502  501  0.00000000000E+00  0.00000000000E+00  0.12833904030E+03  0.12833904030E+03  0.00000000000E+00 0. -1.
         21   -1    0    0  501  502 -0.00000000000E+00 -0.00000000000E+00 -0.24298029572E+03  0.24298029572E+03  0.00000000000E+00 0. -1.
         25    1    1    2    0    0 -0.78838478800E+02 -0.10199982693E+02  0.43737786182E+02  0.15445885966E+03  0.12500000000E+03 0.  0.
         25    1    1    2    0    0  0.78838478800E+02  0.10199982693E+02 -0.15837904161E+03  0.21686047636E+03  0.12500000000E+03 0.  0.
</event>
<event>
 4    0  0.2270578E-002  0.2291604E+03  0.7546771E-02  0.1127232E+00
         21   -1    0    0  502  501  0.00000000000E+00  0.00000000000E+00  0.46896451817E+03  0.46896451817E+03  0.00000000000E+00 0.  1.
         21   -1    0    0  501  502 -0.00000000000E+00 -0.00000000000E+00 -0.11197970260E+03  0.11197970260E+03  0.00000000000E+00 0.  1.
         25    1    1    2    0    0 -0.11852507094E+03 -0.81409180460E+02  0.17090745154E+02  0.19129229121E+03  0.12500000000E+03 0.  0.
         25    1    1    2    0    0  0.11852507094E+03  0.81409180460E+02  0.33989407041E+03  0.38965192956E+03  0.12500000000E+03 0.  0.
</event>
<event>
 4    0  0.2270578E-002  0.1766941E+03  0.7546771E-02  0.1171041E+00
         21   -1    0    0  502  501  0.00000000000E+00  0.00000000000E+00  0.17163120760E+03  0.17163120760E+03  0.00000000000E+00 0.  1.
         21   -1    0    0  501  502 -0.00000000000E+00 -0.00000000000E+00 -0.18190628504E+03  0.18190628504E+03  0.00000000000E+00 0.  1.
         25    1    1    2    0    0 -0.58873882500E+01 -0.12278485868E+03 -0.27169845531E+02  0.17740908479E+03  0.12500000000E+03 0.  0.
         25    1    1    2    0    0  0.58873882500E+01  0.12278485868E+03  0.16894768083E+02  0.17612840785E+03  0.12500000000E+03 0.  0.
</event>
<event>
 4    0  0.2270578E-002  0.1645262E+03  0.7546771E-02  0.1183679E+00
         21   -1    0    0  502  501  0.00000000000E+00  0.00000000000E+00  0.23343384149E+03  0.23343384149E+03  0.00000000000E+00 0.  1.
         21   -1    0    0  501  502 -0.00000000000E+00 -0.00000000000E+00 -0.11595947827E+03  0.11595947827E+03  0.00000000000E+00 0.  1.
         25    1    1    2    0    0 -0.24493035619E+02  0.98999623543E+02  0.24444738420E+02  0.16316672299E+03  0.12500000000E+03 0.  0.
         25    1    1    2    0    0  0.24493035619E+02 -0.98999623543E+02  0.93029624794E+02  0.18622659677E+03  0.12500000000E+03 0.  0.
</event>
<event>
 4    0  0.2270578E-002  0.1992906E+03  0.7546771E-02  0.1150339E+00
         21   -1    0    0  502  501  0.00000000000E+00  0.00000000000E+00  0.70036848691E+03  0.70036848691E+03  0.00000000000E+00 0. -1.
         21   -1    0    0  501  502 -0.00000000000E+00 -0.00000000000E+00 -0.56708356120E+02  0.56708356120E+02  0.00000000000E+00 0. -1.
         25    1    1    2    0    0 -0.72825864546E+02  0.94900427774E+02  0.50969167128E+03  0.53825672082E+03  0.12500000000E+03 0.  0.
         25    1    1    2    0    0  0.72825864546E+02 -0.94900427774E+02  0.13396845951E+03  0.21882012220E+03  0.12500000000E+03 0.  0.
</event>
<event>
 4    0  0.2270578E-002  0.2441351E+03  0.7546771E-02  0.1117068E+00
         21   -1    0    0  502  501  0.00000000000E+00  0.00000000000E+00  0.25792518384E+03  0.25792518384E+03  0.00000000000E+00 0. -1.
         21   -1    0    0  501  502 -0.00000000000E+00 -0.00000000000E+00 -0.23108231114E+03  0.23108231114E+03  0.00000000000E+00 0. -1.
         25    1    1    2    0    0  0.11360675634E+03  0.50377641973E+02  0.18259229552E+03  0.25378996883E+03  0.12500000000E+03 0.  0.
         25    1    1    2    0    0 -0.11360675634E+03 -0.50377641973E+02 -0.15574942282E+03  0.23521752614E+03  0.12500000000E+03 0.  0.
</event>
<event>
 4    0  0.2270578E-002  0.2284514E+03  0.7546771E-02  0.1127735E+00
         21   -1    0    0  502  501  0.00000000000E+00  0.00000000000E+00  0.16620870749E+03  0.16620870749E+03  0.00000000000E+00 0. -1.
         21   -1    0    0  501  502 -0.00000000000E+00 -0.00000000000E+00 -0.31400306241E+03  0.31400306241E+03  0.00000000000E+00 0. -1.
         25    1    1    2    0    0  0.30796676015E+02  0.69995616599E+02  0.11030719794E+03  0.18341346601E+03  0.12500000000E+03 0.  0.
         25    1    1    2    0    0 -0.30796676015E+02 -0.69995616599E+02 -0.25810155286E+03  0.29679830388E+03  0.12500000000E+03 0.  0.
</event>
<event>
 4    0  0.2270578E-002  0.2010011E+03  0.7546771E-02  0.1148897E+00
         21   -1    0    0  502  501  0.00000000000E+00  0.00000000000E+00  0.67071914404E+03  0.67071914404E+03  0.00000000000E+00 0. -1.
         21   -1    0    0  501  502 -0.00000000000E+00 -0.00000000000E+00 -0.60236005851E+02  0.60236005851E+02  0.00000000000E+00 0. -1.
         25    1    1    2    0    0  0.59983932411E+02 -0.99123421640E+02  0.49898011658E+03  0.52728519950E+03  0.12500000000E+03 0.  0.
         25    1    1    2    0    0 -0.59983932411E+02  0.99123421640E+02  0.11150302161E+03  0.20366995039E+03  0.12500000000E+03 0.  0.
</event>
<event>
 4    0  0.2270578E-002  0.2280232E+03  0.7546771E-02  0.1128039E+00
         21   -1    0    0  502  501  0.00000000000E+00  0.00000000000E+00  0.16518645671E+04  0.16518645671E+04  0.00000000000E+00 0.  1.
         21   -1    0    0  501  502 -0.00000000000E+00 -0.00000000000E+00 -0.31476286921E+02  0.31476286921E+02  0.00000000000E+00 0.  1.
         25    1    1    2    0    0  0.57996284239E+02 -0.24274562277E+02  0.14561337333E+03  0.20194325404E+03  0.12500000000E+03 0.  0.
         25    1    1    2    0    0 -0.57996284239E+02  0.24274562277E+02  0.14747749069E+04  0.14813976000E+04  0.12500000000E+03 0.  0.
</event>
<event>
 4    0  0.2270578E-002  0.2169355E+03  0.7546771E-02  0.1136189E+00
         21   -1    0    0  502  501  0.00000000000E+00  0.00000000000E+00  0.26642349409E+03  0.26642349409E+03  0.00000000000E+00 0.  1.
         21   -1    0    0  501  502 -0.00000000000E+00 -0.00000000000E+00 -0.17663990536E+03  0.17663990536E+03  0.00000000000E+00 0.  1.
         25    1    1    2    0    0 -0.13758142559E+03  0.11097438298E+03  0.30739661349E+02  0.21866387247E+03  0.12500000000E+03 0.  0.
         25    1    1    2    0    0  0.13758142559E+03 -0.11097438298E+03  0.59043927378E+02  0.22439952697E+03  0.12500000000E+03 0.  0.
</event>
<event>
 4    0  0.2270578E-002  0.2657096E+03  0.7546771E-02  0.1103760E+00
         21   -1    0    0  502  501  0.00000000000E+00  0.00000000000E+00  0.23523642824E+03  0.23523642824E+03  0.00000000000E+00 0. -1.
         21   -1    0    0  501  502 -0.00000000000E+00 -0.00000000000E+00 -0.30013042049E+03  0.30013042049E+03  0.00000000000E+00 0.  1.
         25    1    1    2    0    0 -0.14019198291E+02 -0.21995128197E+03 -0.11305073461E+03  0.27745373120E+03  0.12500000000E+03 0.  0.
         25    1    1    2    0    0  0.14019198291E+02  0.21995128197E+03  0.48156742361E+02  0.25791311753E+03  0.12500000000E+03 0.  0.
</event>
<event>
 4    0  0.2270578E-002  0.1401130E+03  0.7546771E-02  0.1213177E+00
         21   -1    0    0  502  501  0.00000000000E+00  0.00000000000E+00  0.42139160255E+03  0.42139160255E+03  0.00000000000E+00 0.  1.
         21   -1    0    0  501  502 -0.00000000000E+00 -0.00000000000E+00 -0.46587673491E+02  0.46587673491E+02  0.00000000000E+00 0.  1.
         25    1    1    2    0    0  0.66627135846E+01 -0.15663915657E+02  0.85587643287E+02  0.15244669458E+03  0.12500000000E+03 0.  0.
         25    1    1    2    0    0 -0.66627135846E+01  0.15663915657E+02  0.28921628577E+03  0.31553258146E+03  0.12500000000E+03 0.  0.
</event>
<event>
 4    0  0.2270578E-002  0.2491932E+03  0.7546771E-02  0.1113816E+00
         21   -1    0    0  502  501  0.00000000000E+00  0.00000000000E+00  0.15941844642E+03  0.15941844642E+03  0.00000000000E+00 0.  1.
         21   -1    0    0  501  502 -0.00000000000E+00 -0.00000000000E+00 -0.38952372573E+03  0.38952372573E+03  0.00000000000E+00 0.  1.
         25    1    1    2    0    0 -0.19436977104E+03 -0.83963253848E+02 -0.15969599645E+03  0.29318466394E+03  0.12500000000E+03 0.  0.
         25    1    1    2    0    0  0.19436977104E+03  0.83963253848E+02 -0.70409282868E+02  0.25575750821E+03  0.12500000000E+03 0.  0.
</event>
<event>
 4    0  0.2270578E-002  0.2079743E+03  0.7546771E-02  0.1143180E+00
         21   -1    0    0  502  501  0.00000000000E+00  0.00000000000E+00  0.16406475148E+03  0.16406475148E+03  0.00000000000E+00 0. -1.
         21   -1    0    0  501  502 -0.00000000000E+00 -0.00000000000E+00 -0.26363554248E+03  0.26363554248E+03  0.00000000000E+00 0. -1.
         25    1    1    2    0    0  0.14553126286E+03  0.32808181229E+02  0.25583327182E+02  0.19630392726E+03  0.12500000000E+03 0.  0.
         25    1    1    2    0    0 -0.14553126286E+03 -0.32808181229E+02 -0.12515411818E+03  0.23139636670E+03  0.12500000000E+03 0.  0.
</event>
<event>
 4    0  0.2270578E-002  0.2257213E+03  0.7546771E-02  0.1129688E+00
         21   -1    0    0  502  501  0.00000000000E+00  0.00000000000E+00  0.10244089965E+03  0.10244089965E+03  0.00000000000E+00 0.  1.
         21   -1    0    0  501  502 -0.00000000000E+00 -0.00000000000E+00 -0.49736085742E+03  0.49736085742E+03  0.00000000000E+00 0.  1.
         25    1    1    2    0    0 -0.66049906995E+02  0.64951095486E+02 -0.41473874122E+03  0.44296101238E+03  0.12500000000E+03 0.  0.
         25    1    1    2    0    0  0.66049906995E+02 -0.64951095486E+02  0.19818783450E+02  0.15684074469E+03  0.12500000000E+03 0.  0.
</event>
<event>
 4    0  0.2270578E-002  0.1840171E+03  0.7546771E-02  0.1163971E+00
         21   -1    0    0  502  501  0.00000000000E+00  0.00000000000E+00  0.97476188564E+02  0.97476188564E+02  0.00000000000E+00 0. -1.
         21   -1    0    0  501  502 -0.00000000000E+00 -0.00000000000E+00 -0.34739031972E+03  0.34739031972E+03  0.00000000000E+00 0. -1.
         25    1    1    2    0    0  0.46030442803E+02  0.44722617289E+02  0.18669200992E+02  0.14174785087E+03  0.12500000000E+03 0.  0.
         25    1    1    2    0    0 -0.46030442803E+02 -0.44722617289E+02 -0.26858333215E+03  0.30311865741E+03  0.12500000000E+03 0.  0.
</event>
<event>
 4    0  0.2270578E-002  0.2589433E+03  0.7546771E-02  0.1107780E+00
         21   -1    0    0  502  501  0.00000000000E+00  0.00000000000E+00  0.32367180325E+03  0.32367180325E+03  0.00000000000E+00 0. -1.
         21   -1    0    0  501  502 -0.00000000000E+00 -0.00000000000E+00 -0.20715934317E+03  0.20715934317E+03  0.00000000000E+00 0. -1.
         25    1    1    2    0    0  0.14714601482E+02 -0.68951836383E+01 -0.17358885986E+03  0.21452774954E+03  0.12500000000E+03 0.  0.
         25    1    1    2    0    0 -0.14714601482E+02  0.68951836383E+01  0.29010131994E+03  0.31630339689E+03  0.12500000000E+03 0.  0.
</event>
<event>
 4    0  0.2270578E-002  0.2412056E+03  0.7546771E-02  0.1118992E+00
         21   -1    0    0  502  501  0.00000000000E+00  0.00000000000E+00  0.28083731896E+03  0.28083731896E+03  0.00000000000E+00 0.  1.
         21   -1    0    0  501  502 -0.00000000000E+00 -0.00000000000E+00 -0.20716674166E+03  0.20716674166E+03  0.00000000000E+00 0.  1.
         25    1    1    2    0    0 -0.50473443204E+02 -0.51234476315E+02  0.23242267190E+03  0.27352849659E+03  0.12500000000E+03 0.  0.
         25    1    1    2    0    0  0.50473443204E+02  0.51234476315E+02 -0.15875209460E+03  0.21447556404E+03  0.12500000000E+03 0.  0.
</event>
<event>
 4    0  0.2270578E-002  0.2720036E+03  0.7546771E-02  0.1100138E+00
         21   -1    0    0  502  501  0.00000000000E+00  0.00000000000E+00  0.13048620444E+04  0.13048620444E+04  0.00000000000E+00 0. -1.
         21   -1    0    0  501  502 -0.00000000000E+00 -0.00000000000E+00 -0.56700211402E+02  0.56700211402E+02  0.00000000000E+00 0. -1.
         25    1    1    2    0    0 -0.20459684708E+03 -0.12651966853E+03  0.56846057433E+03  0.62979323665E+03  0.12500000000E+03 0.  0.
         25    1    1    2    0    0  0.20459684708E+03  0.12651966853E+03  0.67970125872E+03  0.73176901920E+03  0.12500000000E+03 0.  0.
</event>
<event>
 4    0  0.2270578E-002  0.5944497E+03  0.7546771E-02  0.9916989E-01
         21   -1    0    0  502  501  0.00000000000E+00  0.00000000000E+00  0.49709512172E+03  0.49709512172E+03  0.00000000000E+00 0.  1.
         21   -1    0    0  501  502 -0.00000000000E+00 -0.00000000000E+00 -0.71087088011E+03  0.71087088011E+03  0.00000000000E+00 0. -1.
         25    1    1    2    0    0 -0.49598650924E+03 -0.97333326112E+02 -0.39831358156E+03  0.65555709360E+03  0.12500000000E+03 0.  0.
         25    1    1    2    0    0  0.49598650924E+03  0.97333326112E+02  0.18453782316E+03  0.55240890823E+03  0.12500000000E+03 0.  0.
</event>
<event>
 4    0  0.2270578E-002  0.2127775E+03  0.7546771E-02  0.1139385E+00
         21   -1    0    0  502  501  0.00000000000E+00  0.00000000000E+00  0.28910330168E+02  0.28910330168E+02  0.00000000000E+00 0. -1.
         21   -1    0    0  501  502 -0.00000000000E+00 -0.00000000000E+00 -0.15660233048E+04  0.15660233048E+04  0.00000000000E+00 0. -1.
         25    1    1    2    0    0  0.11727166086E+03 -0.11511644796E+03 -0.57581093351E+03  0.61170881160E+03  0.12500000000E+03 0.  0.
         25    1    1    2    0    0 -0.11727166086E+03  0.11511644796E+03 -0.96130204116E+03  0.98322482341E+03  0.12500000000E+03 0.  0.
</event>
<event>
 4    0  0.2270578E-002  0.1923079E+03  0.7546771E-02  0.1156396E+00
         21   -1    0    0  502  501  0.00000000000E+00  0.00000000000E+00  0.20465041116E+03  0.20465041116E+03  0.00000000000E+00 0.  1.
         21   -1    0    0  501  502 -0.00000000000E+00 -0.00000000000E+00 -0.18070975179E+03  0.18070975179E+03  0.00000000000E+00 0.  1.
         25    1    1    2    0    0 -0.11499766640E+03 -0.22114500610E+02  0.99568427222E+02  0.19812214948E+03  0.12500000000E+03 0.  0.
         25    1    1    2    0    0  0.11499766640E+03  0.22114500610E+02 -0.75627767859E+02  0.18723801347E+03  0.12500000000E+03 0.  0.
</event>
<event>
 4    0  0.2270578E-002  0.2555388E+03  0.7546771E-02  0.1109854E+00
         21   -1    0    0  502  501  0.00000000000E+00  0.00000000000E+00  0.52239380929E+03  0.52239380929E+03  0.00000000000E+00 0.  1.
         21   -1    0    0  501  502 -0.00000000000E+00 -0.00000000000E+00 -0.12500161208E+03  0.12500161208E+03  0.00000000000E+00 0.  1.
         25    1    1    2    0    0 -0.75863951753E+02 -0.20454720184E+03  0.25647008903E+03  0.35916125003E+03  0.12500000000E+03 0.  0.
         25    1    1    2    0    0  0.75863951753E+02  0.20454720184E+03  0.14092210818E+03  0.28823417134E+03  0.12500000000E+03 0.  0.
</event>
<event>
 4    0  0.2270578E-002  0.1845094E+03  0.7546771E-02  0.1163509E+00
         21   -1    0    0  502  501  0.00000000000E+00  0.00000000000E+00  0.19069339252E+03  0.19069339252E+03  0.00000000000E+00 0. -1.
         21   -1    0    0  501  502 -0.00000000000E+00 -0.00000000000E+00 -0.17852597357E+03  0.17852597357E+03  0.00000000000E+00 0. -1.
         25    1    1    2    0    0  0.77429276341E+02 -0.73710257869E+02 -0.77569313256E+02  0.18185294419E+03  0.12500000000E+03 0.  0.
         25    1    1    2    0    0 -0.77429276341E+02  0.73710257869E+02  0.89736732204E+02  0.18736642190E+03  0.12500000000E+03 0.  0.
</event>
<event>
 4    0  0.2270578E-002  0.1970173E+03  0.7546771E-02  0.1152280E+00
         21   -1    0    0  502  501  0.00000000000E+00  0.00000000000E+00  0.29099765364E+03  0.29099765364E+03  0.00000000000E+00 0.  1.
         21   -1    0    0  501  502 -0.00000000000E+00 -0.00000000000E+00 -0.13338874473E+03  0.13338874473E+03  0.00000000000E+00 0.  1.
         25    1    1    2    0    0 -0.13624978652E+03  0.15804363888E+02  0.15005970325E+03  0.23865602189E+03  0.12500000000E+03 0.  0.
         25    1    1    2    0    0  0.13624978652E+03 -0.15804363888E+02  0.75492056612E+01  0.18573037649E+03  0.12500000000E+03 0.  0.
</event>
<event>
 4    0  0.2270578E-002  0.2125170E+03  0.7546771E-02  0.1139588E+00
         21   -1    0    0  502  501  0.00000000000E+00  0.00000000000E+00  0.34504814740E+03  0.34504814740E+03  0.00000000000E+00 0. -1.
         21   -1    0    0  501  502 -0.00000000000E+00 -0.00000000000E+00 -0.13089033815E+03  0.13089033815E+03  0.00000000000E+00 0. -1.
         25    1    1    2    0    0  0.36688752243E+02  0.16368286933E+03  0.65176281799E+02  0.21911433993E+03  0.12500000000E+03 0.  0.
         25    1    1    2    0    0 -0.36688752243E+02 -0.16368286933E+03  0.14898152745E+03  0.25682414562E+03  0.12500000000E+03 0.  0.
</event>
<event>
 4    0  0.2270578E-002  0.1839163E+03  0.7546771E-02  0.1164066E+00
         21   -1    0    0  502  501  0.00000000000E+00  0.00000000000E+00  0.79959232359E+02  0.79959232359E+02  0.00000000000E+00 0.  1.
         21   -1    0    0  501  502 -0.00000000000E+00 -0.00000000000E+00 -0.42303052659E+03  0.42303052659E+03  0.00000000000E+00 0.  1.
         25    1    1    2    0    0  0.52908056024E+02  0.84782634987E+02 -0.29545970579E+03  0.33601904013E+03  0.12500000000E+03 0.  0.
         25    1    1    2    0    0 -0.52908056024E+02 -0.84782634987E+02 -0.47611588443E+02  0.16697071881E+03  0.12500000000E+03 0.  0.
</event>
<event>
 4    0  0.2270578E-002  0.2464090E+03  0.7546771E-02  0.1115595E+00
         21   -1    0    0  502  501  0.00000000000E+00  0.00000000000E+00  0.59137286928E+03  0.59137286928E+03  0.00000000000E+00 0. -1.
         21   -1    0    0  501  502 -0.00000000000E+00 -0.00000000000E+00 -0.10267197130E+03  0.10267197130E+03  0.00000000000E+00 0. -1.
         25    1    1    2    0    0  0.17951473580E+03  0.10195353156E+03  0.31437596647E+03  0.39632980112E+03  0.12500000000E+03 0.  0.
         25    1    1    2    0    0 -0.17951473580E+03 -0.10195353156E+03  0.17432493152E+03  0.29771503945E+03  0.12500000000E+03 0.  0.
</event>
<event>
 4    0  0.2270578E-002  0.2659858E+03  0.7546771E-02  0.1103599E+00
         21   -1    0    0  502  501  0.00000000000E+00  0.00000000000E+00  0.87068150395E+03  0.87068150395E+03  0.00000000000E+00 0. -1.
         21   -1    0    0  501  502 -0.00000000000E+00 -0.00000000000E+00 -0.81256417598E+02  0.81256417598E+02  0.00000000000E+00 0. -1.
         25    1    1    2    0    0 -0.16916362866E+03  0.30270730957E+02  0.68097351986E+03  0.71336006698E+03  0.12500000000E+03 0.  0.
         25    1    1    2    0    0  0.16916362866E+03 -0.30270730957E+02  0.10845156650E+03  0.23857785457E+03  0.12500000000E+03 0.  0.
</event>
<event>
 4    0  0.2270578E-002  0.2314977E+03  0.7546771E-02  0.1125590E+00
         21   -1    0    0  502  501  0.00000000000E+00  0.00000000000E+00  0.23024198799E+03  0.23024198799E+03  0.00000000000E+00 0.  1.
         21   -1    0    0  501  502 -0.00000000000E+00 -0.00000000000E+00 -0.23276017201E+03  0.23276017201E+03  0.00000000000E+00 0.  1.
         25    1    1    2    0    0  0.76086399967E+02  0.17929713375E+03  0.41781107086E+01  0.23147150805E+03  0.12500000000E+03 0.  0.
         25    1    1    2    0    0 -0.76086399967E+02 -0.17929713375E+03 -0.66962947210E+01  0.23153065195E+03  0.12500000000E+03 0.  0.
</event>
<event>
 4    0  0.2270578E-002  0.1894830E+03  0.7546771E-02  0.1158928E+00
         21   -1    0    0  502  501  0.00000000000E+00  0.00000000000E+00  0.32755282862E+03  0.32755282862E+03  0.00000000000E+00 0.  1.
         21   -1    0    0  501  502 -0.00000000000E+00 -0.00000000000E+00 -0.10961221529E+03  0.10961221529E+03  0.00000000000E+00 0.  1.
         25    1    1    2    0    0  0.11066665366E+03  0.49278471094E+02  0.22619220353E+02  0.17553377189E+03  0.12500000000E+03 0.  0.
         25    1    1    2    0    0 -0.11066665366E+03 -0.49278471094E+02  0.19532139298E+03  0.26163127202E+03  0.12500000000E+03 0.  0.
</event>
<event>
 4    0  0.2270578E-002  0.2648378E+03  0.7546771E-02  0.1104271E+00
         21   -1    0    0  502  501  0.00000000000E+00  0.00000000000E+00  0.13752102303E+03  0.13752102303E+03  0.00000000000E+00 0.  1.
         21   -1    0    0  501  502 -0.00000000000E+00 -0.00000000000E+00 -0.51002437630E+03  0.51002437630E+03  0.00000000000E+00 0.  1.
         25    1    1    2    0    0 -0.30079192058E+02  0.16381807026E+03  0.13784421716E+02  0.20870104988E+03  0.12500000000E+03 0.  0.
         25    1    1    2    0    0  0.30079192058E+02 -0.16381807026E+03 -0.38628777499E+03  0.43884434945E+03  0.12500000000E+03 0.  0.
</event>
<event>
 4    0  0.2270578E-002  0.1847115E+03  0.7546771E-02  0.1163320E+00
         21   -1    0    0  502  501  0.00000000000E+00  0.00000000000E+00  0.18210157455E+04  0.18210157455E+04  0.00000000000E+00 0. -1.
         21   -1    0    0  501  502 -0.00000000000E+00 -0.00000000000E+00 -0.18735876410E+02  0.18735876410E+02  0.00000000000E+00 0. -1.
         25    1    1    2    0    0  0.89426230447E+02  0.64041729021E+02  0.12993876691E+04  0.13100121024E+04  0.12500000000E+03 0.  0.
         25    1    1    2    0    0 -0.89426230447E+02 -0.64041729021E+02  0.50289219990E+03  0.52973951946E+03  0.12500000000E+03 0.  0.
</event>
<event>
 4    0  0.2270578E-002  0.2045631E+03  0.7546771E-02  0.1145945E+00
         21   -1    0    0  502  501  0.00000000000E+00  0.00000000000E+00  0.54952625949E+03  0.54952625949E+03  0.00000000000E+00 0.  1.
         21   -1    0    0  501  502 -0.00000000000E+00 -0.00000000000E+00 -0.76149314772E+02  0.76149314772E+02  0.00000000000E+00 0.  1.
         25    1    1    2    0    0 -0.15676596581E+03  0.10768493941E+01  0.17467511969E+03  0.26591939584E+03  0.12500000000E+03 0.  0.
         25    1    1    2    0    0  0.15676596581E+03 -0.10768493941E+01  0.29870182502E+03  0.35975617842E+03  0.12500000000E+03 0.  0.
</event>
<event>
 4    0  0.2270578E-002  0.1563772E+03  0.7546771E-02  0.1192849E+00
         21   -1    0    0  502  501  0.00000000000E+00  0.00000000000E+00  0.17951864938E+02  0.17951864938E+02  0.00000000000E+00 0.  1.
         21   -1    0    0  501  502 -0.00000000000E+00 -0.00000000000E+00 -0.13621886819E+04  0.13621886819E+04  0.00000000000E+00 0.  1.
         25    1    1    2    0    0 -0.40620066241E+02 -0.82706066178E+02 -0.59092374107E+03  0.61098784843E+03  0.12500000000E+03 0.  0.
         25    1    1    2    0    0  0.40620066241E+02  0.82706066178E+02 -0.75331307588E+03  0.76915269840E+03  0.12500000000E+03 0.  0.
</event>
<event>
 4    0  0.2270578E-002  0.2703094E+03  0.7546771E-02  0.1101103E+00
         21   -1    0    0  502  501  0.00000000000E+00  0.00000000000E+00  0.48636415895E+02  0.48636415895E+02  0.00000000000E+00 0.  1.
         21   -1    0    0  501  502 -0.00000000000E+00 -0.00000000000E+00 -0.15023137088E+04  0.15023137088E+04  0.00000000000E+00 0.  1.
         25    1    1    2    0    0  0.18296271766E+03 -0.14579309996E+03 -0.87621612979E+03  0.91548385576E+03  0.12500000000E+03 0.  0.
         25    1    1    2    0    0 -0.18296271766E+03  0.14579309996E+03 -0.57746116310E+03  0.63546626892E+03  0.12500000000E+03 0.  0.
</event>
<event>
 4    0  0.2270578E-002  0.2132085E+03  0.7546771E-02  0.1139050E+00
         21   -1    0    0  502  501  0.00000000000E+00  0.00000000000E+00  0.83404669880E+02  0.83404669880E+02  0.00000000000E+00 0. -1.
         21   -1    0    0  501  502 -0.00000000000E+00 -0.00000000000E+00 -0.54502797342E+03  0.54502797342E+03  0.00000000000E+00 0. -1.
         25    1    1    2    0    0  0.86991743711E+02 -0.97611375610E+02 -0.64484393077E+02  0.19203848852E+03  0.12500000000E+03 0.  0.
         25    1    1    2    0    0 -0.86991743711E+02  0.97611375610E+02 -0.39713891046E+03  0.43639415478E+03  0.12500000000E+03 0.  0.
</event>
<event>
 4    0  0.2270578E-002  0.2286160E+03  0.7546771E-02  0.1127618E+00
         21   -1    0    0  502  501  0.00000000000E+00  0.00000000000E+00  0.48554820951E+02  0.48554820951E+02  0.00000000000E+00 0.  1.
         21   -1    0    0  501  502 -0.00000000000E+00 -0.00000000000E+00 -0.10764176596E+04  0.10764176596E+04  0.00000000000E+00 0.  1.
         25    1    1    2    0    0 -0.17598382884E+03  0.69145832128E+02 -0.58728315961E+03  0.62950612680E+03  0.12500000000E+03 0.  0.
         25    1    1    2    0    0  0.17598382884E+03 -0.69145832128E+02 -0.44057967900E+03  0.49546635371E+03  0.12500000000E+03 0.  0.
</event>
<event>
 4    0  0.2270578E-002  0.2393988E+03  0.7546771E-02  0.1120194E+00
         21   -1    0    0  502  501  0.00000000000E+00  0.00000000000E+00  0.12176049742E+03  0.12176049742E+03  0.00000000000E+00 0. -1.
         21   -1    0    0  501  502 -0.00000000000E+00 -0.00000000000E+00 -0.47069265595E+03  0.47069265595E+03  0.00000000000E+00 0. -1.
         25    1    1    2    0    0 -0.41121574669E+02 -0.14258486432E+03 -0.34798741456E+03  0.39842398036E+03  0.12500000000E+03 0.  0.
         25    1    1    2    0    0  0.41121574669E+02  0.14258486432E+03 -0.94474397282E+00  0.19402917300E+03  0.12500000000E+03 0.  0.
</event>
<event>
 4    0  0.2270578E-002  0.2915536E+03  0.7546771E-02  0.1089541E+00
         21   -1    0    0  502  501  0.00000000000E+00  0.00000000000E+00  0.78826210259E+03  0.78826210259E+03  0.00000000000E+00 0.  1.
         21   -1    0    0  501  502 -0.00000000000E+00 -0.00000000000E+00 -0.10783656576E+03  0.10783656576E+03  0.00000000000E+00 0.  1.
         25    1    1    2    0    0 -0.57185133625E+02  0.18603675759E+02  0.73430311170E+03  0.74728996789E+03  0.12500000000E+03 0.  0.
         25    1    1    2    0    0  0.57185133625E+02 -0.18603675759E+02 -0.53877574864E+02  0.14880870046E+03  0.12500000000E+03 0.  0.
</event>
<event>
 4    0  0.2270578E-002  0.2169131E+03  0.7546771E-02  0.1136206E+00
         21   -1    0    0  502  501  0.00000000000E+00  0.00000000000E+00  0.74925839853E+03  0.74925839853E+03  0.00000000000E+00 0. -1.
         21   -1    0    0  501  502 -0.00000000000E+00 -0.00000000000E+00 -0.62797177309E+02  0.62797177309E+02  0.00000000000E+00 0. -1.
         25    1    1    2    0    0  0.17283944733E+03  0.31788437584E+02  0.29963899390E+03  0.36917814938E+03  0.12500000000E+03 0.  0.
         25    1    1    2    0    0 -0.17283944733E+03 -0.31788437584E+02  0.38682222733E+03  0.44287742646E+03  0.12500000000E+03 0.  0.
</event>
<event>
 4    0  0.2270578E-002  0.2375012E+03  0.7546771E-02  0.1121469E+00
         21   -1    0    0  502  501  0.00000000000E+00  0.00000000000E+00  0.35217324055E+03  0.35217324055E+03  0.00000000000E+00 0. -1.
         21   -1    0    0  501  502 -0.00000000000E+00 -0.00000000000E+00 -0.16016784743E+03  0.16016784743E+03  0.00000000000E+00 0. -1.
         25    1    1    2    0    0 -0.10577497726E+03  0.12364692968E+03 -0.33002163955E+02  0.20782456991E+03  0.12500000000E+03 0.  0.
         25    1    1    2    0    0  0.10577497726E+03 -0.12364692968E+03  0.22500755708E+03  0.30451651807E+03  0.12500000000E+03 0.  0.
</event>
<event>
 4    0  0.2270578E-002  0.2057108E+03  0.7546771E-02  0.1145008E+00
         21   -1    0    0  502  501  0.00000000000E+00  0.00000000000E+00  0.34574209403E+02  0.34574209403E+02  0.00000000000E+00 0. -1.
         21   -1    0    0  501  502 -0.00000000000E+00 -0.00000000000E+00 -0.12239445106E+04  0.12239445106E+04  0.00000000000E+00 0. -1.
         25    1    1    2    0    0  0.44361199087E+02  0.15710112267E+03 -0.61479879775E+03  0.64826787707E+03  0.12500000000E+03 0.  0.
         25    1    1    2    0    0 -0.44361199087E+02 -0.15710112267E+03 -0.57457150348E+03  0.61025084297E+03  0.12500000000E+03 0.  0.
</event>
<event>
 4    0  0.2270578E-002  0.2149796E+03  0.7546771E-02  0.1137682E+00
         21   -1    0    0  502  501  0.00000000000E+00  0.00000000000E+00  0.12263282855E+04  0.12263282855E+04  0.00000000000E+00 0.  1.
         21   -1    0    0  501  502 -0.00000000000E+00 -0.00000000000E+00 -0.37686653864E+02  0.37686653864E+02  0.00000000000E+00 0.  1.
         25    1    1    2    0    0  0.65143496153E+02  0.10978745982E+03  0.94580493580E+03  0.96253256464E+03  0.12500000000E+03 0.  0.
         25    1    1    2    0    0 -0.65143496153E+02 -0.10978745982E+03  0.24283669588E+03  0.30148237476E+03  0.12500000000E+03 0.  0.
</event>
<event>
 4    0  0.2270578E-002  0.1715485E+03  0.7546771E-02  0.1176243E+00
         21   -1    0    0  502  501  0.00000000000E+00  0.00000000000E+00  0.15469683672E+03  0.15469683672E+03  0.00000000000E+00 0.  1.
         21   -1    0    0  501  502 -0.00000000000E+00 -0.00000000000E+00 -0.19023594720E+03  0.19023594720E+03  0.00000000000E+00 0.  1.
         25    1    1    2    0    0  0.78722745290E+02  0.34180472855E+02  0.62898925876E+02  0.16415495797E+03  0.12500000000E+03 0.  0.
         25    1    1    2    0    0 -0.78722745290E+02 -0.34180472855E+02 -0.98438036360E+02  0.18077782594E+03  0.12500000000E+03 0.  0.
</event>
<event>
 4    0  0.2270578E-002  0.1967653E+03  0.7546771E-02  0.1152497E+00
         21   -1    0    0  502  501  0.00000000000E+00  0.00000000000E+00  0.15776725305E+03  0.15776725305E+03  0.00000000000E+00 0. -1.
         21   -1    0    0  501  502 -0.00000000000E+00 -0.00000000000E+00 -0.24540319197E+03  0.24540319197E+03  0.00000000000E+00 0. -1.
         25    1    1    2    0    0 -0.15095367332E+03 -0.11303778098E+02 -0.57440319023E+02  0.20454627139E+03  0.12500000000E+03 0.  0.
         25    1    1    2    0    0  0.15095367332E+03  0.11303778098E+02 -0.30195619900E+02  0.19862417363E+03  0.12500000000E+03 0.  0.
</event>
<event>
 4    0  0.2270578E-002  0.2172310E+03  0.7546771E-02  0.1135964E+00
         21   -1    0    0  502  501  0.00000000000E+00  0.00000000000E+00  0.19937068963E+03  0.19937068963E+03  0.00000000000E+00 0.  1.
         21   -1    0    0  501  502 -0.00000000000E+00 -0.00000000000E+00 -0.23669129144E+03  0.23669129144E+03  0.00000000000E+00 0.  1.
         25    1    1    2    0    0  0.13188115869E+03  0.80009635557E+02  0.69812629679E+02  0.21045898665E+03  0.12500000000E+03 0.  0.
         25    1    1    2    0    0 -0.13188115869E+03 -0.80009635557E+02 -0.10713323148E+03  0.22560299441E+03  0.12500000000E+03 0.  0.
</event>
<event>
 4    0  0.2270578E-002  0.3176739E+03  0.7546771E-02  0.1076725E+00
         21   -1    0    0  502  501  0.00000000000E+00  0.00000000000E+00  0.47504398752E+03  0.47504398752E+03  0.00000000000E+00 0.  1.
         21   -1    0    0  501  502 -0.00000000000E+00 -0.00000000000E+00 -0.21243660465E+03  0.21243660465E+03  0.00000000000E+00 0.  1.
         25    1    1    2    0    0 -0.70264449262E+02 -0.23601921414E+03 -0.38580719048E+02  0.27884697265E+03  0.12500000000E+03 0.  0.
         25    1    1    2    0    0  0.70264449262E+02  0.23601921414E+03  0.30118810191E+03  0.40863361952E+03  0.12500000000E+03 0.  0.
</event>
<event>
 4    0  0.2270578E-002  0.1872779E+03  0.7546771E-02  0.1160940E+00
         21   -1    0    0  502  501  0.00000000000E+00  0.00000000000E+00  0.24831435161E+03  0.24831435161E+03  0.00000000000E+00 0. -1.
         21   -1    0    0  501  502 -0.00000000000E+00 -0.00000000000E+00 -0.14124445162E+03  0.14124445162E+03  0.00000000000E+00 0. -1.
         25    1    1    2    0    0  0.49725400635E+02 -0.11843575676E+03 -0.29390021944E+01  0.17925758472E+03  0.12500000000E+03 0.  0.
         25    1    1    2    0    0 -0.49725400635E+02  0.11843575676E+03  0.11000890217E+03  0.21030121851E+03  0.12500000000E+03 0.  0.
</event>
<event>
 4    0  0.2270578E-002  0.1634433E+03  0.7546771E-02  0.1184863E+00
         21   -1    0    0  502  501  0.00000000000E+00  0.00000000000E+00  0.91392705359E+03  0.91392705359E+03  0.00000000000E+00 0. -1.
         21   -1    0    0  501  502 -0.00000000000E+00 -0.00000000000E+00 -0.29229576738E+02  0.29229576738E+02  0.00000000000E+00 0. -1.
         25    1    1    2    0    0 -0.80476138417E+02 -0.48794672632E+02  0.57864149878E+03  0.59942331707E+03  0.12500000000E+03 0.  0.
         25    1    1    2    0    0  0.80476138417E+02  0.48794672632E+02  0.30605597807E+03  0.34373331326E+03  0.12500000000E+03 0.  0.
</event>
<event>
 4    0  0.2270578E-002  0.2605744E+03  0.7546771E-02  0.1106799E+00
         21   -1    0    0  502  501  0.00000000000E+00  0.00000000000E+00  0.35769208587E+03  0.35769208587E+03  0.00000000000E+00 0. -1.
         21   -1    0    0  501  502 -0.00000000000E+00 -0.00000000000E+00 -0.18982532622E+03  0.18982532622E+03  0.00000000000E+00 0. -1.
         25    1    1    2    0    0  0.16339483450E+03 -0.15664080786E+03  0.50055862581E+02  0.26337198789E+03  0.12500000000E+03 0.  0.
         25    1    1    2    0    0 -0.16339483450E+03  0.15664080786E+03  0.11781089706E+03  0.28414542420E+03  0.12500000000E+03 0.  0.
</event>
<event>
 4    0  0.2270578E-002  0.5470864E+03  0.7546771E-02  0.1002171E+00
         21   -1    0    0  502  501  0.00000000000E+00  0.00000000000E+00  0.94125021032E+03  0.94125021032E+03  0.00000000000E+00 0. -1.
         21   -1    0    0  501  502 -0.00000000000E+00 -0.00000000000E+00 -0.31798514126E+03  0.31798514126E+03  0.00000000000E+00 0. -1.
         25    1    1    2    0    0  0.47381475748E+03 -0.49457168105E+02  0.37515794558E+02  0.49394217346E+03  0.12500000000E+03 0.  0.
         25    1    1    2    0    0 -0.47381475748E+03  0.49457168105E+02  0.58574927451E+03  0.76529317811E+03  0.12500000000E+03 0.  0.
</event>
<event>
 4    0  0.2270578E-002  0.2703028E+03  0.7546771E-02  0.1101106E+00
         21   -1    0    0  502  501  0.00000000000E+00  0.00000000000E+00  0.38701441313E+03  0.38701441313E+03  0.00000000000E+00 0. -1.
         21   -1    0    0  501  502 -0.00000000000E+00 -0.00000000000E+00 -0.18878783263E+03  0.18878783263E+03  0.00000000000E+00 0. -1.
         25    1    1    2    0    0  0.22076468172E+03  0.46772321921E+02  0.18507675558E+03  0.31749503972E+03  0.12500000000E+03 0.  0.
         25    1    1    2    0    0 -0.22076468172E+03 -0.46772321921E+02  0.13149824920E+02  0.25830720604E+03  0.12500000000E+03 0.  0.
</event>
<event>
 4    0  0.2270578E-002  0.2573049E+03  0.7546771E-02  0.1108773E+00
         21   -1    0    0  502  501  0.00000000000E+00  0.00000000000E+00  0.20392667898E+04  0.20392667898E+04  0.00000000000E+00 0.  1.
         21   -1    0    0  501  502 -0.00000000000E+00 -0.00000000000E+00 -0.32465494595E+02  0.32465494595E+02  0.00000000000E+00 0.  1.
         25    1    1    2    0    0  0.22455856094E+03 -0.53692220729E+01  0.10484880033E+04  0.10795403971E+04  0.12500000000E+03 0.  0.
         25    1    1    2    0    0 -0.22455856094E+03  0.53692220729E+01  0.95831329187E+03  0.99219188730E+03  0.12500000000E+03 0.  0.
</event>
<event>
 4    0  0.2270578E-002  0.2207263E+03  0.7546771E-02  0.1133343E+00
         21   -1    0    0  502  501  0.00000000000E+00  0.00000000000E+00  0.18615968477E+03  0.18615968477E+03  0.00000000000E+00 0.  1.
         21   -1    0    0  501  502 -0.00000000000E+00 -0.00000000000E+00 -0.26171133305E+03  0.26171133305E+03  0.00000000000E+00 0.  1.
         25    1    1    2    0    0 -0.95649247169E+02  0.12575114265E+03 -0.12927000875E+03  0.23936972140E+03  0.12500000000E+03 0.  0.
         25    1    1    2    0    0  0.95649247169E+02 -0.12575114265E+03  0.53718360469E+02  0.20850129643E+03  0.12500000000E+03 0.  0.
</event>
<event>
 4    0  0.2270578E-002  0.1708021E+03  0.7546771E-02  0.1177014E+00
         21   -1    0    0  502  501  0.00000000000E+00  0.00000000000E+00  0.20482517663E+03  0.20482517663E+03  0.00000000000E+00 0.  1.
         21   -1    0    0  501  502 -0.00000000000E+00 -0.00000000000E+00 -0.14243044501E+03  0.14243044501E+03  0.00000000000E+00 0.  1.
         25    1    1    2    0    0  0.42285404047E+02 -0.36488615719E+02 -0.72613965509E+02  0.15497503818E+03  0.12500000000E+03 0.  0.
         25    1    1    2    0    0 -0.42285404047E+02  0.36488615719E+02  0.13500869713E+03  0.19228058345E+03  0.12500000000E+03 0.  0.
</event>
<event>
 4    0  0.2270578E-002  0.2224178E+03  0.7546771E-02  0.1132093E+00
         21   -1    0    0  502  501  0.00000000000E+00  0.00000000000E+00  0.96852690683E+03  0.96852690683E+03  0.00000000000E+00 0.  1.
         21   -1    0    0  501  502 -0.00000000000E+00 -0.00000000000E+00 -0.51077233281E+02  0.51077233281E+02  0.00000000000E+00 0.  1.
         25    1    1    2    0    0  0.10270776395E+03 -0.67656242857E+02  0.14513159606E+03  0.22762783694E+03  0.12500000000E+03 0.  0.
         25    1    1    2    0    0 -0.10270776395E+03  0.67656242857E+02  0.77231807748E+03  0.79197630317E+03  0.12500000000E+03 0.  0.
</event>
<event>
 4    0  0.2270578E-002  0.1777712E+03  0.7546771E-02  0.1169978E+00
         21   -1    0    0  502  501  0.00000000000E+00  0.00000000000E+00  0.45562397450E+03  0.45562397450E+03  0.00000000000E+00 0.  1.
         21   -1    0    0  501  502 -0.00000000000E+00 -0.00000000000E+00 -0.69361157418E+02  0.69361157418E+02  0.00000000000E+00 0.  1.
         25    1    1    2    0    0  0.48719887027E+01  0.90774703333E+02  0.32281660318E+03  0.35790968460E+03  0.12500000000E+03 0.  0.
         25    1    1    2    0    0 -0.48719887027E+01 -0.90774703333E+02  0.63446213901E+02  0.16707544732E+03  0.12500000000E+03 0.  0.
</event>
<event>
 4    0  0.2270578E-002  0.1825145E+03  0.7546771E-02  0.1165391E+00
         21   -1    0    0  502  501  0.00000000000E+00  0.00000000000E+00  0.38840358126E+02  0.38840358126E+02  0.00000000000E+00 0.  1.
         21   -1    0    0  501  502 -0.00000000000E+00 -0.00000000000E+00 -0.85765266107E+03  0.85765266107E+03  0.00000000000E+00 0.  1.
         25    1    1    2    0    0 -0.60315931487E+02  0.10700374006E+03 -0.53460481894E+03  0.56259676893E+03  0.12500000000E+03 0.  0.
         25    1    1    2    0    0  0.60315931487E+02 -0.10700374006E+03 -0.28420748400E+03  0.33389625026E+03  0.12500000000E+03 0.  0.
</event>
<event>
 4    0  0.2270578E-002  0.2304999E+03  0.7546771E-02  0.1126288E+00
         21   -1    0    0  502  501  0.00000000000E+00  0.00000000000E+00  0.22557321664E+03  0.22557321664E+03  0.00000000000E+00 0. -1.
         21   -1    0    0  501  502 -0.00000000000E+00 -0.00000000000E+00 -0.23553422783E+03  0.23553422783E+03  0.00000000000E+00 0. -1.
         25    1    1    2    0    0 -0.10547802742E+03  0.11579498166E+03  0.10893690884E+03  0.22809283670E+03  0.12500000000E+03 0.  0.
         25    1    1    2    0    0  0.10547802742E+03 -0.11579498166E+03 -0.11889792004E+03  0.23301460777E+03  0.12500000000E+03 0.  0.
</event>
<event>
 4    0  0.2270578E-002  0.3408063E+03  0.7546771E-02  0.1066453E+00
         21   -1    0    0  502  501  0.00000000000E+00  0.00000000000E+00  0.43212799775E+03  0.43212799775E+03  0.00000000000E+00 0.  1.
         21   -1    0    0  501  502 -0.00000000000E+00 -0.00000000000E+00 -0.26878365941E+03  0.26878365941E+03  0.00000000000E+00 0.  1.
         25    1    1    2    0    0  0.20892814672E+03  0.13475467690E+03  0.28400228213E+03  0.39760795979E+03  0.12500000000E+03 0.  0.
         25    1    1    2    0    0 -0.20892814672E+03 -0.13475467690E+03 -0.12065794378E+03  0.30330369737E+03  0.12500000000E+03 0.  0.
</event>
<event>
 4    0  0.2270578E-002  0.2695551E+03  0.7546771E-02  0.1101534E+00
         21   -1    0    0  502  501  0.00000000000E+00  0.00000000000E+00  0.35528402863E+03  0.35528402863E+03  0.00000000000E+00 0. -1.
         21   -1    0    0  501  502 -0.00000000000E+00 -0.00000000000E+00 -0.20451236275E+03  0.20451236275E+03  0.00000000000E+00 0. -1.
         25    1    1    2    0    0  0.16157895609E+03  0.38691711969E+02  0.25352066466E+03  0.32787579209E+03  0.12500000000E+03 0.  0.
         25    1    1    2    0    0 -0.16157895609E+03 -0.38691711969E+02 -0.10274899878E+03  0.23192059929E+03  0.12500000000E+03 0.  0.
</event>
<event>
 4    0  0.2270578E-002  0.1731754E+03  0.7546771E-02  0.1174576E+00
         21   -1    0    0  502  501  0.00000000000E+00  0.00000000000E+00  0.67385430795E+02  0.67385430795E+02  0.00000000000E+00 0.  1.
         21   -1    0    0  501  502 -0.00000000000E+00 -0.00000000000E+00 -0.44504729860E+03  0.44504729860E+03  0.00000000000E+00 0.  1.
         25    1    1    2    0    0  0.51210958100E+02 -0.10819058108E+03 -0.19782318644E+03  0.26284363633E+03  0.12500000000E+03 0.  0.
         25    1    1    2    0    0 -0.51210958100E+02  0.10819058108E+03 -0.17983868137E+03  0.24958909307E+03  0.12500000000E+03 0.  0.
</event>
<event>
 4    0  0.2270578E-002  0.3035648E+03  0.7546771E-02  0.1083472E+00
         21   -1    0    0  502  501  0.00000000000E+00  0.00000000000E+00  0.16440108796E+04  0.16440108796E+04  0.00000000000E+00 0. -1.
         21   -1    0    0  501  502 -0.00000000000E+00 -0.00000000000E+00 -0.56052897615E+02  0.56052897615E+02  0.00000000000E+00 0. -1.
         25    1    1    2    0    0 -0.17452418189E+03 -0.47922569637E+02  0.20813953640E+03  0.30282392467E+03  0.12500000000E+03 0.  0.
         25    1    1    2    0    0  0.17452418189E+03  0.47922569637E+02  0.13798184456E+04  0.13972398526E+04  0.12500000000E+03 0.  0.
</event>
<event>
 4    0  0.2270578E-002  0.1967417E+03  0.7546771E-02  0.1152517E+00
         21   -1    0    0  502  501  0.00000000000E+00  0.00000000000E+00  0.22465650905E+03  0.22465650905E+03  0.00000000000E+00 0. -1.
         21   -1    0    0  501  502 -0.00000000000E+00 -0.00000000000E+00 -0.17229550725E+03  0.17229550725E+03  0.00000000000E+00 0. -1.
         25    1    1    2    0    0  0.78011542664E+02  0.12994748258E+03  0.15592355879E+02  0.19707935098E+03  0.12500000000E+03 0.  0.
         25    1    1    2    0    0 -0.78011542664E+02 -0.12994748258E+03  0.36768645924E+02  0.19987266532E+03  0.12500000000E+03 0.  0.
</event>
<event>
 4    0  0.2270578E-002  0.1805775E+03  0.7546771E-02  0.1167245E+00
         21   -1    0    0  502  501  0.00000000000E+00  0.00000000000E+00  0.10518737797E+03  0.10518737797E+03  0.00000000000E+00 0. -1.
         21   -1    0    0  501  502 -0.00000000000E+00 -0.00000000000E+00 -0.31000135705E+03  0.31000135705E+03  0.00000000000E+00 0. -1.
         25    1    1    2    0    0  0.53385635947E+01  0.59398381651E+02 -0.23561623341E+03  0.27330692902E+03  0.12500000000E+03 0.  0.
         25    1    1    2    0    0 -0.53385635947E+01 -0.59398381651E+02  0.30802254331E+02  0.14188180601E+03  0.12500000000E+03 0.  0.
</event>
<event>
 4    0  0.2270578E-002  0.2374483E+03  0.7546771E-02  0.1121504E+00
         21   -1    0    0  502  501  0.00000000000E+00  0.00000000000E+00  0.11664592277E+03  0.11664592277E+03  0.00000000000E+00 0.  1.
         21   -1    0    0  501  502 -0.00000000000E+00 -0.00000000000E+00 -0.48335778911E+03  0.48335778911E+03  0.00000000000E+00 0.  1.
         25    1    1    2    0    0  0.10331310551E+03 -0.15037609445E+02 -0.40166802703E+03  0.43343042280E+03  0.12500000000E+03 0.  0.
         25    1    1    2    0    0 -0.10331310551E+03  0.15037609445E+02  0.34956160688E+02  0.16657328909E+03  0.12500000000E+03 0.  0.
</event>
<event>
 4    0  0.2270578E-002  0.5136375E+03  0.7546771E-02  0.1010279E+00
         21   -1    0    0  502  501  0.00000000000E+00  0.00000000000E+00  0.17280394083E+03  0.17280394083E+03  0.00000000000E+00 0.  1.
         21   -1    0    0  501  502 -0.00000000000E+00 -0.00000000000E+00 -0.15267214526E+04  0.15267214526E+04  0.00000000000E+00 0.  1.
         25    1    1    2    0    0 -0.31322888009E+03  0.22468969199E+02 -0.13168108348E+04  0.13594973191E+04  0.12500000000E+03 0.  0.
         25    1    1    2    0    0  0.31322888009E+03 -0.22468969199E+02 -0.37106676994E+02  0.34002807439E+03  0.12500000000E+03 0.  0.
</event>
<event>
 4    0  0.2270578E-002  0.1498609E+03  0.7546771E-02  0.1200644E+00
         21   -1    0    0  502  501  0.00000000000E+00  0.00000000000E+00  0.32429830809E+02  0.32429830809E+02  0.00000000000E+00 0. -1.
         21   -1    0    0  501  502 -0.00000000000E+00 -0.00000000000E+00 -0.69251953796E+03  0.69251953796E+03  0.00000000000E+00 0. -1.
         25    1    1    2    0    0  0.19584558232E+02  0.66368375462E+02 -0.22066600348E+03  0.26288172487E+03  0.12500000000E+03 0.  0.
         25    1    1    2    0    0 -0.19584558232E+02 -0.66368375462E+02 -0.43942370367E+03  0.46206764389E+03  0.12500000000E+03 0.  0.
</event>
<event>
 4    0  0.2270578E-002  0.2170126E+03  0.7546771E-02  0.1136130E+00
         21   -1    0    0  502  501  0.00000000000E+00  0.00000000000E+00  0.10917797104E+04  0.10917797104E+04  0.00000000000E+00 0. -1.
         21   -1    0    0  501  502 -0.00000000000E+00 -0.00000000000E+00 -0.43135520279E+02  0.43135520279E+02  0.00000000000E+00 0. -1.
         25    1    1    2    0    0  0.15991860327E+03 -0.21522737550E+02  0.71704804238E+03  0.74553342178E+03  0.12500000000E+03 0.  0.
         25    1    1    2    0    0 -0.15991860327E+03  0.21522737550E+02  0.33159614772E+03  0.38938180888E+03  0.12500000000E+03 0.  0.
</event>
<event>
 4    0  0.2270578E-002  0.2331017E+03  0.7546771E-02  0.1124476E+00
         21   -1    0    0  502  501  0.00000000000E+00  0.00000000000E+00  0.16693985789E+03  0.16693985789E+03  0.00000000000E+00 0.  1.
         21   -1    0    0  501  502 -0.00000000000E+00 -0.00000000000E+00 -0.32548488431E+03  0.32548488431E+03  0.00000000000E+00 0.  1.
         25    1    1    2    0    0  0.19451933982E+03 -0.23208354235E+02 -0.59940092711E+02  0.23998794967E+03  0.12500000000E+03 0.  0.
         25    1    1    2    0    0 -0.19451933982E+03  0.23208354235E+02 -0.98604933705E+02  0.25243679253E+03  0.12500000000E+03 0.  0.
</event>
<event>
 4    0  0.2270578E-002  0.2963654E+03  0.7546771E-02  0.1087072E+00
         21   -1    0    0  502  501  0.00000000000E+00  0.00000000000E+00  0.99879585188E+03  0.99879585188E+03  0.00000000000E+00 0.  1.
         21   -1    0    0  501  502 -0.00000000000E+00 -0.00000000000E+00 -0.87938332440E+02  0.87938332440E+02  0.00000000000E+00 0.  1.
         25    1    1    2    0    0 -0.26296551667E+03 -0.51879275718E+02  0.49046224469E+03  0.57273077067E+03  0.12500000000E+03 0.  0.
         25    1    1    2    0    0  0.26296551667E+03  0.51879275718E+02  0.42039527475E+03  0.51400341365E+03  0.12500000000E+03 0.  0.
</event>
<event>
 4    0  0.2270578E-002  0.2136897E+03  0.7546771E-02  0.1138677E+00
         21   -1    0    0  502  501  0.00000000000E+00  0.00000000000E+00  0.21840391015E+03  0.21840391015E+03  0.00000000000E+00 0.  1.
         21   -1    0    0  501  502 -0.00000000000E+00 -0.00000000000E+00 -0.20907728998E+03  0.20907728998E+03  0.00000000000E+00 0.  1.
         25    1    1    2    0    0 -0.11635856443E+03 -0.12839543485E+03  0.97536718650E+00  0.21366013795E+03  0.12500000000E+03 0.  0.
         25    1    1    2    0    0  0.11635856443E+03  0.12839543485E+03  0.83512529756E+01  0.21382106218E+03  0.12500000000E+03 0.  0.
</event>
<event>
 4    0  0.2270578E-002  0.7120681E+03  0.7546771E-02  0.9696814E-01
         21   -1    0    0  502  501  0.00000000000E+00  0.00000000000E+00  0.70969973643E+03  0.70969973643E+03  0.00000000000E+00 0. -1.
         21   -1    0    0  501  502 -0.00000000000E+00 -0.00000000000E+00 -0.71444430577E+03  0.71444430577E+03  0.00000000000E+00 0. -1.
         25    1    1    2    0    0 -0.69781264968E+03  0.29250307923E+02  0.57776706112E+02  0.71187163332E+03  0.12500000000E+03 0.  0.
         25    1    1    2    0    0  0.69781264968E+03 -0.29250307923E+02 -0.62521275443E+02  0.71227240888E+03  0.12500000000E+03 0.  0.
</event>
<event>
 4    0  0.2298653E-002  0.2294252E+03  0.7546771E-02  0.1127045E+00
         21   -1    0    0  502  501  0.00000000000E+00  0.00000000000E+00  0.18191883297E+03  0.18191883297E+03  0.00000000000E+00 0. -1.
         21   -1    0    0  501  502 -0.00000000000E+00 -0.00000000000E+00 -0.28933737749E+03  0.28933737749E+03  0.00000000000E+00 0. -1.
         25    1    1    2    0    0  0.13604330680E+01  0.25846499105E+01  0.14385156570E+03  0.19059591849E+03  0.12500000000E+03 0.  0.
         25    1    1    2    0    0 -0.13604330680E+01 -0.25846499105E+01 -0.25127011022E+03  0.28066029196E+03  0.12500000000E+03 0.  0.
</event>
<event>
 4    0  0.2270578E-002  0.1967396E+03  0.7546771E-02  0.1152519E+00
         21   -1    0    0  502  501  0.00000000000E+00  0.00000000000E+00  0.50433166246E+02  0.50433166246E+02  0.00000000000E+00 0. -1.
         21   -1    0    0  501  502 -0.00000000000E+00 -0.00000000000E+00 -0.76748070558E+03  0.76748070558E+03  0.00000000000E+00 0. -1.
         25    1    1    2    0    0  0.36766379000E+02  0.93877416990E+02 -0.59476858554E+03  0.61606769627E+03  0.12500000000E+03 0.  0.
         25    1    1    2    0    0 -0.36766379000E+02 -0.93877416990E+02 -0.12227895380E+03  0.20184617556E+03  0.12500000000E+03 0.  0.
</event>
<event>
 4    0  0.2270578E-002  0.2005178E+03  0.7546771E-02  0.1149303E+00
         21   -1    0    0  502  501  0.00000000000E+00  0.00000000000E+00  0.28500936686E+03  0.28500936686E+03  0.00000000000E+00 0.  1.
         21   -1    0    0  501  502 -0.00000000000E+00 -0.00000000000E+00 -0.14107396894E+03  0.14107396894E+03  0.00000000000E+00 0.  1.
         25    1    1    2    0    0 -0.42902023309E+02 -0.25823280348E+02  0.22982391053E+03  0.26636714373E+03  0.12500000000E+03 0.  0.
         25    1    1    2    0    0  0.42902023309E+02  0.25823280348E+02 -0.85888512602E+02  0.15971619207E+03  0.12500000000E+03 0.  0.
</event>
<event>
 4    0  0.2270578E-002  0.2319128E+03  0.7546771E-02  0.1125301E+00
         21   -1    0    0  502  501  0.00000000000E+00  0.00000000000E+00  0.13519858049E+04  0.13519858049E+04  0.00000000000E+00 0. -1.
         21   -1    0    0  501  502 -0.00000000000E+00 -0.00000000000E+00 -0.39781143459E+02  0.39781143459E+02  0.00000000000E+00 0. -1.
         25    1    1    2    0    0  0.76392444690E+02 -0.16461709070E+03  0.43922643065E+03  0.49140558558E+03  0.12500000000E+03 0.  0.
         25    1    1    2    0    0 -0.76392444690E+02  0.16461709070E+03  0.87297823083E+03  0.90036136282E+03  0.12500000000E+03 0.  0.
</event>
<event>
 4    0  0.2270578E-002  0.2695169E+03  0.7546771E-02  0.1101556E+00
         21   -1    0    0  502  501  0.00000000000E+00  0.00000000000E+00  0.23544155519E+04  0.23544155519E+04  0.00000000000E+00 0.  1.
         21   -1    0    0  501  502 -0.00000000000E+00 -0.00000000000E+00 -0.30852386478E+02  0.30852386478E+02  0.00000000000E+00 0.  1.
         25    1    1    2    0    0  0.22496791799E+03  0.76411923933E+02  0.10565993231E+04  0.10901726816E+04  0.12500000000E+03 0.  0.
         25    1    1    2    0    0 -0.22496791799E+03 -0.76411923933E+02  0.12669638423E+04  0.12950952567E+04  0.12500000000E+03 0.  0.
</event>
<event>
 4    0  0.2270578E-002  0.2048013E+03  0.7546771E-02  0.1145750E+00
         21   -1    0    0  502  501  0.00000000000E+00  0.00000000000E+00  0.83468773963E+03  0.83468773963E+03  0.00000000000E+00 0.  1.
         21   -1    0    0  501  502 -0.00000000000E+00 -0.00000000000E+00 -0.50250602396E+02  0.50250602396E+02  0.00000000000E+00 0.  1.
         25    1    1    2    0    0  0.55035345383E+02  0.54841319506E+02  0.84533198891E+02  0.16972719665E+03  0.12500000000E+03 0.  0.
         25    1    1    2    0    0 -0.55035345383E+02 -0.54841319506E+02  0.69990393834E+03  0.71521114538E+03  0.12500000000E+03 0.  0.
</event>
<event>
 4    0  0.2270578E-002  0.2135812E+03  0.7546771E-02  0.1138761E+00
         21   -1    0    0  502  501  0.00000000000E+00  0.00000000000E+00  0.10894034149E+03  0.10894034149E+03  0.00000000000E+00 0. -1.
         21   -1    0    0  501  502 -0.00000000000E+00 -0.00000000000E+00 -0.41873325494E+03  0.41873325494E+03  0.00000000000E+00 0. -1.
         25    1    1    2    0    0  0.71149864737E+02  0.44146327305E+02 -0.34216045934E+03  0.37377798410E+03  0.12500000000E+03 0.  0.
         25    1    1    2    0    0 -0.71149864737E+02 -0.44146327305E+02  0.32367545886E+02  0.15389561233E+03  0.12500000000E+03 0.  0.
</event>
<event>
 4    0  0.2270578E-002  0.2822530E+03  0.7546771E-02  0.1094465E+00
         21   -1    0    0  502  501  0.00000000000E+00  0.00000000000E+00  0.10770737934E+03  0.10770737934E+03  0.00000000000E+00 0. -1.
         21   -1    0    0  501  502 -0.00000000000E+00 -0.00000000000E+00 -0.73965923211E+03  0.73965923211E+03  0.00000000000E+00 0. -1.
         25    1    1    2    0    0  0.11706613646E+03  0.21571611974E+03 -0.40855514160E+03  0.49272733672E+03  0.12500000000E+03 0.  0.
         25    1    1    2    0    0 -0.11706613646E+03 -0.21571611974E+03 -0.22339671116E+03  0.35463927473E+03  0.12500000000E+03 0.  0.
</event>
<event>
 4    0  0.2270578E-002  0.2474273E+03  0.7546771E-02  0.1114942E+00
         21   -1    0    0  502  501  0.00000000000E+00  0.00000000000E+00  0.67084474600E+02  0.67084474600E+02  0.00000000000E+00 0.  1.
         21   -1    0    0  501  502 -0.00000000000E+00 -0.00000000000E+00 -0.91258481787E+03  0.91258481787E+03  0.00000000000E+00 0.  1.
         25    1    1    2    0    0  0.12784011521E+01 -0.21258767959E+03 -0.38315014428E+03  0.45565797357E+03  0.12500000000E+03 0.  0.
         25    1    1    2    0    0 -0.12784011521E+01  0.21258767959E+03 -0.46235019899E+03  0.52401131890E+03  0.12500000000E+03 0.  0.
</event>
<event>
 4    0  0.2270578E-002  0.2430413E+03  0.7546771E-02  0.1117783E+00
         21   -1    0    0  502  501  0.00000000000E+00  0.00000000000E+00  0.21309644350E+03  0.21309644350E+03  0.00000000000E+00 0. -1.
         21   -1    0    0  501  502 -0.00000000000E+00 -0.00000000000E+00 -0.27719401793E+03  0.27719401793E+03  0.00000000000E+00 0. -1.
         25    1    1    2    0    0 -0.11489557252E+03 -0.17177676988E+03 -0.46881812434E+01  0.24156827254E+03  0.12500000000E+03 0.  0.
         25    1    1    2    0    0  0.11489557252E+03  0.17177676988E+03 -0.59409393185E+02  0.24872218890E+03  0.12500000000E+03 0.  0.
</event>
<event>
 4    0  0.2270578E-002  0.1670135E+03  0.7546771E-02  0.1180999E+00
         21   -1    0    0  502  501  0.00000000000E+00  0.00000000000E+00  0.14173444609E+03  0.14173444609E+03  0.00000000000E+00 0. -1.
         21   -1    0    0  501  502 -0.00000000000E+00 -0.00000000000E+00 -0.19680121913E+03  0.19680121913E+03  0.00000000000E+00 0. -1.
         25    1    1    2    0    0 -0.26938507334E+02  0.10734128317E+03 -0.22924752717E+02  0.16851818459E+03  0.12500000000E+03 0.  0.
         25    1    1    2    0    0  0.26938507334E+02 -0.10734128317E+03 -0.32142020330E+02  0.17001748063E+03  0.12500000000E+03 0.  0.
</event>
<event>
 4    0  0.2270578E-002  0.3841752E+03  0.7546771E-02  0.1049401E+00
         21   -1    0    0  502  501  0.00000000000E+00  0.00000000000E+00  0.25740739474E+03  0.25740739474E+03  0.00000000000E+00 0. -1.
         21   -1    0    0  501  502 -0.00000000000E+00 -0.00000000000E+00 -0.57337341392E+03  0.57337341392E+03  0.00000000000E+00 0. -1.
         25    1    1    2    0    0  0.10654067199E+03 -0.26199250787E+03  0.88520222220E+02  0.32163926798E+03  0.12500000000E+03 0.  0.
         25    1    1    2    0    0 -0.10654067199E+03  0.26199250787E+03 -0.40448624140E+03  0.50914154068E+03  0.12500000000E+03 0.  0.
</event>
<event>
 4    0  0.2270578E-002  0.2278708E+03  0.7546771E-02  0.1128147E+00
         21   -1    0    0  502  501  0.00000000000E+00  0.00000000000E+00  0.49380740231E+03  0.49380740231E+03  0.00000000000E+00 0. -1.
         21   -1    0    0  501  502 -0.00000000000E+00 -0.00000000000E+00 -0.10515252612E+03  0.10515252612E+03  0.00000000000E+00 0. -1.
         25    1    1    2    0    0 -0.16256714214E+03 -0.98333882090E+02  0.17562677555E+03  0.28734542342E+03  0.12500000000E+03 0.  0.
         25    1    1    2    0    0  0.16256714214E+03  0.98333882090E+02  0.21302810064E+03  0.31161450501E+03  0.12500000000E+03 0.  0.
</event>
<event>
 4    0  0.2270578E-002  0.2659132E+03  0.7546771E-02  0.1103642E+00
         21   -1    0    0  502  501  0.00000000000E+00  0.00000000000E+00  0.37044508418E+03  0.37044508418E+03  0.00000000000E+00 0. -1.
         21   -1    0    0  501  502 -0.00000000000E+00 -0.00000000000E+00 -0.19087800218E+03  0.19087800218E+03  0.00000000000E+00 0. -1.
         25    1    1    2    0    0 -0.18946195821E+02 -0.12280999178E+03  0.29993354485E+03  0.34788846452E+03  0.12500000000E+03 0.  0.
         25    1    1    2    0    0  0.18946195821E+02  0.12280999178E+03 -0.12036646285E+03  0.21343462183E+03  0.12500000000E+03 0.  0.
</event>
<event>
 4    0  0.2270578E-002  0.1891097E+03  0.7546771E-02  0.1159267E+00
         21   -1    0    0  502  501  0.00000000000E+00  0.00000000000E+00  0.10615789261E+04  0.10615789261E+04  0.00000000000E+00 0. -1.
         21   -1    0    0  501  502 -0.00000000000E+00 -0.00000000000E+00 -0.33688018207E+02  0.33688018207E+02  0.00000000000E+00 0. -1.
         25    1    1    2    0    0  0.71012703026E+02 -0.12262234693E+03  0.49180663892E+03  0.52685654029E+03  0.12500000000E+03 0.  0.
         25    1    1    2    0    0 -0.71012703026E+02  0.12262234693E+03  0.53608426901E+03  0.56841040406E+03  0.12500000000E+03 0.  0.
</event>
<event>
 4    0  0.2270578E-002  0.2769172E+03  0.7546771E-02  0.1097385E+00
         21   -1    0    0  502  501  0.00000000000E+00  0.00000000000E+00  0.28016350387E+03  0.28016350387E+03  0.00000000000E+00 0.  1.
         21   -1    0    0  501  502 -0.00000000000E+00 -0.00000000000E+00 -0.27370846914E+03  0.27370846914E+03  0.00000000000E+00 0.  1.
         25    1    1    2    0    0  0.59998883822E+02 -0.13881837546E+03 -0.19220253115E+03  0.27465837036E+03  0.12500000000E+03 0.  0.
         25    1    1    2    0    0 -0.59998883822E+02  0.13881837546E+03  0.19865756588E+03  0.27921360265E+03  0.12500000000E+03 0.  0.
</event>
<event>
 4    0  0.2270578E-002  0.1891046E+03  0.7546771E-02  0.1159271E+00
         21   -1    0    0  502  501  0.00000000000E+00  0.00000000000E+00  0.34212430579E+03  0.34212430579E+03  0.00000000000E+00 0.  1.
         21   -1    0    0  501  502 -0.00000000000E+00 -0.00000000000E+00 -0.10452500774E+03  0.10452500774E+03  0.00000000000E+00 0.  1.
         25    1    1    2    0    0 -0.11636075019E+03 -0.35438285657E+02  0.32501970663E+02  0.17741779610E+03  0.12500000000E+03 0.  0.
         25    1    1    2    0    0  0.11636075019E+03  0.35438285657E+02  0.20509732739E+03  0.26923151743E+03  0.12500000000E+03 0.  0.
</event>
<event>
 4    0  0.2270578E-002  0.1802427E+03  0.7546771E-02  0.1167568E+00
         21   -1    0    0  502  501  0.00000000000E+00  0.00000000000E+00  0.90157333542E+01  0.90157333542E+01  0.00000000000E+00 0. -1.
         21   -1    0    0  501  502 -0.00000000000E+00 -0.00000000000E+00 -0.36034137509E+04  0.36034137509E+04  0.00000000000E+00 0. -1.
         25    1    1    2    0    0  0.67245363318E+01 -0.79430633313E+02 -0.28244374290E+04  0.28283256947E+04  0.12500000000E+03 0.  0.
         25    1    1    2    0    0 -0.67245363318E+01  0.79430633313E+02 -0.76996058852E+03  0.78410378954E+03  0.12500000000E+03 0.  0.
</event>
<event>
 4    0  0.2270578E-002  0.3341161E+03  0.7546771E-02  0.1069330E+00
         21   -1    0    0  502  501  0.00000000000E+00  0.00000000000E+00  0.35628753664E+03  0.35628753664E+03  0.00000000000E+00 0.  1.
         21   -1    0    0  501  502 -0.00000000000E+00 -0.00000000000E+00 -0.31332442702E+03  0.31332442702E+03  0.00000000000E+00 0.  1.
         25    1    1    2    0    0 -0.22866311532E+03  0.17423028059E+03  0.13732984470E+03  0.34223894756E+03  0.12500000000E+03 0.  0.
         25    1    1    2    0    0  0.22866311532E+03 -0.17423028059E+03 -0.94366735084E+02  0.32737301610E+03  0.12500000000E+03 0.  0.
</event>
<event>
 4    0  0.2270578E-002  0.3104732E+03  0.7546771E-02  0.1080119E+00
         21   -1    0    0  502  501  0.00000000000E+00  0.00000000000E+00  0.78388814717E+02  0.78388814717E+02  0.00000000000E+00 0. -1.
         21   -1    0    0  501  502 -0.00000000000E+00 -0.00000000000E+00 -0.12296857502E+04  0.12296857502E+04  0.00000000000E+00 0. -1.
         25    1    1    2    0    0 -0.16286257795E+03 -0.11698476573E+03 -0.15139855865E+03  0.28063531187E+03  0.12500000000E+03 0.  0.
         25    1    1    2    0    0  0.16286257795E+03  0.11698476573E+03 -0.99989837685E+03  0.10274392531E+04  0.12500000000E+03 0.  0.
</event>
<event>
 4    0  0.2270578E-002  0.2062358E+03  0.7546771E-02  0.1144582E+00
         21   -1    0    0  502  501  0.00000000000E+00  0.00000000000E+00  0.26945906179E+03  0.26945906179E+03  0.00000000000E+00 0.  1.
         21   -1    0    0  501  502 -0.00000000000E+00 -0.00000000000E+00 -0.15784658125E+03  0.15784658125E+03  0.00000000000E+00 0.  1.
         25    1    1    2    0    0  0.39756359202E+02 -0.30137095815E+02  0.21769323241E+03  0.25593779728E+03  0.12500000000E+03 0.  0.
         25    1    1    2    0    0 -0.39756359202E+02  0.30137095815E+02 -0.10608075187E+03  0.17136784575E+03  0.12500000000E+03 0.  0.
</event>
<event>
 4    0  0.2270578E-002  0.2668619E+03  0.7546771E-02  0.1103089E+00
         21   -1    0    0  502  501  0.00000000000E+00  0.00000000000E+00  0.48773458663E+02  0.48773458663E+02  0.00000000000E+00 0. -1.
         21   -1    0    0  501  502 -0.00000000000E+00 -0.00000000000E+00 -0.14601231758E+04  0.14601231758E+04  0.00000000000E+00 0. -1.
         25    1    1    2    0    0 -0.20163596252E+03  0.69338439069E+02 -0.42119693590E+03  0.48836127951E+03  0.12500000000E+03 0.  0.
         25    1    1    2    0    0  0.20163596252E+03 -0.69338439069E+02 -0.99015278125E+03  0.10205353550E+04  0.12500000000E+03 0.  0.
</event>
<event>
 4    0  0.2270578E-002  0.2265691E+03  0.7546771E-02  0.1129078E+00
         21   -1    0    0  502  501  0.00000000000E+00  0.00000000000E+00  0.15523326236E+03  0.15523326236E+03  0.00000000000E+00 0. -1.
         21   -1    0    0  501  502 -0.00000000000E+00 -0.00000000000E+00 -0.33068655016E+03  0.33068655016E+03  0.00000000000E+00 0. -1.
         25    1    1    2    0    0 -0.96933172294E+01  0.18186500664E+03 -0.33685305047E+02  0.22344695302E+03  0.12500000000E+03 0.  0.
         25    1    1    2    0    0  0.96933172294E+01 -0.18186500664E+03 -0.14176798276E+03  0.26247285950E+03  0.12500000000E+03 0.  0.
</event>
<event>
 4    0  0.2270578E-002  0.2623098E+03  0.7546771E-02  0.1105763E+00
         21   -1    0    0  502  501  0.00000000000E+00  0.00000000000E+00  0.74085334227E+02  0.74085334227E+02  0.00000000000E+00 0.  1.
         21   -1    0    0  501  502 -0.00000000000E+00 -0.00000000000E+00 -0.92874531889E+03  0.92874531889E+03  0.00000000000E+00 0.  1.
         25    1    1    2    0    0  0.20388686688E+03  0.83631575304E+02 -0.55722061458E+03  0.61211429340E+03  0.12500000000E+03 0.  0.
         25    1    1    2    0    0 -0.20388686688E+03 -0.83631575304E+02 -0.29743937008E+03  0.39071635972E+03  0.12500000000E+03 0.  0.
</event>
<event>
 4    0  0.2270578E-002  0.2059081E+03  0.7546771E-02  0.1144848E+00
         21   -1    0    0  502  501  0.00000000000E+00  0.00000000000E+00  0.26149504023E+03  0.26149504023E+03  0.00000000000E+00 0.  1.
         21   -1    0    0  501  502 -0.00000000000E+00 -0.00000000000E+00 -0.16213752316E+03  0.16213752316E+03  0.00000000000E+00 0.  1.
         25    1    1    2    0    0 -0.11676269980E+03 -0.10369862728E+03 -0.57187253782E+00  0.20003064866E+03  0.12500000000E+03 0.  0.
         25    1    1    2    0    0  0.11676269980E+03  0.10369862728E+03  0.99929389606E+02  0.22360191473E+03  0.12500000000E+03 0.  0.
</event>
<event>
 4    0  0.2270578E-002  0.2075776E+03  0.7546771E-02  0.1143499E+00
         21   -1    0    0  502  501  0.00000000000E+00  0.00000000000E+00  0.13116940006E+04  0.13116940006E+04  0.00000000000E+00 0.  1.
         21   -1    0    0  501  502 -0.00000000000E+00 -0.00000000000E+00 -0.32849489356E+02  0.32849489356E+02  0.00000000000E+00 0.  1.
         25    1    1    2    0    0  0.29068573012E+02  0.71920946602E+02  0.11137037201E+04  0.11233782002E+04  0.12500000000E+03 0.  0.
         25    1    1    2    0    0 -0.29068573012E+02 -0.71920946602E+02  0.16514079114E+03  0.22116528976E+03  0.12500000000E+03 0.  0.
</event>
<event>
 4    0  0.2270578E-002  0.2732431E+03  0.7546771E-02  0.1099438E+00
         21   -1    0    0  502  501  0.00000000000E+00  0.00000000000E+00  0.10916530263E+03  0.10916530263E+03  0.00000000000E+00 0.  1.
         21   -1    0    0  501  502 -0.00000000000E+00 -0.00000000000E+00 -0.68393346480E+03  0.68393346480E+03  0.00000000000E+00 0.  1.
         25    1    1    2    0    0 -0.18357893453E+03 -0.15838716498E+03 -0.31028860821E+03  0.41314856846E+03  0.12500000000E+03 0.  0.
         25    1    1    2    0    0  0.18357893453E+03  0.15838716498E+03 -0.26447955396E+03  0.37995019897E+03  0.12500000000E+03 0.  0.
</event>
<event>
 4    0  0.2270578E-002  0.1967464E+03  0.7546771E-02  0.1152513E+00
         21   -1    0    0  502  501  0.00000000000E+00  0.00000000000E+00  0.36489671771E+03  0.36489671771E+03  0.00000000000E+00 0.  1.
         21   -1    0    0  501  502 -0.00000000000E+00 -0.00000000000E+00 -0.10608246608E+03  0.10608246608E+03  0.00000000000E+00 0.  1.
         25    1    1    2    0    0  0.20628103098E+02 -0.74250047611E+02  0.28613300506E+03  0.32161418624E+03  0.12500000000E+03 0.  0.
         25    1    1    2    0    0 -0.20628103098E+02  0.74250047611E+02 -0.27318753426E+02  0.14936499756E+03  0.12500000000E+03 0.  0.
</event>
<event>
 4    0  0.2270578E-002  0.2411474E+03  0.7546771E-02  0.1119031E+00
         21   -1    0    0  502  501  0.00000000000E+00  0.00000000000E+00  0.24122399150E+03  0.24122399150E+03  0.00000000000E+00 0. -1.
         21   -1    0    0  501  502 -0.00000000000E+00 -0.00000000000E+00 -0.24107084160E+03  0.24107084160E+03  0.00000000000E+00 0. -1.
         25    1    1    2    0    0 -0.33408253583E+01  0.13285890041E+03 -0.15760799823E+03  0.24109734473E+03  0.12500000000E+03 0.  0.
         25    1    1    2    0    0  0.33408253583E+01 -0.13285890041E+03  0.15776114812E+03  0.24119748836E+03  0.12500000000E+03 0.  0.
</event>
<event>
 4    0  0.2270578E-002  0.2154492E+03  0.7546771E-02  0.1137322E+00
         21   -1    0    0  502  501  0.00000000000E+00  0.00000000000E+00  0.36445651990E+03  0.36445651990E+03  0.00000000000E+00 0. -1.
         21   -1    0    0  501  502 -0.00000000000E+00 -0.00000000000E+00 -0.12736321925E+03  0.12736321925E+03  0.00000000000E+00 0. -1.
         25    1    1    2    0    0 -0.41504805903E+02 -0.10091837449E+03 -0.38310110648E+02  0.17029336981E+03  0.12500000000E+03 0.  0.
         25    1    1    2    0    0  0.41504805903E+02  0.10091837449E+03  0.27540341130E+03  0.32152636934E+03  0.12500000000E+03 0.  0.
</event>
<event>
 4    0  0.2270578E-002  0.2107329E+03  0.7546771E-02  0.1140987E+00
         21   -1    0    0  502  501  0.00000000000E+00  0.00000000000E+00  0.48653005474E+02  0.48653005474E+02  0.00000000000E+00 0.  1.
         21   -1    0    0  501  502 -0.00000000000E+00 -0.00000000000E+00 -0.91275683786E+03  0.91275683786E+03  0.00000000000E+00 0.  1.
         25    1    1    2    0    0 -0.64141948145E+02 -0.94653548320E+02 -0.14613976431E+03  0.22373045040E+03  0.12500000000E+03 0.  0.
         25    1    1    2    0    0  0.64141948145E+02  0.94653548320E+02 -0.71796406807E+03  0.73767939294E+03  0.12500000000E+03 0.  0.
</event>
<event>
 4    0  0.2270578E-002  0.2284961E+03  0.7546771E-02  0.1127703E+00
         21   -1    0    0  502  501  0.00000000000E+00  0.00000000000E+00  0.14515977787E+03  0.14515977787E+03  0.00000000000E+00 0. -1.
         21   -1    0    0  501  502 -0.00000000000E+00 -0.00000000000E+00 -0.35967586444E+03  0.35967586444E+03  0.00000000000E+00 0. -1.
         25    1    1    2    0    0 -0.88154982870E+02 -0.39048753967E+01  0.80210893053E+02  0.17275802853E+03  0.12500000000E+03 0.  0.
         25    1    1    2    0    0  0.88154982870E+02  0.39048753967E+01 -0.29472697962E+03  0.33207761378E+03  0.12500000000E+03 0.  0.
</event>
<event>
 4    0  0.2270578E-002  0.2301169E+03  0.7546771E-02  0.1126558E+00
         21   -1    0    0  502  501  0.00000000000E+00  0.00000000000E+00  0.21325509954E+03  0.21325509954E+03  0.00000000000E+00 0.  1.
         21   -1    0    0  501  502 -0.00000000000E+00 -0.00000000000E+00 -0.24831188433E+03  0.24831188433E+03  0.00000000000E+00 0.  1.
         25    1    1    2    0    0  0.59146476156E+01 -0.14746196080E+03  0.10752750938E+03  0.22128528693E+03  0.12500000000E+03 0.  0.
         25    1    1    2    0    0 -0.59146476156E+01  0.14746196080E+03 -0.14258429418E+03  0.24028169694E+03  0.12500000000E+03 0.  0.
</event>
<event>
 4    0  0.2270578E-002  0.2940065E+03  0.7546771E-02  0.1088276E+00
         21   -1    0    0  502  501  0.00000000000E+00  0.00000000000E+00  0.15654116071E+04  0.15654116071E+04  0.00000000000E+00 0.  1.
         21   -1    0    0  501  502 -0.00000000000E+00 -0.00000000000E+00 -0.55218584373E+02  0.55218584373E+02  0.00000000000E+00 0.  1.
         25    1    1    2    0    0  0.26100398998E+03  0.51783994727E+02  0.76387636835E+03  0.81849665302E+03  0.12500000000E+03 0.  0.
         25    1    1    2    0    0 -0.26100398998E+03 -0.51783994727E+02  0.74631665434E+03  0.80213353840E+03  0.12500000000E+03 0.  0.
</event>
<event>
 4    0  0.2270578E-002  0.2037372E+03  0.7546771E-02  0.1146624E+00
         21   -1    0    0  502  501  0.00000000000E+00  0.00000000000E+00  0.37462063444E+03  0.37462063444E+03  0.00000000000E+00 0.  1.
         21   -1    0    0  501  502 -0.00000000000E+00 -0.00000000000E+00 -0.11080238019E+03  0.11080238019E+03  0.00000000000E+00 0.  1.
         25    1    1    2    0    0  0.23731706060E+01  0.12616498422E+02 -0.59141046320E+02  0.13887934091E+03  0.12500000000E+03 0.  0.
         25    1    1    2    0    0 -0.23731706060E+01 -0.12616498422E+02  0.32295930057E+03  0.34654367372E+03  0.12500000000E+03 0.  0.
</event>
<event>
 4    0  0.2270578E-002  0.1909016E+03  0.7546771E-02  0.1157651E+00
         21   -1    0    0  502  501  0.00000000000E+00  0.00000000000E+00  0.59039651905E+02  0.59039651905E+02  0.00000000000E+00 0.  1.
         21   -1    0    0  501  502 -0.00000000000E+00 -0.00000000000E+00 -0.61727026882E+03  0.61727026882E+03  0.00000000000E+00 0.  1.
         25    1    1    2    0    0 -0.35645119157E+02  0.11487391746E+03 -0.42028960564E+03  0.45468114547E+03  0.12500000000E+03 0.  0.
         25    1    1    2    0    0  0.35645119157E+02 -0.11487391746E+03 -0.13794101127E+03  0.22162877525E+03  0.12500000000E+03 0.  0.
</event>
<event>
 4    0  0.2270578E-002  0.1850823E+03  0.7546771E-02  0.1162973E+00
         21   -1    0    0  502  501  0.00000000000E+00  0.00000000000E+00  0.25893468878E+04  0.25893468878E+04  0.00000000000E+00 0.  1.
         21   -1    0    0  501  502 -0.00000000000E+00 -0.00000000000E+00 -0.13229382522E+02  0.13229382522E+02  0.00000000000E+00 0.  1.
         25    1    1    2    0    0  0.41663182525E+02  0.10123553364E+03  0.71488150443E+03  0.73393802151E+03  0.12500000000E+03 0.  0.
         25    1    1    2    0    0 -0.41663182525E+02 -0.10123553364E+03  0.18612360008E+04  0.18686382488E+04  0.12500000000E+03 0.  0.
</event>
<event>
 4    0  0.2270578E-002  0.1984601E+03  0.7546771E-02  0.1151045E+00
         21   -1    0    0  502  501  0.00000000000E+00  0.00000000000E+00  0.21675117227E+03  0.21675117227E+03  0.00000000000E+00 0.  1.
         21   -1    0    0  501  502 -0.00000000000E+00 -0.00000000000E+00 -0.18171264161E+03  0.18171264161E+03  0.00000000000E+00 0.  1.
         25    1    1    2    0    0 -0.63203619278E+01 -0.90652973770E+02  0.14251659714E+03  0.21022342660E+03  0.12500000000E+03 0.  0.
         25    1    1    2    0    0  0.63203619278E+01  0.90652973770E+02 -0.10747806648E+03  0.18824038728E+03  0.12500000000E+03 0.  0.
</event>
<event>
 4    0  0.2270578E-002  0.1754992E+03  0.7546771E-02  0.1172231E+00
         21   -1    0    0  502  501  0.00000000000E+00  0.00000000000E+00  0.19978495715E+03  0.19978495715E+03  0.00000000000E+00 0. -1.
         21   -1    0    0  501  502 -0.00000000000E+00 -0.00000000000E+00 -0.15416558410E+03  0.15416558410E+03  0.00000000000E+00 0. -1.
         25    1    1    2    0    0 -0.30547430762E+02  0.52065653455E+02  0.13109528824E+03  0.19093180038E+03  0.12500000000E+03 0.  0.
         25    1    1    2    0    0  0.30547430762E+02 -0.52065653455E+02 -0.85475915197E+02  0.16301874087E+03  0.12500000000E+03 0.  0.
</event>
<event>
 4    0  0.2270578E-002  0.2256175E+03  0.7546771E-02  0.1129763E+00
         21   -1    0    0  502  501  0.00000000000E+00  0.00000000000E+00  0.14505233836E+04  0.14505233836E+04  0.00000000000E+00 0. -1.
         21   -1    0    0  501  502 -0.00000000000E+00 -0.00000000000E+00 -0.35093021950E+02  0.35093021950E+02  0.00000000000E+00 0. -1.
         25    1    1    2    0    0  0.68354579568E+02 -0.16919379632E+03  0.85419112265E+03  0.88236407638E+03  0.12500000000E+03 0.  0.
         25    1    1    2    0    0 -0.68354579568E+02  0.16919379632E+03  0.56123923898E+03  0.60325232916E+03  0.12500000000E+03 0.  0.
</event>
<event>
 4    0  0.2270578E-002  0.1671128E+03  0.7546771E-02  0.1180893E+00
         21   -1    0    0  502  501  0.00000000000E+00  0.00000000000E+00  0.69644786037E+03  0.69644786037E+03  0.00000000000E+00 0.  1.
         21   -1    0    0  501  502 -0.00000000000E+00 -0.00000000000E+00 -0.40098745370E+02  0.40098745370E+02  0.00000000000E+00 0.  1.
         25    1    1    2    0    0 -0.10363591083E+03 -0.32098961661E+02  0.37895345754E+03  0.41352323796E+03  0.12500000000E+03 0.  0.
         25    1    1    2    0    0  0.10363591083E+03  0.32098961661E+02  0.27739565745E+03  0.32302336777E+03  0.12500000000E+03 0.  0.
</event>
<event>
 4    0  0.2270578E-002  0.1712657E+03  0.7546771E-02  0.1176534E+00
         21   -1    0    0  502  501  0.00000000000E+00  0.00000000000E+00  0.10940039031E+03  0.10940039031E+03  0.00000000000E+00 0.  1.
         21   -1    0    0  501  502 -0.00000000000E+00 -0.00000000000E+00 -0.26811553254E+03  0.26811553254E+03  0.00000000000E+00 0.  1.
         25    1    1    2    0    0  0.10713110111E+02 -0.50185521106E+02 -0.19533647759E+03  0.23751778193E+03  0.12500000000E+03 0.  0.
         25    1    1    2    0    0 -0.10713110111E+02  0.50185521106E+02  0.36621335360E+02  0.13999814092E+03  0.12500000000E+03 0.  0.
</event>
<event>
 4    0  0.2270578E-002  0.2516456E+03  0.7546771E-02  0.1112269E+00
         21   -1    0    0  502  501  0.00000000000E+00  0.00000000000E+00  0.19342400813E+04  0.19342400813E+04  0.00000000000E+00 0.  1.
         21   -1    0    0  501  502 -0.00000000000E+00 -0.00000000000E+00 -0.32739221073E+02  0.32739221073E+02  0.00000000000E+00 0.  1.
         25    1    1    2    0    0 -0.14858132006E+03  0.16004834146E+03  0.93926703848E+03  0.97238852824E+03  0.12500000000E+03 0.  0.
         25    1    1    2    0    0  0.14858132006E+03 -0.16004834146E+03  0.96223382173E+03  0.99459077411E+03  0.12500000000E+03 0.  0.
</event>
<event>
 4    0  0.2270578E-002  0.1465250E+03  0.7546771E-02  0.1204809E+00
         21   -1    0    0  502  501  0.00000000000E+00  0.00000000000E+00  0.93431874796E+03  0.93431874796E+03  0.00000000000E+00 0.  1.
         21   -1    0    0  501  502 -0.00000000000E+00 -0.00000000000E+00 -0.22978847839E+02  0.22978847839E+02  0.00000000000E+00 0.  1.
         25    1    1    2    0    0  0.71964351723E+02 -0.19970681882E+02  0.50903501675E+03  0.52945192825E+03  0.12500000000E+03 0.  0.
         25    1    1    2    0    0 -0.71964351723E+02  0.19970681882E+02  0.40230488338E+03  0.42784566755E+03  0.12500000000E+03 0.  0.
</event>
<event>
 4    0  0.2270578E-002  0.2153840E+03  0.7546771E-02  0.1137372E+00
         21   -1    0    0  502  501  0.00000000000E+00  0.00000000000E+00  0.13619774090E+02  0.13619774090E+02  0.00000000000E+00 0.  1.
         21   -1    0    0  501  502 -0.00000000000E+00 -0.00000000000E+00 -0.34060954586E+04  0.34060954586E+04  0.00000000000E+00 0.  1.
         25    1    1    2    0    0 -0.15020302679E+03  0.90034432962E+02 -0.16176082215E+04  0.16318543154E+04  0.12500000000E+03 0.  0.
         25    1    1    2    0    0  0.15020302679E+03 -0.90034432962E+02 -0.17748674630E+04  0.17878609172E+04  0.12500000000E+03 0.  0.
</event>
<event>
 4    0  0.2270578E-002  0.2366588E+03  0.7546771E-02  0.1122039E+00
         21   -1    0    0  502  501  0.00000000000E+00  0.00000000000E+00  0.99231141871E+02  0.99231141871E+02  0.00000000000E+00 0. -1.
         21   -1    0    0  501  502 -0.00000000000E+00 -0.00000000000E+00 -0.56441327684E+03  0.56441327684E+03  0.00000000000E+00 0. -1.
         25    1    1    2    0    0 -0.41319480630E+02 -0.81859790412E+02 -0.48330684499E+03  0.50756165259E+03  0.12500000000E+03 0.  0.
         25    1    1    2    0    0  0.41319480630E+02  0.81859790412E+02  0.18124710023E+02  0.15608276612E+03  0.12500000000E+03 0.  0.
</event>
<event>
 4    0  0.2270578E-002  0.2315080E+03  0.7546771E-02  0.1125583E+00
         21   -1    0    0  502  501  0.00000000000E+00  0.00000000000E+00  0.15066247598E+04  0.15066247598E+04  0.00000000000E+00 0. -1.
         21   -1    0    0  501  502 -0.00000000000E+00 -0.00000000000E+00 -0.35573513002E+02  0.35573513002E+02  0.00000000000E+00 0. -1.
         25    1    1    2    0    0  0.75194215205E+02  0.16953206923E+03  0.53635679729E+03  0.58111866817E+03  0.12500000000E+03 0.  0.
         25    1    1    2    0    0 -0.75194215205E+02 -0.16953206923E+03  0.93469444948E+03  0.96107960461E+03  0.12500000000E+03 0.  0.
</event>
<event>
 4    0  0.2270578E-002  0.2420571E+03  0.7546771E-02  0.1118430E+00
         21   -1    0    0  502  501  0.00000000000E+00  0.00000000000E+00  0.20536295818E+03  0.20536295818E+03  0.00000000000E+00 0.  1.
         21   -1    0    0  501  502 -0.00000000000E+00 -0.00000000000E+00 -0.28530784713E+03  0.28530784713E+03  0.00000000000E+00 0.  1.
         25    1    1    2    0    0  0.15375596115E+03 -0.65730774538E+02 -0.16412729254E+03  0.26556392539E+03  0.12500000000E+03 0.  0.
         25    1    1    2    0    0 -0.15375596115E+03  0.65730774538E+02  0.84182403591E+02  0.22510687992E+03  0.12500000000E+03 0.  0.
</event>
<event>
 4    0  0.2270578E-002  0.3832659E+03  0.7546771E-02  0.1049733E+00
         21   -1    0    0  502  501  0.00000000000E+00  0.00000000000E+00  0.57531084552E+03  0.57531084552E+03  0.00000000000E+00 0. -1.
         21   -1    0    0  501  502 -0.00000000000E+00 -0.00000000000E+00 -0.25532763203E+03  0.25532763203E+03  0.00000000000E+00 0. -1.
         25    1    1    2    0    0  0.25025842707E+03 -0.15290984242E+03 -0.70537096830E+02  0.32651367851E+03  0.12500000000E+03 0.  0.
         25    1    1    2    0    0 -0.25025842707E+03  0.15290984242E+03  0.39052031032E+03  0.50412479903E+03  0.12500000000E+03 0.  0.
</event>
<event>
 4    0  0.2270578E-002  0.1765689E+03  0.7546771E-02  0.1171166E+00
         21   -1    0    0  502  501  0.00000000000E+00  0.00000000000E+00  0.52827372785E+03  0.52827372785E+03  0.00000000000E+00 0.  1.
         21   -1    0    0  501  502 -0.00000000000E+00 -0.00000000000E+00 -0.59015941666E+02  0.59015941666E+02  0.00000000000E+00 0.  1.
         25    1    1    2    0    0 -0.11153162077E+03  0.48293364813E+02  0.18818153082E+03  0.25653233725E+03  0.12500000000E+03 0.  0.
         25    1    1    2    0    0  0.11153162077E+03 -0.48293364813E+02  0.28107625537E+03  0.33075733226E+03  0.12500000000E+03 0.  0.
</event>
<event>
 4    0  0.2270578E-002  0.2159379E+03  0.7546771E-02  0.1136948E+00
         21   -1    0    0  502  501  0.00000000000E+00  0.00000000000E+00  0.21638243210E+03  0.21638243210E+03  0.00000000000E+00 0. -1.
         21   -1    0    0  501  502 -0.00000000000E+00 -0.00000000000E+00 -0.21549433956E+03  0.21549433956E+03  0.00000000000E+00 0. -1.
         25    1    1    2    0    0  0.99484598673E+02 -0.85951266935E+02  0.11757406656E+03  0.21617924689E+03  0.12500000000E+03 0.  0.
         25    1    1    2    0    0 -0.99484598673E+02  0.85951266935E+02 -0.11668597401E+03  0.21569752477E+03  0.12500000000E+03 0.  0.
</event>
<event>
 4    0  0.2270578E-002  0.1935668E+03  0.7546771E-02  0.1155283E+00
         21   -1    0    0  502  501  0.00000000000E+00  0.00000000000E+00  0.42974566701E+02  0.42974566701E+02  0.00000000000E+00 0.  1.
         21   -1    0    0  501  502 -0.00000000000E+00 -0.00000000000E+00 -0.87186676611E+03  0.87186676611E+03  0.00000000000E+00 0.  1.
         25    1    1    2    0    0 -0.12790599023E+03  0.17595199978E+02 -0.58441906154E+03  0.61142470746E+03  0.12500000000E+03 0.  0.
         25    1    1    2    0    0  0.12790599023E+03 -0.17595199978E+02 -0.24447313786E+03  0.30341662535E+03  0.12500000000E+03 0.  0.
</event>
<event>
 4    0  0.2270578E-002  0.1898328E+03  0.7546771E-02  0.1158612E+00
         21   -1    0    0  502  501  0.00000000000E+00  0.00000000000E+00  0.80032339060E+03  0.80032339060E+03  0.00000000000E+00 0.  1.
         21   -1    0    0  501  502 -0.00000000000E+00 -0.00000000000E+00 -0.45027402828E+02  0.45027402828E+02  0.00000000000E+00 0.  1.
         25    1    1    2    0    0  0.59830975373E+02  0.68229503560E+02  0.13195288048E+03  0.20315406330E+03  0.12500000000E+03 0.  0.
         25    1    1    2    0    0 -0.59830975373E+02 -0.68229503560E+02  0.62334310730E+03  0.64219673013E+03  0.12500000000E+03 0.  0.
</event>
<event>
 4    0  0.2270578E-002  0.1831525E+03  0.7546771E-02  0.1164786E+00
         21   -1    0    0  502  501  0.00000000000E+00  0.00000000000E+00  0.51083278540E+02  0.51083278540E+02  0.00000000000E+00 0.  1.
         21   -1    0    0  501  502 -0.00000000000E+00 -0.00000000000E+00 -0.65666979471E+03  0.65666979471E+03  0.00000000000E+00 0.  1.
         25    1    1    2    0    0 -0.33326299298E+01  0.13256838669E+03 -0.33812358229E+03  0.38410680868E+03  0.12500000000E+03 0.  0.
         25    1    1    2    0    0  0.33326299298E+01 -0.13256838669E+03 -0.26746293388E+03  0.32364626457E+03  0.12500000000E+03 0.  0.
</event>
<event>
 4    0  0.2270578E-002  0.2057911E+03  0.7546771E-02  0.1144943E+00
         21   -1    0    0  502  501  0.00000000000E+00  0.00000000000E+00  0.25199511361E+04  0.25199511361E+04  0.00000000000E+00 0.  1.
         21   -1    0    0  501  502 -0.00000000000E+00 -0.00000000000E+00 -0.16805864982E+02  0.16805864982E+02  0.00000000000E+00 0.  1.
         25    1    1    2    0    0 -0.13464932791E+03 -0.55423736615E+02  0.79353713048E+03  0.81641191169E+03  0.12500000000E+03 0.  0.
         25    1    1    2    0    0  0.13464932791E+03  0.55423736615E+02  0.17096081406E+04  0.17203450894E+04  0.12500000000E+03 0.  0.
</event>
<event>
 4    0  0.2270578E-002  0.1913380E+03  0.7546771E-02  0.1157260E+00
         21   -1    0    0  502  501  0.00000000000E+00  0.00000000000E+00  0.26322146946E+03  0.26322146946E+03  0.00000000000E+00 0. -1.
         21   -1    0    0  501  502 -0.00000000000E+00 -0.00000000000E+00 -0.13908530302E+03  0.13908530302E+03  0.00000000000E+00 0. -1.
         25    1    1    2    0    0 -0.30908893538E+02  0.65441958578E+02  0.19399339624E+03  0.24186038830E+03  0.12500000000E+03 0.  0.
         25    1    1    2    0    0  0.30908893538E+02 -0.65441958578E+02 -0.69857229805E+02  0.16044638419E+03  0.12500000000E+03 0.  0.
</event>
<event>
 4    0  0.2270578E-002  0.2535672E+03  0.7546771E-02  0.1111071E+00
         21   -1    0    0  502  501  0.00000000000E+00  0.00000000000E+00  0.45923127262E+02  0.45923127262E+02  0.00000000000E+00 0.  1.
         21   -1    0    0  501  502 -0.00000000000E+00 -0.00000000000E+00 -0.14000854309E+04  0.14000854309E+04  0.00000000000E+00 0.  1.
         25    1    1    2    0    0 -0.76996485224E+01  0.21779629661E+03 -0.77489432766E+03  0.81460464671E+03  0.12500000000E+03 0.  0.
         25    1    1    2    0    0  0.76996485224E+01 -0.21779629661E+03 -0.57926797602E+03  0.63140391149E+03  0.12500000000E+03 0.  0.
</event>
<event>
 4    0  0.2270578E-002  0.2116031E+03  0.7546771E-02  0.1140303E+00
         21   -1    0    0  502  501  0.00000000000E+00  0.00000000000E+00  0.33232887395E+03  0.33232887395E+03  0.00000000000E+00 0. -1.
         21   -1    0    0  501  502 -0.00000000000E+00 -0.00000000000E+00 -0.13473360650E+03  0.13473360650E+03  0.00000000000E+00 0. -1.
         25    1    1    2    0    0  0.20410429627E+02 -0.51455375298E+02  0.27704861933E+03  0.30894203139E+03  0.12500000000E+03 0.  0.
         25    1    1    2    0    0 -0.20410429627E+02  0.51455375298E+02 -0.79453351892E+02  0.15812044906E+03  0.12500000000E+03 0.  0.
</event>
<event>
 4    0  0.2270578E-002  0.2143331E+03  0.7546771E-02  0.1138180E+00
         21   -1    0    0  502  501  0.00000000000E+00  0.00000000000E+00  0.32078517481E+04  0.32078517481E+04  0.00000000000E+00 0. -1.
         21   -1    0    0  501  502 -0.00000000000E+00 -0.00000000000E+00 -0.14320699852E+02  0.14320699852E+02  0.00000000000E+00 0. -1.
         25    1    1    2    0    0 -0.17261916876E+03  0.17566775253E+02  0.14884323668E+04  0.15037160236E+04  0.12500000000E+03 0.  0.
         25    1    1    2    0    0  0.17261916876E+03 -0.17566775253E+02  0.17050986814E+04  0.17184564243E+04  0.12500000000E+03 0.  0.
</event>
<event>
 4    0  0.2270578E-002  0.1571120E+03  0.7546771E-02  0.1191996E+00
         21   -1    0    0  502  501  0.00000000000E+00  0.00000000000E+00  0.33176418694E+02  0.33176418694E+02  0.00000000000E+00 0.  1.
         21   -1    0    0  501  502 -0.00000000000E+00 -0.00000000000E+00 -0.74402833161E+03  0.74402833161E+03  0.00000000000E+00 0.  1.
         25    1    1    2    0    0  0.38570515841E+02  0.31622870355E+02 -0.55593242045E+03  0.57199086245E+03  0.12500000000E+03 0.  0.
         25    1    1    2    0    0 -0.38570515841E+02 -0.31622870355E+02 -0.15491949247E+03  0.20521388786E+03  0.12500000000E+03 0.  0.
</event>
<event>
 4    0  0.2270578E-002  0.2060851E+03  0.7546771E-02  0.1144704E+00
         21   -1    0    0  502  501  0.00000000000E+00  0.00000000000E+00  0.25885239475E+04  0.25885239475E+04  0.00000000000E+00 0. -1.
         21   -1    0    0  501  502 -0.00000000000E+00 -0.00000000000E+00 -0.16407447915E+02  0.16407447915E+02  0.00000000000E+00 0.  1.
         25    1    1    2    0    0 -0.14599866597E+03  0.21782783959E+02  0.83666970170E+03  0.85873819635E+03  0.12500000000E+03 0.  0.
         25    1    1    2    0    0  0.14599866597E+03 -0.21782783959E+02  0.17354467978E+04  0.17461931990E+04  0.12500000000E+03 0.  0.
</event>
<event>
 4    0  0.2270578E-002  0.2891010E+03  0.7546771E-02  0.1090819E+00
         21   -1    0    0  502  501  0.00000000000E+00  0.00000000000E+00  0.44750918527E+03  0.44750918527E+03  0.00000000000E+00 0. -1.
         21   -1    0    0  501  502 -0.00000000000E+00 -0.00000000000E+00 -0.18676570107E+03  0.18676570107E+03  0.00000000000E+00 0. -1.
         25    1    1    2    0    0 -0.12428501591E+02 -0.19691559721E+03  0.31725814811E+03  0.39396440527E+03  0.12500000000E+03 0.  0.
         25    1    1    2    0    0  0.12428501591E+02  0.19691559721E+03 -0.56514663907E+02  0.24031048107E+03  0.12500000000E+03 0.  0.
</event>
<event>
 4    0  0.2270578E-002  0.2155312E+03  0.7546771E-02  0.1137259E+00
         21   -1    0    0  502  501  0.00000000000E+00  0.00000000000E+00  0.59678994457E+03  0.59678994457E+03  0.00000000000E+00 0. -1.
         21   -1    0    0  501  502 -0.00000000000E+00 -0.00000000000E+00 -0.77839312094E+02  0.77839312094E+02  0.00000000000E+00 0. -1.
         25    1    1    2    0    0  0.44670140447E+02  0.13147426625E+03  0.42765550447E+03  0.46668526293E+03  0.12500000000E+03 0.  0.
         25    1    1    2    0    0 -0.44670140447E+02 -0.13147426625E+03  0.91295128004E+02  0.20794399373E+03  0.12500000000E+03 0.  0.
</event>
<event>
 4    0  0.2270578E-002  0.1878962E+03  0.7546771E-02  0.1160373E+00
         21   -1    0    0  502  501  0.00000000000E+00  0.00000000000E+00  0.19996152091E+03  0.19996152091E+03  0.00000000000E+00 0. -1.
         21   -1    0    0  501  502 -0.00000000000E+00 -0.00000000000E+00 -0.17655890137E+03  0.17655890137E+03  0.00000000000E+00 0. -1.
         25    1    1    2    0    0 -0.56082499269E+02 -0.85082110296E+02  0.10830268309E+03  0.19426446763E+03  0.12500000000E+03 0.  0.
         25    1    1    2    0    0  0.56082499269E+02  0.85082110296E+02 -0.84900063551E+02  0.18225595466E+03  0.12500000000E+03 0.  0.
</event>
<event>
 4    0  0.2270578E-002  0.2016439E+03  0.7546771E-02  0.1148359E+00
         21   -1    0    0  502  501  0.00000000000E+00  0.00000000000E+00  0.59550549734E+02  0.59550549734E+02  0.00000000000E+00 0.  1.
         21   -1    0    0  501  502 -0.00000000000E+00 -0.00000000000E+00 -0.68278599211E+03  0.68278599211E+03  0.00000000000E+00 0.  1.
         25    1    1    2    0    0  0.70303975495E+02 -0.11787462952E+03 -0.16670097131E+03  0.24950208635E+03  0.12500000000E+03 0.  0.
         25    1    1    2    0    0 -0.70303975495E+02  0.11787462952E+03 -0.45653447107E+03  0.49283445550E+03  0.12500000000E+03 0.  0.
</event>
<event>
 4    0  0.2270578E-002  0.2121952E+03  0.7546771E-02  0.1139839E+00
         21   -1    0    0  502  501  0.00000000000E+00  0.00000000000E+00  0.89455036154E+03  0.89455036154E+03  0.00000000000E+00 0. -1.
         21   -1    0    0  501  502 -0.00000000000E+00 -0.00000000000E+00 -0.50334582384E+02  0.50334582384E+02  0.00000000000E+00 0. -1.
         25    1    1    2    0    0  0.13461029919E+03  0.99542281667E+02  0.50461348847E+03  0.54615782631E+03  0.12500000000E+03 0.  0.
         25    1    1    2    0    0 -0.13461029919E+03 -0.99542281667E+02  0.33960229068E+03  0.39872711762E+03  0.12500000000E+03 0.  0.
</event>
<event>
 4    0  0.2270578E-002  0.1967495E+03  0.7546771E-02  0.1152511E+00
         21   -1    0    0  502  501  0.00000000000E+00  0.00000000000E+00  0.12129290539E+04  0.12129290539E+04  0.00000000000E+00 0.  1.
         21   -1    0    0  501  502 -0.00000000000E+00 -0.00000000000E+00 -0.31914795835E+02  0.31914795835E+02  0.00000000000E+00 0.  1.
         25    1    1    2    0    0  0.38763902953E+01  0.78617474525E+02  0.17937495482E+03  0.23237062662E+03  0.12500000000E+03 0.  0.
         25    1    1    2    0    0 -0.38763902953E+01 -0.78617474525E+02  0.10016393032E+04  0.10124732231E+04  0.12500000000E+03 0.  0.
</event>
<event>
 4    0  0.2270578E-002  0.2106001E+03  0.7546771E-02  0.1141092E+00
         21   -1    0    0  502  501  0.00000000000E+00  0.00000000000E+00  0.10596314854E+03  0.10596314854E+03  0.00000000000E+00 0.  1.
         21   -1    0    0  501  502 -0.00000000000E+00 -0.00000000000E+00 -0.41856457186E+03  0.41856457186E+03  0.00000000000E+00 0.  1.
         25    1    1    2    0    0 -0.31638891063E+02 -0.12287923029E+03 -0.29623737590E+03  0.34566155057E+03  0.12500000000E+03 0.  0.
         25    1    1    2    0    0  0.31638891063E+02  0.12287923029E+03 -0.16364047419E+02  0.17886616984E+03  0.12500000000E+03 0.  0.
</event>
<event>
 4    0  0.2270578E-002  0.3664074E+03  0.7546771E-02  0.1056075E+00
         21   -1    0    0  502  501  0.00000000000E+00  0.00000000000E+00  0.13616883494E+04  0.13616883494E+04  0.00000000000E+00 0.  1.
         21   -1    0    0  501  502 -0.00000000000E+00 -0.00000000000E+00 -0.98594063334E+02  0.98594063334E+02  0.00000000000E+00 0.  1.
         25    1    1    2    0    0  0.25087307925E+03  0.18145353833E+03  0.93221890836E+03  0.99021198820E+03  0.12500000000E+03 0.  0.
         25    1    1    2    0    0 -0.25087307925E+03 -0.18145353833E+03  0.33087537775E+03  0.47007042458E+03  0.12500000000E+03 0.  0.
</event>
<event>
 4    0  0.2270578E-002  0.2361799E+03  0.7546771E-02  0.1122364E+00
         21   -1    0    0  502  501  0.00000000000E+00  0.00000000000E+00  0.11700040242E+04  0.11700040242E+04  0.00000000000E+00 0.  1.
         21   -1    0    0  501  502 -0.00000000000E+00 -0.00000000000E+00 -0.47675869151E+02  0.47675869151E+02  0.00000000000E+00 0.  1.
         25    1    1    2    0    0 -0.53880776407E+02  0.19215309171E+03  0.60799403161E+03  0.65200283066E+03  0.12500000000E+03 0.  0.
         25    1    1    2    0    0  0.53880776407E+02 -0.19215309171E+03  0.51433412344E+03  0.56567706269E+03  0.12500000000E+03 0.  0.
</event>
<event>
 4    0  0.2270578E-002  0.2213224E+03  0.7546771E-02  0.1132901E+00
         21   -1    0    0  502  501  0.00000000000E+00  0.00000000000E+00  0.10479905897E+04  0.10479905897E+04  0.00000000000E+00 0. -1.
         21   -1    0    0  501  502 -0.00000000000E+00 -0.00000000000E+00 -0.46740507571E+02  0.46740507571E+02  0.00000000000E+00 0. -1.
         25    1    1    2    0    0 -0.17238674934E+03 -0.60281175333E+02  0.49380672345E+03  0.54112945916E+03  0.12500000000E+03 0.  0.
         25    1    1    2    0    0  0.17238674934E+03  0.60281175333E+02  0.50744335865E+03  0.55360163808E+03  0.12500000000E+03 0.  0.
</event>
<event>
 4    0  0.2270578E-002  0.2190257E+03  0.7546771E-02  0.1134612E+00
         21   -1    0    0  502  501  0.00000000000E+00  0.00000000000E+00  0.67869008789E+02  0.67869008789E+02  0.00000000000E+00 0.  1.
         21   -1    0    0  501  502 -0.00000000000E+00 -0.00000000000E+00 -0.70683592209E+03  0.70683592209E+03  0.00000000000E+00 0.  1.
         25    1    1    2    0    0  0.99191579820E+02 -0.14530840483E+03 -0.25345913906E+03  0.33289643614E+03  0.12500000000E+03 0.  0.
         25    1    1    2    0    0 -0.99191579820E+02  0.14530840483E+03 -0.38550777424E+03  0.44180849473E+03  0.12500000000E+03 0.  0.
</event>
<event>
 4    0  0.2270578E-002  0.2367530E+03  0.7546771E-02  0.1121975E+00
         21   -1    0    0  502  501  0.00000000000E+00  0.00000000000E+00  0.99968119063E+02  0.99968119063E+02  0.00000000000E+00 0.  1.
         21   -1    0    0  501  502 -0.00000000000E+00 -0.00000000000E+00 -0.56069859350E+03  0.56069859350E+03  0.00000000000E+00 0.  1.
         25    1    1    2    0    0 -0.14037305469E+01 -0.18679208304E+03 -0.33415773381E+03  0.40271533843E+03  0.12500000000E+03 0.  0.
         25    1    1    2    0    0  0.14037305469E+01  0.18679208304E+03 -0.12657274062E+03  0.25795137413E+03  0.12500000000E+03 0.  0.
</event>
<event>
 4    0  0.2270578E-002  0.2550040E+03  0.7546771E-02  0.1110183E+00
         21   -1    0    0  502  501  0.00000000000E+00  0.00000000000E+00  0.92198474334E+03  0.92198474334E+03  0.00000000000E+00 0. -1.
         21   -1    0    0  501  502 -0.00000000000E+00 -0.00000000000E+00 -0.70529432828E+02  0.70529432828E+02  0.00000000000E+00 0. -1.
         25    1    1    2    0    0  0.78563974949E+02 -0.88617686561E+02  0.59696438223E+02  0.18224724214E+03  0.12500000000E+03 0.  0.
         25    1    1    2    0    0 -0.78563974949E+02  0.88617686561E+02  0.79175887229E+03  0.81026693403E+03  0.12500000000E+03 0.  0.
</event>
<event>
 4    0  0.2270578E-002  0.1755114E+03  0.7546771E-02  0.1172219E+00
         21   -1    0    0  502  501  0.00000000000E+00  0.00000000000E+00  0.24608363609E+03  0.24608363609E+03  0.00000000000E+00 0.  1.
         21   -1    0    0  501  502 -0.00000000000E+00 -0.00000000000E+00 -0.12517798377E+03  0.12517798377E+03  0.00000000000E+00 0.  1.
         25    1    1    2    0    0  0.11941984721E+03  0.18423331956E+02  0.35008887432E+02  0.17734469619E+03  0.12500000000E+03 0.  0.
         25    1    1    2    0    0 -0.11941984721E+03 -0.18423331956E+02  0.85896764882E+02  0.19391692367E+03  0.12500000000E+03 0.  0.
</event>
<event>
 4    0  0.2270578E-002  0.2588715E+03  0.7546771E-02  0.1107823E+00
         21   -1    0    0  502  501  0.00000000000E+00  0.00000000000E+00  0.43760308906E+03  0.43760308906E+03  0.00000000000E+00 0. -1.
         21   -1    0    0  501  502 -0.00000000000E+00 -0.00000000000E+00 -0.15313982304E+03  0.15313982304E+03  0.00000000000E+00 0. -1.
         25    1    1    2    0    0  0.23856448090E+02 -0.22388494253E+03  0.11213306535E+03  0.28087794850E+03  0.12500000000E+03 0.  0.
         25    1    1    2    0    0 -0.23856448090E+02  0.22388494253E+03  0.17233020067E+03  0.30986496360E+03  0.12500000000E+03 0.  0.
</event>
<event>
 4    0  0.2270578E-002  0.2449528E+03  0.7546771E-02  0.1116537E+00
         21   -1    0    0  502  501  0.00000000000E+00  0.00000000000E+00  0.26417800478E+03  0.26417800478E+03  0.00000000000E+00 0. -1.
         21   -1    0    0  501  502 -0.00000000000E+00 -0.00000000000E+00 -0.22712673012E+03  0.22712673012E+03  0.00000000000E+00 0. -1.
         25    1    1    2    0    0 -0.20136993462E+03  0.60629453288E+02  0.61980457379E+01  0.24472269397E+03  0.12500000000E+03 0.  0.
         25    1    1    2    0    0  0.20136993462E+03 -0.60629453288E+02  0.30853228917E+02  0.24658204093E+03  0.12500000000E+03 0.  0.
</event>
<event>
 4    0  0.2270578E-002  0.3022096E+03  0.7546771E-02  0.1084141E+00
         21   -1    0    0  502  501  0.00000000000E+00  0.00000000000E+00  0.13900484850E+03  0.13900484850E+03  0.00000000000E+00 0.  1.
         21   -1    0    0  501  502 -0.00000000000E+00 -0.00000000000E+00 -0.65703226413E+03  0.65703226413E+03  0.00000000000E+00 0.  1.
         25    1    1    2    0    0  0.49907739333E+02 -0.20879661608E+03 -0.48567594673E+03  0.54552079205E+03  0.12500000000E+03 0.  0.
         25    1    1    2    0    0 -0.49907739333E+02  0.20879661608E+03 -0.32351468903E+02  0.25051632057E+03  0.12500000000E+03 0.  0.
</event>
<event>
 4    0  0.2270578E-002  0.3613991E+03  0.7546771E-02  0.1058031E+00
         21   -1    0    0  502  501  0.00000000000E+00  0.00000000000E+00  0.43303650045E+03  0.43303650045E+03  0.00000000000E+00 0.  1.
         21   -1    0    0  501  502 -0.00000000000E+00 -0.00000000000E+00 -0.30161272571E+03  0.30161272571E+03  0.00000000000E+00 0.  1.
         25    1    1    2    0    0  0.30056778103E+03 -0.67897327728E+01 -0.93694613327E+02  0.33880786890E+03  0.12500000000E+03 0.  0.
         25    1    1    2    0    0 -0.30056778103E+03  0.67897327728E+01  0.22511838807E+03  0.39584135725E+03  0.12500000000E+03 0.  0.
</event>
<event>
 4    0  0.2270578E-002  0.1601501E+03  0.7546771E-02  0.1188527E+00
         21   -1    0    0  502  501  0.00000000000E+00  0.00000000000E+00  0.81664624453E+03  0.81664624453E+03  0.00000000000E+00 0. -1.
         21   -1    0    0  501  502 -0.00000000000E+00 -0.00000000000E+00 -0.31406576462E+02  0.31406576462E+02  0.00000000000E+00 0. -1.
         25    1    1    2    0    0 -0.59482007012E+02  0.21751623699E+02  0.18732944207E+03  0.23394136479E+03  0.12500000000E+03 0.  0.
         25    1    1    2    0    0  0.59482007012E+02 -0.21751623699E+02  0.59791022599E+03  0.61411145620E+03  0.12500000000E+03 0.  0.
</event>
<event>
 4    0  0.2270578E-002  0.2467803E+03  0.7546771E-02  0.1115357E+00
         21   -1    0    0  502  501  0.00000000000E+00  0.00000000000E+00  0.48837086811E+02  0.48837086811E+02  0.00000000000E+00 0. -1.
         21   -1    0    0  501  502 -0.00000000000E+00 -0.00000000000E+00 -0.12470140642E+04  0.12470140642E+04  0.00000000000E+00 0. -1.
         25    1    1    2    0    0 -0.88713051909E+02  0.18961213847E+03 -0.69916043055E+03  0.74045464161E+03  0.12500000000E+03 0.  0.
         25    1    1    2    0    0  0.88713051909E+02 -0.18961213847E+03 -0.49901654682E+03  0.55539650938E+03  0.12500000000E+03 0.  0.
</event>
<event>
 4    0  0.2270578E-002  0.1970976E+03  0.7546771E-02  0.1152211E+00
         21   -1    0    0  502  501  0.00000000000E+00  0.00000000000E+00  0.92375781175E+02  0.92375781175E+02  0.00000000000E+00 0. -1.
         21   -1    0    0  501  502 -0.00000000000E+00 -0.00000000000E+00 -0.42053745842E+03  0.42053745842E+03  0.00000000000E+00 0. -1.
         25    1    1    2    0    0  0.14800109464E+03 -0.45668222524E+01 -0.11721546238E+03  0.22647217158E+03  0.12500000000E+03 0.  0.
         25    1    1    2    0    0 -0.14800109464E+03  0.45668222524E+01 -0.21094621487E+03  0.28644106802E+03  0.12500000000E+03 0.  0.
</event>
<event>
 4    0  0.2270578E-002  0.1576707E+03  0.7546771E-02  0.1191352E+00
         21   -1    0    0  502  501  0.00000000000E+00  0.00000000000E+00  0.21048631832E+03  0.21048631832E+03  0.00000000000E+00 0.  1.
         21   -1    0    0  501  502 -0.00000000000E+00 -0.00000000000E+00 -0.11810767417E+03  0.11810767417E+03  0.00000000000E+00 0.  1.
         25    1    1    2    0    0 -0.77749544415E+02  0.56102441653E+02  0.52988404005E+02  0.16620844315E+03  0.12500000000E+03 0.  0.
         25    1    1    2    0    0  0.77749544415E+02 -0.56102441653E+02  0.39390240137E+02  0.16238554934E+03  0.12500000000E+03 0.  0.
</event>
<event>
 4    0  0.2270578E-002  0.2612069E+03  0.7546771E-02  0.1106420E+00
         21   -1    0    0  502  501  0.00000000000E+00  0.00000000000E+00  0.87695713713E+03  0.87695713713E+03  0.00000000000E+00 0.  1.
         21   -1    0    0  501  502 -0.00000000000E+00 -0.00000000000E+00 -0.77802000339E+02  0.77802000339E+02  0.00000000000E+00 0.  1.
         25    1    1    2    0    0  0.82000005876E+02 -0.58341165277E+02  0.77624037687E+03  0.79265491559E+03  0.12500000000E+03 0.  0.
         25    1    1    2    0    0 -0.82000005876E+02  0.58341165277E+02  0.22914759928E+02  0.16210422188E+03  0.12500000000E+03 0.  0.
</event>
<event>
 4    0  0.2270578E-002  0.2222528E+03  0.7546771E-02  0.1132215E+00
         21   -1    0    0  502  501  0.00000000000E+00  0.00000000000E+00  0.21547422674E+04  0.21547422674E+04  0.00000000000E+00 0. -1.
         21   -1    0    0  501  502 -0.00000000000E+00 -0.00000000000E+00 -0.22924465298E+02  0.22924465298E+02  0.00000000000E+00 0. -1.
         25    1    1    2    0    0  0.67511390434E+02  0.21551771900E+02  0.18965738388E+04  0.19020093566E+04  0.12500000000E+03 0.  0.
         25    1    1    2    0    0 -0.67511390434E+02 -0.21551771900E+02  0.23524396334E+03  0.27565737610E+03  0.12500000000E+03 0.  0.
</event>
<event>
 4    0  0.2270578E-002  0.1897018E+03  0.7546771E-02  0.1158731E+00
         21   -1    0    0  502  501  0.00000000000E+00  0.00000000000E+00  0.21609398594E+03  0.21609398594E+03  0.00000000000E+00 0. -1.
         21   -1    0    0  501  502 -0.00000000000E+00 -0.00000000000E+00 -0.16653294187E+03  0.16653294187E+03  0.00000000000E+00 0.  1.
         25    1    1    2    0    0  0.45860186719E+02  0.12849244773E+03 -0.17387406227E+02  0.18585152070E+03  0.12500000000E+03 0.  0.
         25    1    1    2    0    0 -0.45860186719E+02 -0.12849244773E+03  0.66948450295E+02  0.19677540712E+03  0.12500000000E+03 0.  0.
</event>
<event>
 4    0  0.2270578E-002  0.1878694E+03  0.7546771E-02  0.1160397E+00
         21   -1    0    0  502  501  0.00000000000E+00  0.00000000000E+00  0.60864045373E+02  0.60864045373E+02  0.00000000000E+00 0. -1.
         21   -1    0    0  501  502 -0.00000000000E+00 -0.00000000000E+00 -0.57989738770E+03  0.57989738770E+03  0.00000000000E+00 0. -1.
         25    1    1    2    0    0  0.10818590013E+03 -0.81986369821E+02 -0.19937003551E+03  0.27166038519E+03  0.12500000000E+03 0.  0.
         25    1    1    2    0    0 -0.10818590013E+03  0.81986369821E+02 -0.31966330682E+03  0.36910104789E+03  0.12500000000E+03 0.  0.
</event>
<event>
 4    0  0.2270578E-002  0.1930481E+03  0.7546771E-02  0.1155741E+00
         21   -1    0    0  502  501  0.00000000000E+00  0.00000000000E+00  0.32138367188E+03  0.32138367188E+03  0.00000000000E+00 0. -1.
         21   -1    0    0  501  502 -0.00000000000E+00 -0.00000000000E+00 -0.11595969348E+03  0.11595969348E+03  0.00000000000E+00 0. -1.
         25    1    1    2    0    0  0.42464350688E+01 -0.25322872996E+02 -0.61371060058E+02  0.14160044887E+03  0.12500000000E+03 0.  0.
         25    1    1    2    0    0 -0.42464350688E+01  0.25322872996E+02  0.26679503846E+03  0.29574291649E+03  0.12500000000E+03 0.  0.
</event>
<event>
 4    0  0.2270578E-002  0.1900595E+03  0.7546771E-02  0.1158408E+00
         21   -1    0    0  502  501  0.00000000000E+00  0.00000000000E+00  0.10107500489E+03  0.10107500489E+03  0.00000000000E+00 0. -1.
         21   -1    0    0  501  502 -0.00000000000E+00 -0.00000000000E+00 -0.35738420764E+03  0.35738420764E+03  0.00000000000E+00 0. -1.
         25    1    1    2    0    0  0.74128028346E+02  0.36756400285E+02 -0.26907476151E+03  0.30801335171E+03  0.12500000000E+03 0.  0.
         25    1    1    2    0    0 -0.74128028346E+02 -0.36756400285E+02  0.12765558767E+02  0.15044586082E+03  0.12500000000E+03 0.  0.
</event>
<event>
 4    0  0.2270578E-002  0.2681331E+03  0.7546771E-02  0.1102353E+00
         21   -1    0    0  502  501  0.00000000000E+00  0.00000000000E+00  0.23001336132E+03  0.23001336132E+03  0.00000000000E+00 0. -1.
         21   -1    0    0  501  502 -0.00000000000E+00 -0.00000000000E+00 -0.31257026036E+03  0.31257026036E+03  0.00000000000E+00 0. -1.
         25    1    1    2    0    0 -0.20455211828E+02  0.19707151082E+03 -0.17325567240E+03  0.29137282661E+03  0.12500000000E+03 0.  0.
         25    1    1    2    0    0  0.20455211828E+02 -0.19707151082E+03  0.90698773366E+02  0.25121079507E+03  0.12500000000E+03 0.  0.
</event>
<event>
 4    0  0.2270578E-002  0.2116066E+03  0.7546771E-02  0.1140300E+00
         21   -1    0    0  502  501  0.00000000000E+00  0.00000000000E+00  0.10194338894E+03  0.10194338894E+03  0.00000000000E+00 0. -1.
         21   -1    0    0  501  502 -0.00000000000E+00 -0.00000000000E+00 -0.43923724640E+03  0.43923724640E+03  0.00000000000E+00 0. -1.
         25    1    1    2    0    0 -0.63598839283E+02  0.13039805946E+03 -0.28376123381E+03  0.34233595207E+03  0.12500000000E+03 0.  0.
         25    1    1    2    0    0  0.63598839283E+02 -0.13039805946E+03 -0.53532623648E+02  0.19884468327E+03  0.12500000000E+03 0.  0.
</event>
<event>
 4    0  0.2270578E-002  0.2595266E+03  0.7546771E-02  0.1107428E+00
         21   -1    0    0  502  501  0.00000000000E+00  0.00000000000E+00  0.28903068004E+03  0.28903068004E+03  0.00000000000E+00 0.  1.
         21   -1    0    0  501  502 -0.00000000000E+00 -0.00000000000E+00 -0.23303425943E+03  0.23303425943E+03  0.00000000000E+00 0.  1.
         25    1    1    2    0    0  0.60642082992E+02 -0.21827776827E+03  0.77217693133E+01  0.25885762896E+03  0.12500000000E+03 0.  0.
         25    1    1    2    0    0 -0.60642082992E+02  0.21827776827E+03  0.48274651293E+02  0.26320731051E+03  0.12500000000E+03 0.  0.
</event>
<event>
 4    0  0.2270578E-002  0.2373462E+03  0.7546771E-02  0.1121573E+00
         21   -1    0    0  502  501  0.00000000000E+00  0.00000000000E+00  0.67502409199E+02  0.67502409199E+02  0.00000000000E+00 0.  1.
         21   -1    0    0  501  502 -0.00000000000E+00 -0.00000000000E+00 -0.83453643163E+03  0.83453643163E+03  0.00000000000E+00 0.  1.
         25    1    1    2    0    0 -0.81051167276E+02 -0.14724700112E+03 -0.17142514081E+03  0.27067055613E+03  0.12500000000E+03 0.  0.
         25    1    1    2    0    0  0.81051167276E+02  0.14724700112E+03 -0.59560888162E+03  0.63136828469E+03  0.12500000000E+03 0.  0.
</event>
<event>
 4    0  0.2270578E-002  0.3241017E+03  0.7546771E-02  0.1073777E+00
         21   -1    0    0  502  501  0.00000000000E+00  0.00000000000E+00  0.27158602310E+03  0.27158602310E+03  0.00000000000E+00 0. -1.
         21   -1    0    0  501  502 -0.00000000000E+00 -0.00000000000E+00 -0.38677213395E+03  0.38677213395E+03  0.00000000000E+00 0. -1.
         25    1    1    2    0    0  0.67678033468E+02  0.10377797758E+03 -0.33400861615E+03  0.37754064749E+03  0.12500000000E+03 0.  0.
         25    1    1    2    0    0 -0.67678033468E+02 -0.10377797758E+03  0.21882250531E+03  0.28081750956E+03  0.12500000000E+03 0.  0.
</event>
<event>
 4    0  0.2270578E-002  0.1942269E+03  0.7546771E-02  0.1154703E+00
         21   -1    0    0  502  501  0.00000000000E+00  0.00000000000E+00  0.11628713261E+04  0.11628713261E+04  0.00000000000E+00 0. -1.
         21   -1    0    0  501  502 -0.00000000000E+00 -0.00000000000E+00 -0.32440471860E+02  0.32440471860E+02  0.00000000000E+00 0. -1.
         25    1    1    2    0    0  0.78966619900E+02 -0.59132543817E+02  0.22302419157E+03  0.27403863746E+03  0.12500000000E+03 0.  0.
         25    1    1    2    0    0 -0.78966619900E+02  0.59132543817E+02  0.90740666264E+03  0.92127316047E+03  0.12500000000E+03 0.  0.
</event>
<event>
 4    0  0.2270578E-002  0.1429112E+03  0.7546771E-02  0.1209465E+00
         21   -1    0    0  502  501  0.00000000000E+00  0.00000000000E+00  0.16307070881E+02  0.16307070881E+02  0.00000000000E+00 0.  1.
         21   -1    0    0  501  502 -0.00000000000E+00 -0.00000000000E+00 -0.12524386578E+04  0.12524386578E+04  0.00000000000E+00 0.  1.
         25    1    1    2    0    0 -0.62168170567E+02 -0.28841440038E+02 -0.66287390897E+03  0.67802915076E+03  0.12500000000E+03 0.  0.
         25    1    1    2    0    0  0.62168170567E+02  0.28841440038E+02 -0.57325767793E+03  0.59071657790E+03  0.12500000000E+03 0.  0.
</event>
<event>
 4    0  0.2270578E-002  0.3236540E+03  0.7546771E-02  0.1073980E+00
         21   -1    0    0  502  501  0.00000000000E+00  0.00000000000E+00  0.22838092653E+03  0.22838092653E+03  0.00000000000E+00 0. -1.
         21   -1    0    0  501  502 -0.00000000000E+00 -0.00000000000E+00 -0.45867188601E+03  0.45867188601E+03  0.00000000000E+00 0.  1.
         25    1    1    2    0    0  0.17662332014E+03 -0.15388169815E+03 -0.31158061792E+03  0.40936885043E+03  0.12500000000E+03 0.  0.
         25    1    1    2    0    0 -0.17662332014E+03  0.15388169815E+03  0.81289658428E+02  0.27768396211E+03  0.12500000000E+03 0.  0.
</event>
<event>
 4    0  0.2270578E-002  0.2267947E+03  0.7546771E-02  0.1128916E+00
         21   -1    0    0  502  501  0.00000000000E+00  0.00000000000E+00  0.38751783971E+03  0.38751783971E+03  0.00000000000E+00 0. -1.
         21   -1    0    0  501  502 -0.00000000000E+00 -0.00000000000E+00 -0.13273157094E+03  0.13273157094E+03  0.00000000000E+00 0. -1.
         25    1    1    2    0    0  0.11605000551E+03  0.52171017204E+02  0.28805543909E+03  0.33880725317E+03  0.12500000000E+03 0.  0.
         25    1    1    2    0    0 -0.11605000551E+03 -0.52171017204E+02 -0.33269170317E+02  0.18144215748E+03  0.12500000000E+03 0.  0.
</event>
<event>
 4    0  0.2270578E-002  0.2037782E+03  0.7546771E-02  0.1146590E+00
         21   -1    0    0  502  501  0.00000000000E+00  0.00000000000E+00  0.26097998485E+04  0.26097998485E+04  0.00000000000E+00 0. -1.
         21   -1    0    0  501  502 -0.00000000000E+00 -0.00000000000E+00 -0.15911400208E+02  0.15911400208E+02  0.00000000000E+00 0. -1.
         25    1    1    2    0    0 -0.11482252589E+03 -0.96434714704E+02  0.92035941617E+03  0.94083490666E+03  0.12500000000E+03 0.  0.
         25    1    1    2    0    0  0.11482252589E+03  0.96434714704E+02  0.16735290321E+04  0.16848763421E+04  0.12500000000E+03 0.  0.
</event>
<event>
 4    0  0.2270578E-002  0.3686075E+03  0.7546771E-02  0.1055227E+00
         21   -1    0    0  502  501  0.00000000000E+00  0.00000000000E+00  0.17571933494E+03  0.17571933494E+03  0.00000000000E+00 0.  1.
         21   -1    0    0  501  502 -0.00000000000E+00 -0.00000000000E+00 -0.77323025217E+03  0.77323025217E+03  0.00000000000E+00 0.  1.
         25    1    1    2    0    0 -0.22328932528E+03  0.26530229345E+03 -0.29649789575E+03  0.47305330765E+03  0.12500000000E+03 0.  0.
         25    1    1    2    0    0  0.22328932528E+03 -0.26530229345E+03 -0.30101302149E+03  0.47589627946E+03  0.12500000000E+03 0.  0.
</event>
<event>
 4    0  0.2270578E-002  0.1931804E+03  0.7546771E-02  0.1155624E+00
         21   -1    0    0  502  501  0.00000000000E+00  0.00000000000E+00  0.52578229774E+02  0.52578229774E+02  0.00000000000E+00 0. -1.
         21   -1    0    0  501  502 -0.00000000000E+00 -0.00000000000E+00 -0.70977435307E+03  0.70977435307E+03  0.00000000000E+00 0. -1.
         25    1    1    2    0    0 -0.14045102773E+03  0.44184138889E+02 -0.32096886104E+03  0.37459943817E+03  0.12500000000E+03 0.  0.
         25    1    1    2    0    0  0.14045102773E+03 -0.44184138889E+02 -0.33622726226E+03  0.38775314467E+03  0.12500000000E+03 0.  0.
</event>
<event>
 4    0  0.2270578E-002  0.2250330E+03  0.7546771E-02  0.1130185E+00
         21   -1    0    0  502  501  0.00000000000E+00  0.00000000000E+00  0.82019120164E+02  0.82019120164E+02  0.00000000000E+00 0.  1.
         21   -1    0    0  501  502 -0.00000000000E+00 -0.00000000000E+00 -0.61741493128E+03  0.61741493128E+03  0.00000000000E+00 0.  1.
         25    1    1    2    0    0  0.13194269249E+03 -0.13183207239E+03 -0.24432166984E+03  0.33182321764E+03  0.12500000000E+03 0.  0.
         25    1    1    2    0    0 -0.13194269249E+03  0.13183207239E+03 -0.29107414128E+03  0.36761083381E+03  0.12500000000E+03 0.  0.
</event>
<event>
 4    0  0.2270578E-002  0.2789875E+03  0.7546771E-02  0.1096243E+00
         21   -1    0    0  502  501  0.00000000000E+00  0.00000000000E+00  0.86618617566E+03  0.86618617566E+03  0.00000000000E+00 0. -1.
         21   -1    0    0  501  502 -0.00000000000E+00 -0.00000000000E+00 -0.89858297532E+02  0.89858297532E+02  0.00000000000E+00 0. -1.
         25    1    1    2    0    0  0.11498845637E+03 -0.18944697096E+03  0.58424753281E+03  0.63724616868E+03  0.12500000000E+03 0.  0.
         25    1    1    2    0    0 -0.11498845637E+03  0.18944697096E+03  0.19208034531E+03  0.31879830451E+03  0.12500000000E+03 0.  0.
</event>
<event>
 4    0  0.2270578E-002  0.1956304E+03  0.7546771E-02  0.1153479E+00
         21   -1    0    0  502  501  0.00000000000E+00  0.00000000000E+00  0.20115116049E+04  0.20115116049E+04  0.00000000000E+00 0.  1.
         21   -1    0    0  501  502 -0.00000000000E+00 -0.00000000000E+00 -0.19026122074E+02  0.19026122074E+02  0.00000000000E+00 0.  1.
         25    1    1    2    0    0  0.61560701486E+02 -0.10110653561E+03  0.14784691905E+04  0.14884583967E+04  0.12500000000E+03 0.  0.
         25    1    1    2    0    0 -0.61560701486E+02  0.10110653561E+03  0.51401629231E+03  0.54207933024E+03  0.12500000000E+03 0.  0.
</event>
<event>
 4    0  0.2270578E-002  0.3157175E+03  0.7546771E-02  0.1077637E+00
         21   -1    0    0  502  501  0.00000000000E+00  0.00000000000E+00  0.15502656966E+03  0.15502656966E+03  0.00000000000E+00 0.  1.
         21   -1    0    0  501  502 -0.00000000000E+00 -0.00000000000E+00 -0.64297057081E+03  0.64297057081E+03  0.00000000000E+00 0.  1.
         25    1    1    2    0    0  0.39177401039E+02  0.17176713322E+03 -0.53495445469E+03  0.57692294581E+03  0.12500000000E+03 0.  0.
         25    1    1    2    0    0 -0.39177401039E+02 -0.17176713322E+03  0.47010453536E+02  0.22107419467E+03  0.12500000000E+03 0.  0.
</event>
<event>
 4    0  0.2270578E-002  0.5549007E+03  0.7546771E-02  0.1000366E+00
         21   -1    0    0  502  501  0.00000000000E+00  0.00000000000E+00  0.34107002568E+03  0.34107002568E+03  0.00000000000E+00 0. -1.
         21   -1    0    0  501  502 -0.00000000000E+00 -0.00000000000E+00 -0.90279066561E+03  0.90279066561E+03  0.00000000000E+00 0. -1.
         25    1    1    2    0    0 -0.31733115859E+03  0.41182250203E+03 -0.44707472495E+03  0.69699185582E+03  0.12500000000E+03 0.  0.
         25    1    1    2    0    0  0.31733115859E+03 -0.41182250203E+03 -0.11464591498E+03  0.54686883547E+03  0.12500000000E+03 0.  0.
</event>
<event>
 4    0  0.2270578E-002  0.4396061E+03  0.7546771E-02  0.1030868E+00
         21   -1    0    0  502  501  0.00000000000E+00  0.00000000000E+00  0.33490431328E+03  0.33490431328E+03  0.00000000000E+00 0. -1.
         21   -1    0    0  501  502 -0.00000000000E+00 -0.00000000000E+00 -0.57704106553E+03  0.57704106553E+03  0.00000000000E+00 0.  1.
         25    1    1    2    0    0  0.31614140310E+03  0.15274095153E+03  0.12074943486E+03  0.39176601569E+03  0.12500000000E+03 0.  0.
         25    1    1    2    0    0 -0.31614140310E+03 -0.15274095153E+03 -0.36288618710E+03  0.52017936313E+03  0.12500000000E+03 0.  0.
</event>
<event>
 4    0  0.2270578E-002  0.2162914E+03  0.7546771E-02  0.1136679E+00
         21   -1    0    0  502  501  0.00000000000E+00  0.00000000000E+00  0.32894275160E+02  0.32894275160E+02  0.00000000000E+00 0. -1.
         21   -1    0    0  501  502 -0.00000000000E+00 -0.00000000000E+00 -0.14221917634E+04  0.14221917634E+04  0.00000000000E+00 0. -1.
         25    1    1    2    0    0 -0.15048849965E+03  0.88383670338E+02 -0.60574821432E+03  0.64266193357E+03  0.12500000000E+03 0.  0.
         25    1    1    2    0    0  0.15048849965E+03 -0.88383670338E+02 -0.78354927393E+03  0.81242410500E+03  0.12500000000E+03 0.  0.
</event>
<event>
 4    0  0.2270578E-002  0.3512752E+03  0.7546771E-02  0.1062093E+00
         21   -1    0    0  502  501  0.00000000000E+00  0.00000000000E+00  0.43721144249E+02  0.43721144249E+02  0.00000000000E+00 0.  1.
         21   -1    0    0  501  502 -0.00000000000E+00 -0.00000000000E+00 -0.28223016457E+04  0.28223016457E+04  0.00000000000E+00 0.  1.
         25    1    1    2    0    0 -0.48410745798E+02  0.19709633720E+03 -0.24419058346E+04  0.24535117019E+04  0.12500000000E+03 0.  0.
         25    1    1    2    0    0  0.48410745798E+02 -0.19709633720E+03 -0.33667466688E+03  0.41251108805E+03  0.12500000000E+03 0.  0.
</event>
<event>
 4    0  0.2270578E-002  0.1851092E+03  0.7546771E-02  0.1162948E+00
         21   -1    0    0  502  501  0.00000000000E+00  0.00000000000E+00  0.49633464065E+03  0.49633464065E+03  0.00000000000E+00 0. -1.
         21   -1    0    0  501  502 -0.00000000000E+00 -0.00000000000E+00 -0.69036945162E+02  0.69036945162E+02  0.00000000000E+00 0. -1.
         25    1    1    2    0    0 -0.25263110463E+02 -0.13377169735E+03  0.22947035354E+03  0.29464340298E+03  0.12500000000E+03 0.  0.
         25    1    1    2    0    0  0.25263110463E+02  0.13377169735E+03  0.19782734194E+03  0.27072818283E+03  0.12500000000E+03 0.  0.
</event>
<event>
 4    0  0.2270578E-002  0.2120537E+03  0.7546771E-02  0.1139950E+00
         21   -1    0    0  502  501  0.00000000000E+00  0.00000000000E+00  0.58596802062E+03  0.58596802062E+03  0.00000000000E+00 0.  1.
         21   -1    0    0  501  502 -0.00000000000E+00 -0.00000000000E+00 -0.76739327516E+02  0.76739327516E+02  0.00000000000E+00 0.  1.
         25    1    1    2    0    0 -0.15850431208E+03 -0.64038103943E+02  0.23769094310E+03  0.31834961934E+03  0.12500000000E+03 0.  0.
         25    1    1    2    0    0  0.15850431208E+03  0.64038103943E+02  0.27153775001E+03  0.34435772880E+03  0.12500000000E+03 0.  0.
</event>
<event>
 4    0  0.2270578E-002  0.2370566E+03  0.7546771E-02  0.1121769E+00
         21   -1    0    0  502  501  0.00000000000E+00  0.00000000000E+00  0.14254070917E+03  0.14254070917E+03  0.00000000000E+00 0.  1.
         21   -1    0    0  501  502 -0.00000000000E+00 -0.00000000000E+00 -0.39424406400E+03  0.39424406400E+03  0.00000000000E+00 0.  1.
         25    1    1    2    0    0  0.63969751664E+02 -0.10021580460E+03 -0.30993390056E+03  0.35471024701E+03  0.12500000000E+03 0.  0.
         25    1    1    2    0    0 -0.63969751664E+02  0.10021580460E+03  0.58230545725E+02  0.18207452616E+03  0.12500000000E+03 0.  0.
</event>
<event>
 4    0  0.2270578E-002  0.2095010E+03  0.7546771E-02  0.1141962E+00
         21   -1    0    0  502  501  0.00000000000E+00  0.00000000000E+00  0.77699738211E+02  0.77699738211E+02  0.00000000000E+00 0.  1.
         21   -1    0    0  501  502 -0.00000000000E+00 -0.00000000000E+00 -0.56487544272E+03  0.56487544272E+03  0.00000000000E+00 0.  1.
         25    1    1    2    0    0  0.14565123790E+03  0.82197179312E+02 -0.21724701324E+03  0.30131698285E+03  0.12500000000E+03 0.  0.
         25    1    1    2    0    0 -0.14565123790E+03 -0.82197179312E+02 -0.26992869127E+03  0.34125819808E+03  0.12500000000E+03 0.  0.
</event>
<event>
 4    0  0.2270578E-002  0.2370947E+03  0.7546771E-02  0.1121743E+00
         21   -1    0    0  502  501  0.00000000000E+00  0.00000000000E+00  0.77535659483E+03  0.77535659483E+03  0.00000000000E+00 0. -1.
         21   -1    0    0  501  502 -0.00000000000E+00 -0.00000000000E+00 -0.72500713121E+02  0.72500713121E+02  0.00000000000E+00 0. -1.
         25    1    1    2    0    0 -0.14024424545E+03 -0.11848615900E+03  0.20310372456E+03  0.30097099725E+03  0.12500000000E+03 0.  0.
         25    1    1    2    0    0  0.14024424545E+03  0.11848615900E+03  0.49975215714E+03  0.54688631070E+03  0.12500000000E+03 0.  0.
</event>
<event>
 4    0  0.2270578E-002  0.2120256E+03  0.7546771E-02  0.1139972E+00
         21   -1    0    0  502  501  0.00000000000E+00  0.00000000000E+00  0.42861343834E+02  0.42861343834E+02  0.00000000000E+00 0.  1.
         21   -1    0    0  501  502 -0.00000000000E+00 -0.00000000000E+00 -0.10488442467E+04  0.10488442467E+04  0.00000000000E+00 0. -1.
         25    1    1    2    0    0  0.32329128171E+02 -0.16746801598E+03 -0.46317743950E+03  0.50916505120E+03  0.12500000000E+03 0.  0.
         25    1    1    2    0    0 -0.32329128171E+02  0.16746801598E+03 -0.54280546334E+03  0.58254053931E+03  0.12500000000E+03 0.  0.
</event>
<event>
 4    0  0.2270578E-002  0.2077530E+03  0.7546771E-02  0.1143358E+00
         21   -1    0    0  502  501  0.00000000000E+00  0.00000000000E+00  0.22579063293E+04  0.22579063293E+04  0.00000000000E+00 0.  1.
         21   -1    0    0  501  502 -0.00000000000E+00 -0.00000000000E+00 -0.19115631208E+02  0.19115631208E+02  0.00000000000E+00 0.  1.
         25    1    1    2    0    0  0.10600002076E+02  0.16379493167E+03  0.98570235884E+03  0.10070626991E+04  0.12500000000E+03 0.  0.
         25    1    1    2    0    0 -0.10600002076E+02 -0.16379493167E+03  0.12530883393E+04  0.12699592615E+04  0.12500000000E+03 0.  0.
</event>
<event>
 4    0  0.2270578E-002  0.3406445E+03  0.7546771E-02  0.1066522E+00
         21   -1    0    0  502  501  0.00000000000E+00  0.00000000000E+00  0.15690854773E+04  0.15690854773E+04  0.00000000000E+00 0.  1.
         21   -1    0    0  501  502 -0.00000000000E+00 -0.00000000000E+00 -0.73953047529E+02  0.73953047529E+02  0.00000000000E+00 0.  1.
         25    1    1    2    0    0 -0.24576015136E+03 -0.64142909451E+02  0.29061332642E+03  0.40570120819E+03  0.12500000000E+03 0.  0.
         25    1    1    2    0    0  0.24576015136E+03  0.64142909451E+02  0.12045191033E+04  0.12373373166E+04  0.12500000000E+03 0.  0.
</event>
<event>
 4    0  0.2270578E-002  0.4247624E+03  0.7546771E-02  0.1035527E+00
         21   -1    0    0  502  501  0.00000000000E+00  0.00000000000E+00  0.12292820780E+04  0.12292820780E+04  0.00000000000E+00 0.  1.
         21   -1    0    0  501  502 -0.00000000000E+00 -0.00000000000E+00 -0.14677111964E+03  0.14677111964E+03  0.00000000000E+00 0.  1.
         25    1    1    2    0    0 -0.20427823984E+03  0.11081325949E+03  0.10804026518E+04  0.11121618892E+04  0.12500000000E+03 0.  0.
         25    1    1    2    0    0  0.20427823984E+03 -0.11081325949E+03  0.21083066269E+01  0.26389130852E+03  0.12500000000E+03 0.  0.
</event>
<event>
 4    0  0.2270578E-002  0.2384186E+03  0.7546771E-02  0.1120851E+00
         21   -1    0    0  502  501  0.00000000000E+00  0.00000000000E+00  0.36403440182E+02  0.36403440182E+02  0.00000000000E+00 0. -1.
         21   -1    0    0  501  502 -0.00000000000E+00 -0.00000000000E+00 -0.15614849911E+04  0.15614849911E+04  0.00000000000E+00 0. -1.
         25    1    1    2    0    0 -0.67793931667E+02 -0.75721603654E+02 -0.17359436495E+03  0.23683281439E+03  0.12500000000E+03 0.  0.
         25    1    1    2    0    0  0.67793931667E+02  0.75721603654E+02 -0.13514871859E+04  0.13610556169E+04  0.12500000000E+03 0.  0.
</event>
<event>
 4    0  0.2270578E-002  0.2739280E+03  0.7546771E-02  0.1099052E+00
         21   -1    0    0  502  501  0.00000000000E+00  0.00000000000E+00  0.13594750307E+03  0.13594750307E+03  0.00000000000E+00 0. -1.
         21   -1    0    0  501  502 -0.00000000000E+00 -0.00000000000E+00 -0.55195244131E+03  0.55195244131E+03  0.00000000000E+00 0. -1.
         25    1    1    2    0    0  0.88770975573E+02 -0.22696330377E+03 -0.20253959813E+03  0.34064632124E+03  0.12500000000E+03 0.  0.
         25    1    1    2    0    0 -0.88770975573E+02  0.22696330377E+03 -0.21346534010E+03  0.34725362314E+03  0.12500000000E+03 0.  0.
</event>
<event>
 4    0  0.2270578E-002  0.1854142E+03  0.7546771E-02  0.1162664E+00
         21   -1    0    0  502  501  0.00000000000E+00  0.00000000000E+00  0.37993732563E+03  0.37993732563E+03  0.00000000000E+00 0.  1.
         21   -1    0    0  501  502 -0.00000000000E+00 -0.00000000000E+00 -0.90484469382E+02  0.90484469382E+02  0.00000000000E+00 0.  1.
         25    1    1    2    0    0  0.14038150884E+02  0.89708396182E+01 -0.27705237121E+02  0.12911284137E+03  0.12500000000E+03 0.  0.
         25    1    1    2    0    0 -0.14038150884E+02 -0.89708396182E+01  0.31715809337E+03  0.34130895364E+03  0.12500000000E+03 0.  0.
</event>
<event>
 4    0  0.2270578E-002  0.1819987E+03  0.7546771E-02  0.1165883E+00
         21   -1    0    0  502  501  0.00000000000E+00  0.00000000000E+00  0.52722709592E+02  0.52722709592E+02  0.00000000000E+00 0. -1.
         21   -1    0    0  501  502 -0.00000000000E+00 -0.00000000000E+00 -0.62825946264E+03  0.62825946264E+03  0.00000000000E+00 0. -1.
         25    1    1    2    0    0  0.45635148181E+02 -0.56673521291E+02 -0.81092397324E+02  0.16581746491E+03  0.12500000000E+03 0.  0.
         25    1    1    2    0    0 -0.45635148181E+02  0.56673521291E+02 -0.49444435573E+03  0.51516470733E+03  0.12500000000E+03 0.  0.
</event>
<event>
 4    0  0.2270578E-002  0.1896847E+03  0.7546771E-02  0.1158746E+00
         21   -1    0    0  502  501  0.00000000000E+00  0.00000000000E+00  0.83599166854E+02  0.83599166854E+02  0.00000000000E+00 0.  1.
         21   -1    0    0  501  502 -0.00000000000E+00 -0.00000000000E+00 -0.43039025994E+03  0.43039025994E+03  0.00000000000E+00 0.  1.
         25    1    1    2    0    0  0.30943789139E+02  0.10869013939E+03 -0.29138602513E+03  0.33660344640E+03  0.12500000000E+03 0.  0.
         25    1    1    2    0    0 -0.30943789139E+02 -0.10869013939E+03 -0.55405067957E+02  0.17738598040E+03  0.12500000000E+03 0.  0.
</event>
<event>
 4    0  0.2270578E-002  0.2592713E+03  0.7546771E-02  0.1107582E+00
         21   -1    0    0  502  501  0.00000000000E+00  0.00000000000E+00  0.53516845126E+03  0.53516845126E+03  0.00000000000E+00 0.  1.
         21   -1    0    0  501  502 -0.00000000000E+00 -0.00000000000E+00 -0.12560834499E+03  0.12560834499E+03  0.00000000000E+00 0.  1.
         25    1    1    2    0    0  0.21433890524E+03  0.24538997746E+02  0.29536532769E+03  0.38653461101E+03  0.12500000000E+03 0.  0.
         25    1    1    2    0    0 -0.21433890524E+03 -0.24538997746E+02  0.11419477858E+03  0.27424218524E+03  0.12500000000E+03 0.  0.
</event>
<event>
 4    0  0.2270578E-002  0.2764117E+03  0.7546771E-02  0.1097665E+00
         21   -1    0    0  502  501  0.00000000000E+00  0.00000000000E+00  0.55686184723E+02  0.55686184723E+02  0.00000000000E+00 0. -1.
         21   -1    0    0  501  502 -0.00000000000E+00 -0.00000000000E+00 -0.13720356277E+04  0.13720356277E+04  0.00000000000E+00 0. -1.
         25    1    1    2    0    0  0.21140022568E+02  0.17104122924E+02 -0.25364016157E+02  0.13041389838E+03  0.12500000000E+03 0.  0.
         25    1    1    2    0    0 -0.21140022568E+02 -0.17104122924E+02 -0.12909854268E+04  0.12973079140E+04  0.12500000000E+03 0.  0.
</event>
<event>
 4    0  0.2270578E-002  0.1703714E+03  0.7546771E-02  0.1177461E+00
         21   -1    0    0  502  501  0.00000000000E+00  0.00000000000E+00  0.68601525191E+03  0.68601525191E+03  0.00000000000E+00 0. -1.
         21   -1    0    0  501  502 -0.00000000000E+00 -0.00000000000E+00 -0.42311626619E+02  0.42311626619E+02  0.00000000000E+00 0. -1.
         25    1    1    2    0    0  0.34792868715E+02  0.96167084627E+02  0.43780366873E+03  0.46664301584E+03  0.12500000000E+03 0.  0.
         25    1    1    2    0    0 -0.34792868715E+02 -0.96167084627E+02  0.20589995656E+03  0.26168386268E+03  0.12500000000E+03 0.  0.
</event>
<event>
 4    0  0.2270578E-002  0.1634153E+03  0.7546771E-02  0.1184894E+00
         21   -1    0    0  502  501  0.00000000000E+00  0.00000000000E+00  0.71437588584E+02  0.71437588584E+02  0.00000000000E+00 0.  1.
         21   -1    0    0  501  502 -0.00000000000E+00 -0.00000000000E+00 -0.37381681938E+03  0.37381681938E+03  0.00000000000E+00 0.  1.
         25    1    1    2    0    0  0.10188569880E+02 -0.59636755053E+02 -0.26853462416E+03  0.30231803433E+03  0.12500000000E+03 0.  0.
         25    1    1    2    0    0 -0.10188569880E+02  0.59636755053E+02 -0.33844606641E+02  0.14293637364E+03  0.12500000000E+03 0.  0.
</event>
<event>
 4    0  0.2270578E-002  0.2070960E+03  0.7546771E-02  0.1143887E+00
         21   -1    0    0  502  501  0.00000000000E+00  0.00000000000E+00  0.99846712158E+03  0.99846712158E+03  0.00000000000E+00 0. -1.
         21   -1    0    0  501  502 -0.00000000000E+00 -0.00000000000E+00 -0.42954577397E+02  0.42954577397E+02  0.00000000000E+00 0. -1.
         25    1    1    2    0    0 -0.32293357517E+02 -0.15840154547E+03  0.56227056580E+03  0.59825337417E+03  0.12500000000E+03 0.  0.
         25    1    1    2    0    0  0.32293357517E+02  0.15840154547E+03  0.39324197838E+03  0.44316832480E+03  0.12500000000E+03 0.  0.
</event>
<event>
 4    0  0.2270578E-002  0.2015924E+03  0.7546771E-02  0.1148402E+00
         21   -1    0    0  502  501  0.00000000000E+00  0.00000000000E+00  0.40034215857E+02  0.40034215857E+02  0.00000000000E+00 0. -1.
         21   -1    0    0  501  502 -0.00000000000E+00 -0.00000000000E+00 -0.10151191048E+04  0.10151191048E+04  0.00000000000E+00 0. -1.
         25    1    1    2    0    0  0.97667519163E+02  0.49359806781E+02 -0.18870414258E+03  0.25141517108E+03  0.12500000000E+03 0.  0.
         25    1    1    2    0    0 -0.97667519163E+02 -0.49359806781E+02 -0.78638074635E+03  0.80373814956E+03  0.12500000000E+03 0.  0.
</event>
<event>
 4    0  0.2270578E-002  0.1900741E+03  0.7546771E-02  0.1158395E+00
         21   -1    0    0  502  501  0.00000000000E+00  0.00000000000E+00  0.41648040688E+03  0.41648040688E+03  0.00000000000E+00 0.  1.
         21   -1    0    0  501  502 -0.00000000000E+00 -0.00000000000E+00 -0.86746360479E+02  0.86746360479E+02  0.00000000000E+00 0.  1.
         25    1    1    2    0    0  0.51369421338E+01 -0.32245792459E+01 -0.24511735768E+02  0.12752494374E+03  0.12500000000E+03 0.  0.
         25    1    1    2    0    0 -0.51369421338E+01  0.32245792459E+01  0.35424578217E+03  0.37570182362E+03  0.12500000000E+03 0.  0.
</event>
<event>
 4    0  0.2270578E-002  0.2666139E+03  0.7546771E-02  0.1103233E+00
         21   -1    0    0  502  501  0.00000000000E+00  0.00000000000E+00  0.54098302444E+03  0.54098302444E+03  0.00000000000E+00 0.  1.
         21   -1    0    0  501  502 -0.00000000000E+00 -0.00000000000E+00 -0.13139589110E+03  0.13139589110E+03  0.00000000000E+00 0.  1.
         25    1    1    2    0    0 -0.17100739951E+03 -0.73657745888E+02  0.38660353098E+03  0.44694103010E+03  0.12500000000E+03 0.  0.
         25    1    1    2    0    0  0.17100739951E+03  0.73657745888E+02  0.22983602362E+02  0.22543788544E+03  0.12500000000E+03 0.  0.
</event>
<event>
 4    0  0.2270578E-002  0.2553507E+03  0.7546771E-02  0.1109969E+00
         21   -1    0    0  502  501  0.00000000000E+00  0.00000000000E+00  0.93527994421E+02  0.93527994421E+02  0.00000000000E+00 0.  1.
         21   -1    0    0  501  502 -0.00000000000E+00 -0.00000000000E+00 -0.69715980294E+03  0.69715980294E+03  0.00000000000E+00 0.  1.
         25    1    1    2    0    0 -0.94196240090E+02  0.42730562066E+01  0.10482662643E+02  0.15692697943E+03  0.12500000000E+03 0.  0.
         25    1    1    2    0    0  0.94196240090E+02 -0.42730562066E+01 -0.61411447116E+03  0.63376081793E+03  0.12500000000E+03 0.  0.
</event>
<event>
 4    0  0.2270578E-002  0.1880971E+03  0.7546771E-02  0.1160189E+00
         21   -1    0    0  502  501  0.00000000000E+00  0.00000000000E+00  0.52517887499E+03  0.52517887499E+03  0.00000000000E+00 0. -1.
         21   -1    0    0  501  502 -0.00000000000E+00 -0.00000000000E+00 -0.67368495623E+02  0.67368495623E+02  0.00000000000E+00 0. -1.
         25    1    1    2    0    0  0.41847759904E+02  0.10275290163E+03  0.92987508428E+02  0.19126178532E+03  0.12500000000E+03 0.  0.
         25    1    1    2    0    0 -0.41847759904E+02 -0.10275290163E+03  0.36482287094E+03  0.40128558529E+03  0.12500000000E+03 0.  0.
</event>
<event>
 4    0  0.2270578E-002  0.3077758E+03  0.7546771E-02  0.1081417E+00
         21   -1    0    0  502  501  0.00000000000E+00  0.00000000000E+00  0.34242240843E+03  0.34242240843E+03  0.00000000000E+00 0.  1.
         21   -1    0    0  501  502 -0.00000000000E+00 -0.00000000000E+00 -0.27663476152E+03  0.27663476152E+03  0.00000000000E+00 0. -1.
         25    1    1    2    0    0 -0.18237590146E+03  0.18594819800E+03 -0.73838989992E+02  0.29818601278E+03  0.12500000000E+03 0.  0.
         25    1    1    2    0    0  0.18237590146E+03 -0.18594819800E+03  0.13962663691E+03  0.32087115718E+03  0.12500000000E+03 0.  0.
</event>
<event>
 4    0  0.2270578E-002  0.2301062E+03  0.7546771E-02  0.1126565E+00
         21   -1    0    0  502  501  0.00000000000E+00  0.00000000000E+00  0.40659808024E+02  0.40659808024E+02  0.00000000000E+00 0.  1.
         21   -1    0    0  501  502 -0.00000000000E+00 -0.00000000000E+00 -0.13022404176E+04  0.13022404176E+04  0.00000000000E+00 0.  1.
         25    1    1    2    0    0  0.11691160824E+02  0.18914596865E+03 -0.74039863864E+03  0.77442109010E+03  0.12500000000E+03 0.  0.
         25    1    1    2    0    0 -0.11691160824E+02 -0.18914596865E+03 -0.52118197099E+03  0.56847913557E+03  0.12500000000E+03 0.  0.
</event>
<event>
 4    0  0.2270578E-002  0.3167678E+03  0.7546771E-02  0.1077147E+00
         21   -1    0    0  502  501  0.00000000000E+00  0.00000000000E+00  0.80057651993E+03  0.80057651993E+03  0.00000000000E+00 0. -1.
         21   -1    0    0  501  502 -0.00000000000E+00 -0.00000000000E+00 -0.12533698226E+03  0.12533698226E+03  0.00000000000E+00 0.  1.
         25    1    1    2    0    0 -0.16579443677E+03 -0.23253954697E+03  0.41970374308E+03  0.52281800670E+03  0.12500000000E+03 0.  0.
         25    1    1    2    0    0  0.16579443677E+03  0.23253954697E+03  0.25553579459E+03  0.40309549549E+03  0.12500000000E+03 0.  0.
</event>
<event>
 4    0  0.2270578E-002  0.2876047E+03  0.7546771E-02  0.1091606E+00
         21   -1    0    0  502  501  0.00000000000E+00  0.00000000000E+00  0.40840123486E+02  0.40840123486E+02  0.00000000000E+00 0.  1.
         21   -1    0    0  501  502 -0.00000000000E+00 -0.00000000000E+00 -0.20253723912E+04  0.20253723912E+04  0.00000000000E+00 0.  1.
         25    1    1    2    0    0  0.10328416892E+03 -0.21664994348E+03 -0.13421349690E+04  0.13691442921E+04  0.12500000000E+03 0.  0.
         25    1    1    2    0    0 -0.10328416892E+03  0.21664994348E+03 -0.64239729876E+03  0.69706822264E+03  0.12500000000E+03 0.  0.
</event>
<event>
 4    0  0.2270578E-002  0.2721535E+03  0.7546771E-02  0.1100053E+00
         21   -1    0    0  502  501  0.00000000000E+00  0.00000000000E+00  0.48040618987E+03  0.48040618987E+03  0.00000000000E+00 0.  1.
         21   -1    0    0  501  502 -0.00000000000E+00 -0.00000000000E+00 -0.15417692456E+03  0.15417692456E+03  0.00000000000E+00 0.  1.
         25    1    1    2    0    0 -0.22007584155E+03  0.99699805740E+02  0.15342178444E+03  0.31230861538E+03  0.12500000000E+03 0.  0.
         25    1    1    2    0    0  0.22007584155E+03 -0.99699805740E+02  0.17280748087E+03  0.32227449905E+03  0.12500000000E+03 0.  0.
</event>
<event>
 4    0  0.2270578E-002  0.2198886E+03  0.7546771E-02  0.1133966E+00
         21   -1    0    0  502  501  0.00000000000E+00  0.00000000000E+00  0.25419956590E+03  0.25419956590E+03  0.00000000000E+00 0. -1.
         21   -1    0    0  501  502 -0.00000000000E+00 -0.00000000000E+00 -0.19020874438E+03  0.19020874438E+03  0.00000000000E+00 0. -1.
         25    1    1    2    0    0  0.13186253796E+03  0.10281973531E+03 -0.37770401125E+02  0.21215850227E+03  0.12500000000E+03 0.  0.
         25    1    1    2    0    0 -0.13186253796E+03 -0.10281973531E+03  0.10176122265E+03  0.23224980801E+03  0.12500000000E+03 0.  0.
</event>
<event>
 4    0  0.2270578E-002  0.3197432E+03  0.7546771E-02  0.1075768E+00
         21   -1    0    0  502  501  0.00000000000E+00  0.00000000000E+00  0.23050194828E+04  0.23050194828E+04  0.00000000000E+00 0.  1.
         21   -1    0    0  501  502 -0.00000000000E+00 -0.00000000000E+00 -0.44353526444E+02  0.44353526444E+02  0.00000000000E+00 0.  1.
         25    1    1    2    0    0 -0.22524257543E+03  0.16713060939E+03  0.14577769910E+04  0.14897669663E+04  0.12500000000E+03 0.  0.
         25    1    1    2    0    0  0.22524257543E+03 -0.16713060939E+03  0.80288896536E+03  0.85960604295E+03  0.12500000000E+03 0.  0.
</event>
<event>
 4    0  0.2270578E-002  0.2096537E+03  0.7546771E-02  0.1141841E+00
         21   -1    0    0  502  501  0.00000000000E+00  0.00000000000E+00  0.39327484531E+03  0.39327484531E+03  0.00000000000E+00 0.  1.
         21   -1    0    0  501  502 -0.00000000000E+00 -0.00000000000E+00 -0.11176580113E+03  0.11176580113E+03  0.00000000000E+00 0.  1.
         25    1    1    2    0    0 -0.88001069743E+02 -0.10706915498E+03  0.25719165860E+02  0.18839975508E+03  0.12500000000E+03 0.  0.
         25    1    1    2    0    0  0.88001069743E+02  0.10706915498E+03  0.25578987832E+03  0.31664089135E+03  0.12500000000E+03 0.  0.
</event>
<event>
 4    0  0.2270578E-002  0.1858586E+03  0.7546771E-02  0.1162251E+00
         21   -1    0    0  502  501  0.00000000000E+00  0.00000000000E+00  0.16105271480E+03  0.16105271480E+03  0.00000000000E+00 0.  1.
         21   -1    0    0  501  502 -0.00000000000E+00 -0.00000000000E+00 -0.21448516008E+03  0.21448516008E+03  0.00000000000E+00 0.  1.
         25    1    1    2    0    0  0.55938740341E+01  0.33623031980E+02 -0.16133982889E+03  0.20692351267E+03  0.12500000000E+03 0.  0.
         25    1    1    2    0    0 -0.55938740341E+01 -0.33623031980E+02  0.10790738362E+03  0.16861436222E+03  0.12500000000E+03 0.  0.
</event>
<event>
 4    0  0.2270578E-002  0.1735447E+03  0.7546771E-02  0.1174201E+00
         21   -1    0    0  502  501  0.00000000000E+00  0.00000000000E+00  0.61181046347E+02  0.61181046347E+02  0.00000000000E+00 0. -1.
         21   -1    0    0  501  502 -0.00000000000E+00 -0.00000000000E+00 -0.49227269686E+03  0.49227269686E+03  0.00000000000E+00 0. -1.
         25    1    1    2    0    0  0.57279797503E+02 -0.84470513396E+02 -0.31735445125E+03  0.35602681158E+03  0.12500000000E+03 0.  0.
         25    1    1    2    0    0 -0.57279797503E+02  0.84470513396E+02 -0.11373719927E+03  0.19742693163E+03  0.12500000000E+03 0.  0.
</event>
<event>
 4    0  0.2270578E-002  0.2366821E+03  0.7546771E-02  0.1122023E+00
         21   -1    0    0  502  501  0.00000000000E+00  0.00000000000E+00  0.14843919581E+03  0.14843919581E+03  0.00000000000E+00 0. -1.
         21   -1    0    0  501  502 -0.00000000000E+00 -0.00000000000E+00 -0.37738284853E+03  0.37738284853E+03  0.00000000000E+00 0. -1.
         25    1    1    2    0    0  0.19071531256E+03 -0.32808878372E+02 -0.54193591687E+02  0.23666579458E+03  0.12500000000E+03 0.  0.
         25    1    1    2    0    0 -0.19071531256E+03  0.32808878372E+02 -0.17475006104E+03  0.28915624976E+03  0.12500000000E+03 0.  0.
</event>
<event>
 4    0  0.2270578E-002  0.1825446E+03  0.7546771E-02  0.1165363E+00
         21   -1    0    0  502  501  0.00000000000E+00  0.00000000000E+00  0.74615080640E+03  0.74615080640E+03  0.00000000000E+00 0. -1.
         21   -1    0    0  501  502 -0.00000000000E+00 -0.00000000000E+00 -0.44659235557E+02  0.44659235557E+02  0.00000000000E+00 0. -1.
         25    1    1    2    0    0  0.16928231446E+02 -0.11135208293E+03  0.19740255634E+03  0.25938122647E+03  0.12500000000E+03 0.  0.
         25    1    1    2    0    0 -0.16928231446E+02  0.11135208293E+03  0.50408901449E+03  0.53142881548E+03  0.12500000000E+03 0.  0.
</event>
<event>
 4    0  0.2270578E-002  0.1650430E+03  0.7546771E-02  0.1183118E+00
         21   -1    0    0  502  501  0.00000000000E+00  0.00000000000E+00  0.16353370628E+03  0.16353370628E+03  0.00000000000E+00 0.  1.
         21   -1    0    0  501  502 -0.00000000000E+00 -0.00000000000E+00 -0.16656626565E+03  0.16656626565E+03  0.00000000000E+00 0.  1.
         25    1    1    2    0    0  0.84215549435E+02  0.63184964651E+02  0.21497736462E+02  0.16483856102E+03  0.12500000000E+03 0.  0.
         25    1    1    2    0    0 -0.84215549435E+02 -0.63184964651E+02 -0.24530295838E+02  0.16526141092E+03  0.12500000000E+03 0.  0.
</event>
<event>
 4    0  0.2270578E-002  0.2112623E+03  0.7546771E-02  0.1140570E+00
         21   -1    0    0  502  501  0.00000000000E+00  0.00000000000E+00  0.65410613956E+03  0.65410613956E+03  0.00000000000E+00 0.  1.
         21   -1    0    0  501  502 -0.00000000000E+00 -0.00000000000E+00 -0.68233197504E+02  0.68233197504E+02  0.00000000000E+00 0.  1.
         25    1    1    2    0    0 -0.49318100392E+02  0.38559899958E+01  0.14324263923E+02  0.13519366931E+03  0.12500000000E+03 0.  0.
         25    1    1    2    0    0  0.49318100392E+02 -0.38559899958E+01  0.57154867813E+03  0.58714566775E+03  0.12500000000E+03 0.  0.
</event>
<event>
 4    0  0.2270578E-002  0.1938242E+03  0.7546771E-02  0.1155057E+00
         21   -1    0    0  502  501  0.00000000000E+00  0.00000000000E+00  0.28993184870E+03  0.28993184870E+03  0.00000000000E+00 0.  1.
         21   -1    0    0  501  502 -0.00000000000E+00 -0.00000000000E+00 -0.12957468572E+03  0.12957468572E+03  0.00000000000E+00 0.  1.
         25    1    1    2    0    0  0.15361051758E+02 -0.14315557253E+03  0.42482740558E+02  0.19534396101E+03  0.12500000000E+03 0.  0.
         25    1    1    2    0    0 -0.15361051758E+02  0.14315557253E+03  0.11787442242E+03  0.22416257341E+03  0.12500000000E+03 0.  0.
</event>
<event>
 4    0  0.2270578E-002  0.2718968E+03  0.7546771E-02  0.1100199E+00
         21   -1    0    0  502  501  0.00000000000E+00  0.00000000000E+00  0.11164027224E+03  0.11164027224E+03  0.00000000000E+00 0. -1.
         21   -1    0    0  501  502 -0.00000000000E+00 -0.00000000000E+00 -0.66219717863E+03  0.66219717863E+03  0.00000000000E+00 0. -1.
         25    1    1    2    0    0 -0.11365755420E+03  0.10210605359E+03 -0.54134869677E+03  0.57621792519E+03  0.12500000000E+03 0.  0.
         25    1    1    2    0    0  0.11365755420E+03 -0.10210605359E+03 -0.92082096183E+01  0.19761952568E+03  0.12500000000E+03 0.  0.
</event>
<event>
 4    0  0.2270578E-002  0.2204381E+03  0.7546771E-02  0.1133557E+00
         21   -1    0    0  502  501  0.00000000000E+00  0.00000000000E+00  0.15217570685E+03  0.15217570685E+03  0.00000000000E+00 0.  1.
         21   -1    0    0  501  502 -0.00000000000E+00 -0.00000000000E+00 -0.31932127902E+03  0.31932127902E+03  0.00000000000E+00 0.  1.
         25    1    1    2    0    0 -0.13070378982E+03  0.39340089859E+02  0.44479907211E+02  0.19035384285E+03  0.12500000000E+03 0.  0.
         25    1    1    2    0    0  0.13070378982E+03 -0.39340089859E+02 -0.21162547938E+03  0.28114314302E+03  0.12500000000E+03 0.  0.
</event>
<event>
 4    0  0.2270578E-002  0.1704038E+03  0.7546771E-02  0.1177427E+00
         21   -1    0    0  502  501  0.00000000000E+00  0.00000000000E+00  0.23663560045E+02  0.23663560045E+02  0.00000000000E+00 0.  1.
         21   -1    0    0  501  502 -0.00000000000E+00 -0.00000000000E+00 -0.12270961299E+04  0.12270961299E+04  0.00000000000E+00 0.  1.
         25    1    1    2    0    0 -0.10228808440E+03 -0.53679502011E+02 -0.63200686721E+03  0.65452427102E+03  0.12500000000E+03 0.  0.
         25    1    1    2    0    0  0.10228808440E+03  0.53679502011E+02 -0.57142570267E+03  0.59623541895E+03  0.12500000000E+03 0.  0.
</event>
<event>
 4    0  0.2270578E-002  0.2444881E+03  0.7546771E-02  0.1116839E+00
         21   -1    0    0  502  501  0.00000000000E+00  0.00000000000E+00  0.75182199847E+03  0.75182199847E+03  0.00000000000E+00 0.  1.
         21   -1    0    0  501  502 -0.00000000000E+00 -0.00000000000E+00 -0.79506085686E+02  0.79506085686E+02  0.00000000000E+00 0.  1.
         25    1    1    2    0    0  0.12829115224E+03  0.76850113930E+02  0.58709350347E+03  0.61860192497E+03  0.12500000000E+03 0.  0.
         25    1    1    2    0    0 -0.12829115224E+03 -0.76850113930E+02  0.85222409306E+02  0.21272615918E+03  0.12500000000E+03 0.  0.
</event>
<event>
 4    0  0.2270578E-002  0.4185741E+03  0.7546771E-02  0.1037531E+00
         21   -1    0    0  502  501  0.00000000000E+00  0.00000000000E+00  0.13438690144E+03  0.13438690144E+03  0.00000000000E+00 0. -1.
         21   -1    0    0  501  502 -0.00000000000E+00 -0.00000000000E+00 -0.13037301825E+04  0.13037301825E+04  0.00000000000E+00 0. -1.
         25    1    1    2    0    0  0.31433832311E+03  0.24256753322E+03 -0.50916965253E+03  0.65766733582E+03  0.12500000000E+03 0.  0.
         25    1    1    2    0    0 -0.31433832311E+03 -0.24256753322E+03 -0.66017362851E+03  0.78044974811E+03  0.12500000000E+03 0.  0.
</event>
<event>
 4    0  0.2270578E-002  0.2847245E+03  0.7546771E-02  0.1093136E+00
         21   -1    0    0  502  501  0.00000000000E+00  0.00000000000E+00  0.66315385361E+03  0.66315385361E+03  0.00000000000E+00 0.  1.
         21   -1    0    0  501  502 -0.00000000000E+00 -0.00000000000E+00 -0.12224620618E+03  0.12224620618E+03  0.00000000000E+00 0.  1.
         25    1    1    2    0    0 -0.33661975143E+02 -0.11386503811E+03  0.58297810299E+03  0.60793654606E+03  0.12500000000E+03 0.  0.
         25    1    1    2    0    0  0.33661975143E+02  0.11386503811E+03 -0.42070455555E+02  0.17746351373E+03  0.12500000000E+03 0.  0.
</event>
<event>
 4    0  0.2270578E-002  0.2943124E+03  0.7546771E-02  0.1088119E+00
         21   -1    0    0  502  501  0.00000000000E+00  0.00000000000E+00  0.14110170009E+04  0.14110170009E+04  0.00000000000E+00 0. -1.
         21   -1    0    0  501  502 -0.00000000000E+00 -0.00000000000E+00 -0.61388208037E+02  0.61388208037E+02  0.00000000000E+00 0. -1.
         25    1    1    2    0    0 -0.10471150315E+03 -0.11819422351E+03  0.12116641410E+04  0.12282871668E+04  0.12500000000E+03 0.  0.
         25    1    1    2    0    0  0.10471150315E+03  0.11819422351E+03  0.13796465184E+03  0.24411804219E+03  0.12500000000E+03 0.  0.
</event>
<event>
 4    0  0.2270578E-002  0.4491882E+03  0.7546771E-02  0.1027964E+00
         21   -1    0    0  502  501  0.00000000000E+00  0.00000000000E+00  0.51097974875E+03  0.51097974875E+03  0.00000000000E+00 0.  1.
         21   -1    0    0  501  502 -0.00000000000E+00 -0.00000000000E+00 -0.39486897870E+03  0.39486897870E+03  0.00000000000E+00 0. -1.
         25    1    1    2    0    0  0.27718059055E+03 -0.29603985494E+03 -0.90398192743E+02  0.43389573487E+03  0.12500000000E+03 0.  0.
         25    1    1    2    0    0 -0.27718059055E+03  0.29603985494E+03  0.20650896279E+03  0.47195299258E+03  0.12500000000E+03 0.  0.
</event>
<event>
 4    0  0.2270578E-002  0.2008476E+03  0.7546771E-02  0.1149026E+00
         21   -1    0    0  502  501  0.00000000000E+00  0.00000000000E+00  0.74737739350E+03  0.74737739350E+03  0.00000000000E+00 0.  1.
         21   -1    0    0  501  502 -0.00000000000E+00 -0.00000000000E+00 -0.53975067709E+02  0.53975067709E+02  0.00000000000E+00 0.  1.
         25    1    1    2    0    0  0.53953233058E+02 -0.14530638110E+03  0.39909789894E+03  0.44601460591E+03  0.12500000000E+03 0.  0.
         25    1    1    2    0    0 -0.53953233058E+02  0.14530638110E+03  0.29430442685E+03  0.35533785530E+03  0.12500000000E+03 0.  0.
</event>
<event>
 4    0  0.2270578E-002  0.3632459E+03  0.7546771E-02  0.1057306E+00
         21   -1    0    0  502  501  0.00000000000E+00  0.00000000000E+00  0.91532719804E+02  0.91532719804E+02  0.00000000000E+00 0. -1.
         21   -1    0    0  501  502 -0.00000000000E+00 -0.00000000000E+00 -0.14415347812E+04  0.14415347812E+04  0.00000000000E+00 0. -1.
         25    1    1    2    0    0  0.25902028241E+03 -0.21554620142E+03 -0.56391917616E+03  0.66871631421E+03  0.12500000000E+03 0.  0.
         25    1    1    2    0    0 -0.25902028241E+03  0.21554620142E+03 -0.78608288520E+03  0.86435118676E+03  0.12500000000E+03 0.  0.
</event>
<event>
 4    0  0.2270578E-002  0.1905851E+03  0.7546771E-02  0.1157935E+00
         21   -1    0    0  502  501  0.00000000000E+00  0.00000000000E+00  0.21806542054E+02  0.21806542054E+02  0.00000000000E+00 0.  1.
         21   -1    0    0  501  502 -0.00000000000E+00 -0.00000000000E+00 -0.16656784124E+04  0.16656784124E+04  0.00000000000E+00 0.  1.
         25    1    1    2    0    0  0.12084037807E+03 -0.61589490932E+02 -0.10343463737E+04  0.10506631635E+04  0.12500000000E+03 0.  0.
         25    1    1    2    0    0 -0.12084037807E+03  0.61589490932E+02 -0.60952549669E+03  0.63682179099E+03  0.12500000000E+03 0.  0.
</event>
<event>
 4    0  0.2270578E-002  0.1778421E+03  0.7546771E-02  0.1169908E+00
         21   -1    0    0  502  501  0.00000000000E+00  0.00000000000E+00  0.46333963766E+02  0.46333963766E+02  0.00000000000E+00 0.  1.
         21   -1    0    0  501  502 -0.00000000000E+00 -0.00000000000E+00 -0.68260516479E+03  0.68260516479E+03  0.00000000000E+00 0.  1.
         25    1    1    2    0    0  0.91828564656E+02 -0.32775941303E+02 -0.48331337631E+03  0.50864876618E+03  0.12500000000E+03 0.  0.
         25    1    1    2    0    0 -0.91828564656E+02  0.32775941303E+02 -0.15295782471E+03  0.22029036238E+03  0.12500000000E+03 0.  0.
</event>
<event>
 4    0  0.2270578E-002  0.2275947E+03  0.7546771E-02  0.1128344E+00
         21   -1    0    0  502  501  0.00000000000E+00  0.00000000000E+00  0.23484919020E+03  0.23484919020E+03  0.00000000000E+00 0. -1.
         21   -1    0    0  501  502 -0.00000000000E+00 -0.00000000000E+00 -0.22056432833E+03  0.22056432833E+03  0.00000000000E+00 0. -1.
         25    1    1    2    0    0 -0.15479553912E+03  0.34253607639E+02 -0.97977773623E+02  0.22440947550E+03  0.12500000000E+03 0.  0.
         25    1    1    2    0    0  0.15479553912E+03 -0.34253607639E+02  0.11226263549E+03  0.23100404303E+03  0.12500000000E+03 0.  0.
</event>
<event>
 4    0  0.2270578E-002  0.1928397E+03  0.7546771E-02  0.1155925E+00
         21   -1    0    0  502  501  0.00000000000E+00  0.00000000000E+00  0.35173386246E+02  0.35173386246E+02  0.00000000000E+00 0.  1.
         21   -1    0    0  501  502 -0.00000000000E+00 -0.00000000000E+00 -0.10572528986E+04  0.10572528986E+04  0.00000000000E+00 0.  1.
         25    1    1    2    0    0 -0.12631629141E+03  0.69117730564E+01 -0.29986218236E+03  0.34863434497E+03  0.12500000000E+03 0.  0.
         25    1    1    2    0    0  0.12631629141E+03 -0.69117730564E+01 -0.72221733000E+03  0.74379193988E+03  0.12500000000E+03 0.  0.
</event>
<event>
 4    0  0.2270578E-002  0.3717870E+03  0.7546771E-02  0.1054012E+00
         21   -1    0    0  502  501  0.00000000000E+00  0.00000000000E+00  0.11108314883E+03  0.11108314883E+03  0.00000000000E+00 0. -1.
         21   -1    0    0  501  502 -0.00000000000E+00 -0.00000000000E+00 -0.12443431563E+04  0.12443431563E+04  0.00000000000E+00 0. -1.
         25    1    1    2    0    0  0.11809464780E+03 -0.22538664676E+03 -0.10050824038E+04  0.10442993463E+04  0.12500000000E+03 0.  0.
         25    1    1    2    0    0 -0.11809464780E+03  0.22538664676E+03 -0.12817760364E+03  0.31112695873E+03  0.12500000000E+03 0.  0.
</event>
<event>
 4    0  0.2270578E-002  0.2559903E+03  0.7546771E-02  0.1109577E+00
         21   -1    0    0  502  501  0.00000000000E+00  0.00000000000E+00  0.76555098087E+03  0.76555098087E+03  0.00000000000E+00 0. -1.
         21   -1    0    0  501  502 -0.00000000000E+00 -0.00000000000E+00 -0.85599809587E+02  0.85599809587E+02  0.00000000000E+00 0. -1.
         25    1    1    2    0    0 -0.15346374033E+03 -0.16033305898E+03  0.38230190576E+03  0.45938824163E+03  0.12500000000E+03 0.  0.
         25    1    1    2    0    0  0.15346374033E+03  0.16033305898E+03  0.29764926552E+03  0.39176254883E+03  0.12500000000E+03 0.  0.
</event>
<event>
 4    0  0.2270578E-002  0.1671707E+03  0.7546771E-02  0.1180831E+00
         21   -1    0    0  502  501  0.00000000000E+00  0.00000000000E+00  0.42376037967E+03  0.42376037967E+03  0.00000000000E+00 0. -1.
         21   -1    0    0  501  502 -0.00000000000E+00 -0.00000000000E+00 -0.65947771813E+02  0.65947771813E+02  0.00000000000E+00 0. -1.
         25    1    1    2    0    0  0.10717056118E+03  0.28034541156E+02  0.16859209305E+03  0.23731784282E+03  0.12500000000E+03 0.  0.
         25    1    1    2    0    0 -0.10717056118E+03 -0.28034541156E+02  0.18922051481E+03  0.25239030866E+03  0.12500000000E+03 0.  0.
</event>
<event>
 4    0  0.2270578E-002  0.1833762E+03  0.7546771E-02  0.1164575E+00
         21   -1    0    0  502  501  0.00000000000E+00  0.00000000000E+00  0.82773151369E+02  0.82773151369E+02  0.00000000000E+00 0.  1.
         21   -1    0    0  501  502 -0.00000000000E+00 -0.00000000000E+00 -0.40625266277E+03  0.40625266277E+03  0.00000000000E+00 0.  1.
         25    1    1    2    0    0 -0.62416100660E+02  0.80488396108E+02 -0.27819381807E+03  0.32154463445E+03  0.12500000000E+03 0.  0.
         25    1    1    2    0    0  0.62416100660E+02 -0.80488396108E+02 -0.45285693328E+02  0.16748117969E+03  0.12500000000E+03 0.  0.
</event>
<event>
 4    0  0.2270578E-002  0.2406800E+03  0.7546771E-02  0.1119341E+00
         21   -1    0    0  502  501  0.00000000000E+00  0.00000000000E+00  0.37824436804E+03  0.37824436804E+03  0.00000000000E+00 0. -1.
         21   -1    0    0  501  502 -0.00000000000E+00 -0.00000000000E+00 -0.15314662820E+03  0.15314662820E+03  0.00000000000E+00 0. -1.
         25    1    1    2    0    0  0.55043718041E+02 -0.92103130795E+02 -0.81156829700E+02  0.18364157646E+03  0.12500000000E+03 0.  0.
         25    1    1    2    0    0 -0.55043718041E+02  0.92103130795E+02  0.30625456953E+03  0.34774941978E+03  0.12500000000E+03 0.  0.
</event>
<event>
 4    0  0.2270578E-002  0.2096308E+03  0.7546771E-02  0.1141859E+00
         21   -1    0    0  502  501  0.00000000000E+00  0.00000000000E+00  0.26953517079E+03  0.26953517079E+03  0.00000000000E+00 0. -1.
         21   -1    0    0  501  502 -0.00000000000E+00 -0.00000000000E+00 -0.16304018874E+03  0.16304018874E+03  0.00000000000E+00 0. -1.
         25    1    1    2    0    0 -0.12540141976E+03 -0.10872390412E+03  0.81945533732E+02  0.22335280142E+03  0.12500000000E+03 0.  0.
         25    1    1    2    0    0  0.12540141976E+03  0.10872390412E+03  0.24549448317E+02  0.20922255810E+03  0.12500000000E+03 0.  0.
</event>
<event>
 4    0  0.2270578E-002  0.1918737E+03  0.7546771E-02  0.1156782E+00
         21   -1    0    0  502  501  0.00000000000E+00  0.00000000000E+00  0.41636629060E+03  0.41636629060E+03  0.00000000000E+00 0. -1.
         21   -1    0    0  501  502 -0.00000000000E+00 -0.00000000000E+00 -0.88420977713E+02  0.88420977713E+02  0.00000000000E+00 0. -1.
         25    1    1    2    0    0 -0.28238922085E+02 -0.11214975332E+03  0.28026246041E+03  0.32794366987E+03  0.12500000000E+03 0.  0.
         25    1    1    2    0    0  0.28238922085E+02  0.11214975332E+03  0.47682852473E+02  0.17684359844E+03  0.12500000000E+03 0.  0.
</event>
<event>
 4    0  0.2270578E-002  0.2497335E+03  0.7546771E-02  0.1113473E+00
         21   -1    0    0  502  501  0.00000000000E+00  0.00000000000E+00  0.80885070454E+03  0.80885070454E+03  0.00000000000E+00 0.  1.
         21   -1    0    0  501  502 -0.00000000000E+00 -0.00000000000E+00 -0.77105506940E+02  0.77105506940E+02  0.00000000000E+00 0.  1.
         25    1    1    2    0    0  0.86774183601E+02  0.14515918973E+03  0.12696238014E+03  0.24565299769E+03  0.12500000000E+03 0.  0.
         25    1    1    2    0    0 -0.86774183601E+02 -0.14515918973E+03  0.60478281746E+03  0.64030321380E+03  0.12500000000E+03 0.  0.
</event>
<event>
 4    0  0.2270578E-002  0.2367655E+03  0.7546771E-02  0.1121966E+00
         21   -1    0    0  502  501  0.00000000000E+00  0.00000000000E+00  0.14971077612E+03  0.14971077612E+03  0.00000000000E+00 0. -1.
         21   -1    0    0  501  502 -0.00000000000E+00 -0.00000000000E+00 -0.37444144621E+03  0.37444144621E+03  0.00000000000E+00 0. -1.
         25    1    1    2    0    0  0.59542699905E+02  0.11899262499E+03  0.54510257981E+02  0.19052807179E+03  0.12500000000E+03 0.  0.
         25    1    1    2    0    0 -0.59542699905E+02 -0.11899262499E+03 -0.27924092807E+03  0.33362415054E+03  0.12500000000E+03 0.  0.
</event>
<event>
 4    0  0.2270578E-002  0.2430213E+03  0.7546771E-02  0.1117796E+00
         21   -1    0    0  502  501  0.00000000000E+00  0.00000000000E+00  0.12811797751E+03  0.12811797751E+03  0.00000000000E+00 0. -1.
         21   -1    0    0  501  502 -0.00000000000E+00 -0.00000000000E+00 -0.46097622339E+03  0.46097622339E+03  0.00000000000E+00 0. -1.
         25    1    1    2    0    0 -0.10769843810E+03 -0.13881237399E+03 -0.30229732826E+03  0.37131725440E+03  0.12500000000E+03 0.  0.
         25    1    1    2    0    0  0.10769843810E+03  0.13881237399E+03 -0.30560917632E+02  0.21777694650E+03  0.12500000000E+03 0.  0.
</event>
<event>
 4    0  0.2270578E-002  0.1809312E+03  0.7546771E-02  0.1166905E+00
         21   -1    0    0  502  501  0.00000000000E+00  0.00000000000E+00  0.15648742505E+04  0.15648742505E+04  0.00000000000E+00 0.  1.
         21   -1    0    0  501  502 -0.00000000000E+00 -0.00000000000E+00 -0.20919308234E+02  0.20919308234E+02  0.00000000000E+00 0.  1.
         25    1    1    2    0    0 -0.87812307057E+02  0.96943389596E+02  0.76568044408E+03  0.78676588926E+03  0.12500000000E+03 0.  0.
         25    1    1    2    0    0  0.87812307057E+02 -0.96943389596E+02  0.77827449819E+03  0.79902766948E+03  0.12500000000E+03 0.  0.
</event>
<event>
 4    0  0.2270578E-002  0.1890672E+03  0.7546771E-02  0.1159305E+00
         21   -1    0    0  502  501  0.00000000000E+00  0.00000000000E+00  0.10065149747E+03  0.10065149747E+03  0.00000000000E+00 0. -1.
         21   -1    0    0  501  502 -0.00000000000E+00 -0.00000000000E+00 -0.35515029378E+03  0.35515029378E+03  0.00000000000E+00 0. -1.
         25    1    1    2    0    0 -0.80310693981E+02  0.11107818447E+03 -0.17126267535E+03  0.25247588915E+03  0.12500000000E+03 0.  0.
         25    1    1    2    0    0  0.80310693981E+02 -0.11107818447E+03 -0.83236120963E+02  0.20332590211E+03  0.12500000000E+03 0.  0.
</event>
<event>
 4    0  0.2270578E-002  0.1813624E+03  0.7546771E-02  0.1166491E+00
         21   -1    0    0  502  501  0.00000000000E+00  0.00000000000E+00  0.74771718584E+03  0.74771718584E+03  0.00000000000E+00 0.  1.
         21   -1    0    0  501  502 -0.00000000000E+00 -0.00000000000E+00 -0.43990300264E+02  0.43990300264E+02  0.00000000000E+00 0.  1.
         25    1    1    2    0    0  0.18055483840E+01  0.12764038885E+03  0.28381548754E+03  0.33536779786E+03  0.12500000000E+03 0.  0.
         25    1    1    2    0    0 -0.18055483840E+01 -0.12764038885E+03  0.41991139803E+03  0.45633968824E+03  0.12500000000E+03 0.  0.
</event>
<event>
 4    0  0.2270578E-002  0.1853915E+03  0.7546771E-02  0.1162685E+00
         21   -1    0    0  502  501  0.00000000000E+00  0.00000000000E+00  0.69652256004E+03  0.69652256004E+03  0.00000000000E+00 0.  1.
         21   -1    0    0  501  502 -0.00000000000E+00 -0.00000000000E+00 -0.49345158785E+02  0.49345158785E+02  0.00000000000E+00 0.  1.
         25    1    1    2    0    0  0.92629880755E+02  0.97204796889E+02  0.37741356976E+03  0.41963683106E+03  0.12500000000E+03 0.  0.
         25    1    1    2    0    0 -0.92629880755E+02 -0.97204796889E+02  0.26976383150E+03  0.32623088776E+03  0.12500000000E+03 0.  0.
</event>
<event>
 4    0  0.2270578E-002  0.2193825E+03  0.7546771E-02  0.1134344E+00
         21   -1    0    0  502  501  0.00000000000E+00  0.00000000000E+00  0.43652278008E+02  0.43652278008E+02  0.00000000000E+00 0.  1.
         21   -1    0    0  501  502 -0.00000000000E+00 -0.00000000000E+00 -0.11025465817E+04  0.11025465817E+04  0.00000000000E+00 0.  1.
         25    1    1    2    0    0 -0.52920028462E+02 -0.35196543420E+01 -0.79316436004E+02  0.15725461646E+03  0.12500000000E+03 0.  0.
         25    1    1    2    0    0  0.52920028462E+02  0.35196543420E+01 -0.97957786773E+03  0.98894424328E+03  0.12500000000E+03 0.  0.
</event>
<event>
 4    0  0.2270578E-002  0.2597756E+03  0.7546771E-02  0.1107278E+00
         21   -1    0    0  502  501  0.00000000000E+00  0.00000000000E+00  0.34667451141E+03  0.34667451141E+03  0.00000000000E+00 0.  1.
         21   -1    0    0  501  502 -0.00000000000E+00 -0.00000000000E+00 -0.19465909543E+03  0.19465909543E+03  0.00000000000E+00 0.  1.
         25    1    1    2    0    0  0.21638551673E+03  0.61858029710E+02  0.39775668608E+02  0.26049224845E+03  0.12500000000E+03 0.  0.
         25    1    1    2    0    0 -0.21638551673E+03 -0.61858029710E+02  0.11223974737E+03  0.28084135838E+03  0.12500000000E+03 0.  0.
</event>
<event>
 4    0  0.2270578E-002  0.2109858E+03  0.7546771E-02  0.1140788E+00
         21   -1    0    0  502  501  0.00000000000E+00  0.00000000000E+00  0.57149822799E+03  0.57149822799E+03  0.00000000000E+00 0. -1.
         21   -1    0    0  501  502 -0.00000000000E+00 -0.00000000000E+00 -0.77891771772E+02  0.77891771772E+02  0.00000000000E+00 0. -1.
         25    1    1    2    0    0  0.14858140960E+03  0.78657637716E+02  0.28532447482E+03  0.35397530306E+03  0.12500000000E+03 0.  0.
         25    1    1    2    0    0 -0.14858140960E+03 -0.78657637716E+02  0.20828198140E+03  0.29541469670E+03  0.12500000000E+03 0.  0.
</event>
<event>
 4    0  0.2270578E-002  0.1722509E+03  0.7546771E-02  0.1175521E+00
         21   -1    0    0  502  501  0.00000000000E+00  0.00000000000E+00  0.81627661453E+03  0.81627661453E+03  0.00000000000E+00 0.  1.
         21   -1    0    0  501  502 -0.00000000000E+00 -0.00000000000E+00 -0.36348418447E+02  0.36348418447E+02  0.00000000000E+00 0.  1.
         25    1    1    2    0    0 -0.11206501023E+03 -0.29500792575E+02  0.45141573049E+03  0.48252463669E+03  0.12500000000E+03 0.  0.
         25    1    1    2    0    0  0.11206501023E+03  0.29500792575E+02  0.32851246559E+03  0.37010039629E+03  0.12500000000E+03 0.  0.
</event>
<event>
 4    0  0.2270578E-002  0.1898324E+03  0.7546771E-02  0.1158613E+00
         21   -1    0    0  502  501  0.00000000000E+00  0.00000000000E+00  0.38149972219E+02  0.38149972219E+02  0.00000000000E+00 0. -1.
         21   -1    0    0  501  502 -0.00000000000E+00 -0.00000000000E+00 -0.94459723654E+03  0.94459723654E+03  0.00000000000E+00 0. -1.
         25    1    1    2    0    0  0.46052384210E+02 -0.13367369991E+03 -0.40005751869E+03  0.44233527827E+03  0.12500000000E+03 0.  0.
         25    1    1    2    0    0 -0.46052384210E+02  0.13367369991E+03 -0.50638974563E+03  0.54041193049E+03  0.12500000000E+03 0.  0.
</event>
<event>
 4    0  0.2270578E-002  0.1923005E+03  0.7546771E-02  0.1156403E+00
         21   -1    0    0  502  501  0.00000000000E+00  0.00000000000E+00  0.17434416275E+03  0.17434416275E+03  0.00000000000E+00 0.  1.
         21   -1    0    0  501  502 -0.00000000000E+00 -0.00000000000E+00 -0.21210620073E+03  0.21210620073E+03  0.00000000000E+00 0.  1.
         25    1    1    2    0    0  0.79770846420E+02  0.27296737540E+02  0.10104943384E+03  0.18150616491E+03  0.12500000000E+03 0.  0.
         25    1    1    2    0    0 -0.79770846420E+02 -0.27296737540E+02 -0.13881147182E+03  0.20494419857E+03  0.12500000000E+03 0.  0.
</event>
<event>
 4    0  0.2270578E-002  0.2601524E+03  0.7546771E-02  0.1107052E+00
         21   -1    0    0  502  501  0.00000000000E+00  0.00000000000E+00  0.77340573105E+02  0.77340573105E+02  0.00000000000E+00 0.  1.
         21   -1    0    0  501  502 -0.00000000000E+00 -0.00000000000E+00 -0.87508101146E+03  0.87508101146E+03  0.00000000000E+00 0.  1.
         25    1    1    2    0    0  0.62460436674E+02  0.14020062964E+03 -0.70787772797E+03  0.73503292475E+03  0.12500000000E+03 0.  0.
         25    1    1    2    0    0 -0.62460436674E+02 -0.14020062964E+03 -0.89862710378E+02  0.21738865981E+03  0.12500000000E+03 0.  0.
</event>
<event>
 4    0  0.2270578E-002  0.2107452E+03  0.7546771E-02  0.1140977E+00
         21   -1    0    0  502  501  0.00000000000E+00  0.00000000000E+00  0.43787800599E+02  0.43787800599E+02  0.00000000000E+00 0. -1.
         21   -1    0    0  501  502 -0.00000000000E+00 -0.00000000000E+00 -0.10142905284E+04  0.10142905284E+04  0.00000000000E+00 0. -1.
         25    1    1    2    0    0 -0.75663317641E+02 -0.98571095854E+02 -0.77527116045E+03  0.79505444518E+03  0.12500000000E+03 0.  0.
         25    1    1    2    0    0  0.75663317641E+02  0.98571095854E+02 -0.19523156739E+03  0.26302388385E+03  0.12500000000E+03 0.  0.
</event>
<event>
 4    0  0.2270578E-002  0.1860639E+03  0.7546771E-02  0.1162060E+00
         21   -1    0    0  502  501  0.00000000000E+00  0.00000000000E+00  0.57425066966E+03  0.57425066966E+03  0.00000000000E+00 0. -1.
         21   -1    0    0  501  502 -0.00000000000E+00 -0.00000000000E+00 -0.60286860892E+02  0.60286860892E+02  0.00000000000E+00 0. -1.
         25    1    1    2    0    0  0.55882064693E+02 -0.21568442353E+02  0.45330579938E+02  0.14583505867E+03  0.12500000000E+03 0.  0.
         25    1    1    2    0    0 -0.55882064693E+02  0.21568442353E+02  0.46863322883E+03  0.48870247188E+03  0.12500000000E+03 0.  0.
</event>
<event>
 4    0  0.2270578E-002  0.2097485E+03  0.7546771E-02  0.1141765E+00
         21   -1    0    0  502  501  0.00000000000E+00  0.00000000000E+00  0.21535954865E+03  0.21535954865E+03  0.00000000000E+00 0. -1.
         21   -1    0    0  501  502 -0.00000000000E+00 -0.00000000000E+00 -0.20428364654E+03  0.20428364654E+03  0.00000000000E+00 0. -1.
         25    1    1    2    0    0 -0.14240509423E+03  0.26434198101E+02 -0.80465588821E+02  0.20755165304E+03  0.12500000000E+03 0.  0.
         25    1    1    2    0    0  0.14240509423E+03 -0.26434198101E+02  0.91541490922E+02  0.21209154215E+03  0.12500000000E+03 0.  0.
</event>
<event>
 4    0  0.2270578E-002  0.2675000E+03  0.7546771E-02  0.1102719E+00
         21   -1    0    0  502  501  0.00000000000E+00  0.00000000000E+00  0.69983802681E+03  0.69983802681E+03  0.00000000000E+00 0. -1.
         21   -1    0    0  501  502 -0.00000000000E+00 -0.00000000000E+00 -0.10224685622E+03  0.10224685622E+03  0.00000000000E+00 0. -1.
         25    1    1    2    0    0  0.22441001318E+03 -0.38644111626E+02  0.20305610037E+03  0.32971199747E+03  0.12500000000E+03 0.  0.
         25    1    1    2    0    0 -0.22441001318E+03  0.38644111626E+02  0.39453507022E+03  0.47237288556E+03  0.12500000000E+03 0.  0.
</event>
<event>
 4    0  0.2270578E-002  0.2527530E+03  0.7546771E-02  0.1111577E+00
         21   -1    0    0  502  501  0.00000000000E+00  0.00000000000E+00  0.37098102426E+03  0.37098102426E+03  0.00000000000E+00 0.  1.
         21   -1    0    0  501  502 -0.00000000000E+00 -0.00000000000E+00 -0.17220315162E+03  0.17220315162E+03  0.00000000000E+00 0.  1.
         25    1    1    2    0    0  0.19079230055E+03  0.87376372611E+02  0.16921529374E+03  0.29714499503E+03  0.12500000000E+03 0.  0.
         25    1    1    2    0    0 -0.19079230055E+03 -0.87376372611E+02  0.29562578912E+02  0.24603918085E+03  0.12500000000E+03 0.  0.
</event>
<event>
 4    0  0.2270578E-002  0.2325039E+03  0.7546771E-02  0.1124890E+00
         21   -1    0    0  502  501  0.00000000000E+00  0.00000000000E+00  0.12662648390E+03  0.12662648390E+03  0.00000000000E+00 0. -1.
         21   -1    0    0  501  502 -0.00000000000E+00 -0.00000000000E+00 -0.42690953389E+03  0.42690953389E+03  0.00000000000E+00 0. -1.
         25    1    1    2    0    0 -0.27516389472E+02 -0.10742371087E+03  0.42303038592E+02  0.17237039311E+03  0.12500000000E+03 0.  0.
         25    1    1    2    0    0  0.27516389472E+02  0.10742371087E+03 -0.34258608858E+03  0.38116562468E+03  0.12500000000E+03 0.  0.
</event>
<event>
 4    0  0.2270578E-002  0.2242397E+03  0.7546771E-02  0.1130761E+00
         21   -1    0    0  502  501  0.00000000000E+00  0.00000000000E+00  0.21531893090E+03  0.21531893090E+03  0.00000000000E+00 0. -1.
         21   -1    0    0  501  502 -0.00000000000E+00 -0.00000000000E+00 -0.23353011754E+03  0.23353011754E+03  0.00000000000E+00 0. -1.
         25    1    1    2    0    0  0.80428635015E+02  0.16787658517E+03 -0.11780259436E+02  0.22453304365E+03  0.12500000000E+03 0.  0.
         25    1    1    2    0    0 -0.80428635015E+02 -0.16787658517E+03 -0.64309272098E+01  0.22431600479E+03  0.12500000000E+03 0.  0.
</event>
<event>
 4    0  0.2270578E-002  0.2168455E+03  0.7546771E-02  0.1136257E+00
         21   -1    0    0  502  501  0.00000000000E+00  0.00000000000E+00  0.55481976435E+03  0.55481976435E+03  0.00000000000E+00 0.  1.
         21   -1    0    0  501  502 -0.00000000000E+00 -0.00000000000E+00 -0.84751829677E+02  0.84751829677E+02  0.00000000000E+00 0.  1.
         25    1    1    2    0    0 -0.58161633163E+02 -0.11509122772E+03  0.55819608888E+02  0.18806805951E+03  0.12500000000E+03 0.  0.
         25    1    1    2    0    0  0.58161633163E+02  0.11509122772E+03  0.41424832578E+03  0.45150353452E+03  0.12500000000E+03 0.  0.
</event>
<event>
 4    0  0.2270578E-002  0.1965871E+03  0.7546771E-02  0.1152651E+00
         21   -1    0    0  502  501  0.00000000000E+00  0.00000000000E+00  0.38965007951E+03  0.38965007951E+03  0.00000000000E+00 0. -1.
         21   -1    0    0  501  502 -0.00000000000E+00 -0.00000000000E+00 -0.99182567275E+02  0.99182567275E+02  0.00000000000E+00 0. -1.
         25    1    1    2    0    0  0.33944518164E+02  0.12153096285E+03  0.24999212432E+03  0.30666442159E+03  0.12500000000E+03 0.  0.
         25    1    1    2    0    0 -0.33944518164E+02 -0.12153096285E+03  0.40475387916E+02  0.18216822520E+03  0.12500000000E+03 0.  0.
</event>
<event>
 4    0  0.2270578E-002  0.2177907E+03  0.7546771E-02  0.1135541E+00
         21   -1    0    0  502  501  0.00000000000E+00  0.00000000000E+00  0.11065477658E+03  0.11065477658E+03  0.00000000000E+00 0. -1.
         21   -1    0    0  501  502 -0.00000000000E+00 -0.00000000000E+00 -0.42865562287E+03  0.42865562287E+03  0.00000000000E+00 0. -1.
         25    1    1    2    0    0  0.10538403955E+03 -0.11696487583E+02  0.18555760521E+02  0.16496035845E+03  0.12500000000E+03 0.  0.
         25    1    1    2    0    0 -0.10538403955E+03  0.11696487583E+02 -0.33655660681E+03  0.37435004100E+03  0.12500000000E+03 0.  0.
</event>
<event>
 4    0  0.2270578E-002  0.2324335E+03  0.7546771E-02  0.1124939E+00
         21   -1    0    0  502  501  0.00000000000E+00  0.00000000000E+00  0.51897552122E+03  0.51897552122E+03  0.00000000000E+00 0.  1.
         21   -1    0    0  501  502 -0.00000000000E+00 -0.00000000000E+00 -0.10409995710E+03  0.10409995710E+03  0.00000000000E+00 0.  1.
         25    1    1    2    0    0 -0.73773039174E+02  0.18065426136E+03  0.18338991757E+03  0.29552543938E+03  0.12500000000E+03 0.  0.
         25    1    1    2    0    0  0.73773039174E+02 -0.18065426136E+03  0.23148564655E+03  0.32755003894E+03  0.12500000000E+03 0.  0.
</event>
<event>
 4    0  0.2270578E-002  0.2725391E+03  0.7546771E-02  0.1099835E+00
         21   -1    0    0  502  501  0.00000000000E+00  0.00000000000E+00  0.28439646086E+03  0.28439646086E+03  0.00000000000E+00 0. -1.
         21   -1    0    0  501  502 -0.00000000000E+00 -0.00000000000E+00 -0.26117612540E+03  0.26117612540E+03  0.00000000000E+00 0. -1.
         25    1    1    2    0    0  0.20253500625E+03 -0.38761861890E+02  0.13872793397E+03  0.27819660378E+03  0.12500000000E+03 0.  0.
         25    1    1    2    0    0 -0.20253500625E+03  0.38761861890E+02 -0.11550759851E+03  0.26737598248E+03  0.12500000000E+03 0.  0.
</event>
<event>
 4    0  0.2270578E-002  0.2044210E+03  0.7546771E-02  0.1146062E+00
         21   -1    0    0  502  501  0.00000000000E+00  0.00000000000E+00  0.72299972717E+02  0.72299972717E+02  0.00000000000E+00 0. -1.
         21   -1    0    0  501  502 -0.00000000000E+00 -0.00000000000E+00 -0.57797981493E+03  0.57797981493E+03  0.00000000000E+00 0. -1.
         25    1    1    2    0    0 -0.63446726859E+02 -0.12062430385E+03 -0.11429645358E+03  0.21740374682E+03  0.12500000000E+03 0.  0.
         25    1    1    2    0    0  0.63446726859E+02  0.12062430385E+03 -0.39138338863E+03  0.43287604083E+03  0.12500000000E+03 0.  0.
</event>
<event>
 4    0  0.2270578E-002  0.1992473E+03  0.7546771E-02  0.1150376E+00
         21   -1    0    0  502  501  0.00000000000E+00  0.00000000000E+00  0.29962537671E+03  0.29962537671E+03  0.00000000000E+00 0.  1.
         21   -1    0    0  501  502 -0.00000000000E+00 -0.00000000000E+00 -0.13249703532E+03  0.13249703532E+03  0.00000000000E+00 0.  1.
         25    1    1    2    0    0 -0.33260376780E+02  0.14468422645E+03  0.34650056570E+02  0.19714310657E+03  0.12500000000E+03 0.  0.
         25    1    1    2    0    0  0.33260376780E+02 -0.14468422645E+03  0.13247828483E+03  0.23497930547E+03  0.12500000000E+03 0.  0.
</event>
<event>
 4    0  0.2270578E-002  0.2105419E+03  0.7546771E-02  0.1141138E+00
         21   -1    0    0  502  501  0.00000000000E+00  0.00000000000E+00  0.61887762109E+02  0.61887762109E+02  0.00000000000E+00 0. -1.
         21   -1    0    0  501  502 -0.00000000000E+00 -0.00000000000E+00 -0.71626291760E+03  0.71626291760E+03  0.00000000000E+00 0. -1.
         25    1    1    2    0    0 -0.13629660465E+03 -0.93039313335E+02 -0.25633938890E+03  0.32949652588E+03  0.12500000000E+03 0.  0.
         25    1    1    2    0    0  0.13629660465E+03  0.93039313335E+02 -0.39803576659E+03  0.44865415383E+03  0.12500000000E+03 0.  0.
</event>
<event>
 4    0  0.2270578E-002  0.1910093E+03  0.7546771E-02  0.1157554E+00
         21   -1    0    0  502  501  0.00000000000E+00  0.00000000000E+00  0.26635410666E+02  0.26635410666E+02  0.00000000000E+00 0. -1.
         21   -1    0    0  501  502 -0.00000000000E+00 -0.00000000000E+00 -0.13697764165E+04  0.13697764165E+04  0.00000000000E+00 0. -1.
         25    1    1    2    0    0  0.34851565827E+02 -0.14371840562E+02 -0.11812051793E+04  0.11883988627E+04  0.12500000000E+03 0.  0.
         25    1    1    2    0    0 -0.34851565827E+02  0.14371840562E+02 -0.16193582656E+03  0.20801296442E+03  0.12500000000E+03 0.  0.
</event>
<event>
 4    0  0.2270578E-002  0.1813498E+03  0.7546771E-02  0.1166503E+00
         21   -1    0    0  502  501  0.00000000000E+00  0.00000000000E+00  0.13467534376E+03  0.13467534376E+03  0.00000000000E+00 0.  1.
         21   -1    0    0  501  502 -0.00000000000E+00 -0.00000000000E+00 -0.24420015379E+03  0.24420015379E+03  0.00000000000E+00 0.  1.
         25    1    1    2    0    0  0.40732231898E+02  0.68075476515E+02 -0.16416812938E+03  0.22106460576E+03  0.12500000000E+03 0.  0.
         25    1    1    2    0    0 -0.40732231898E+02 -0.68075476515E+02  0.54643319351E+02  0.15781089179E+03  0.12500000000E+03 0.  0.
</event>
<event>
 4    0  0.2270578E-002  0.2063865E+03  0.7546771E-02  0.1144460E+00
         21   -1    0    0  502  501  0.00000000000E+00  0.00000000000E+00  0.98847405552E+02  0.98847405552E+02  0.00000000000E+00 0. -1.
         21   -1    0    0  501  502 -0.00000000000E+00 -0.00000000000E+00 -0.43092072580E+03  0.43092072580E+03  0.00000000000E+00 0. -1.
         25    1    1    2    0    0 -0.47835171014E+02  0.14339006988E+03 -0.24843170684E+03  0.31653156034E+03  0.12500000000E+03 0.  0.
         25    1    1    2    0    0  0.47835171014E+02 -0.14339006988E+03 -0.83641613407E+02  0.21323657102E+03  0.12500000000E+03 0.  0.
</event>
<event>
 4    0  0.2270578E-002  0.3170777E+03  0.7546771E-02  0.1077002E+00
         21   -1    0    0  502  501  0.00000000000E+00  0.00000000000E+00  0.11939442888E+03  0.11939442888E+03  0.00000000000E+00 0. -1.
         21   -1    0    0  501  502 -0.00000000000E+00 -0.00000000000E+00 -0.84206815125E+03  0.84206815125E+03  0.00000000000E+00 0. -1.
         25    1    1    2    0    0 -0.25015744703E+03 -0.38819839346E+02 -0.58014098116E+03  0.64519321622E+03  0.12500000000E+03 0.  0.
         25    1    1    2    0    0  0.25015744703E+03  0.38819839346E+02 -0.14253274121E+03  0.31626936392E+03  0.12500000000E+03 0.  0.
</event>
<event>
 4    0  0.2270578E-002  0.2030494E+03  0.7546771E-02  0.1147191E+00
         21   -1    0    0  502  501  0.00000000000E+00  0.00000000000E+00  0.17664822600E+03  0.17664822600E+03  0.00000000000E+00 0. -1.
         21   -1    0    0  501  502 -0.00000000000E+00 -0.00000000000E+00 -0.23339642380E+03  0.23339642380E+03  0.00000000000E+00 0. -1.
         25    1    1    2    0    0 -0.94231902744E+02  0.30923540652E+02 -0.15516548514E+03  0.22256963998E+03  0.12500000000E+03 0.  0.
         25    1    1    2    0    0  0.94231902744E+02 -0.30923540652E+02  0.98417287336E+02  0.18747500982E+03  0.12500000000E+03 0.  0.
</event>
<event>
 4    0  0.2270578E-002  0.1754997E+03  0.7546771E-02  0.1172231E+00
         21   -1    0    0  502  501  0.00000000000E+00  0.00000000000E+00  0.70428417325E+02  0.70428417325E+02  0.00000000000E+00 0. -1.
         21   -1    0    0  501  502 -0.00000000000E+00 -0.00000000000E+00 -0.43732548467E+03  0.43732548467E+03  0.00000000000E+00 0. -1.
         25    1    1    2    0    0  0.97847824636E+01 -0.27941070225E+02 -0.10468834155E+02  0.12888383088E+03  0.12500000000E+03 0.  0.
         25    1    1    2    0    0 -0.97847824636E+01  0.27941070225E+02 -0.35642823319E+03  0.37887007112E+03  0.12500000000E+03 0.  0.
</event>
<event>
 4    0  0.2270578E-002  0.2877600E+03  0.7546771E-02  0.1091524E+00
         21   -1    0    0  502  501  0.00000000000E+00  0.00000000000E+00  0.59587355259E+02  0.59587355259E+02  0.00000000000E+00 0.  1.
         21   -1    0    0  501  502 -0.00000000000E+00 -0.00000000000E+00 -0.13896545813E+04  0.13896545813E+04  0.00000000000E+00 0.  1.
         25    1    1    2    0    0  0.18766241880E+03 -0.13689504155E+03 -0.95460261303E+03  0.99037800088E+03  0.12500000000E+03 0.  0.
         25    1    1    2    0    0 -0.18766241880E+03  0.13689504155E+03 -0.37546461297E+03  0.45886393563E+03  0.12500000000E+03 0.  0.
</event>
<event>
 4    0  0.2270578E-002  0.3449470E+03  0.7546771E-02  0.1064708E+00
         21   -1    0    0  502  501  0.00000000000E+00  0.00000000000E+00  0.92127764970E+02  0.92127764970E+02  0.00000000000E+00 0.  1.
         21   -1    0    0  501  502 -0.00000000000E+00 -0.00000000000E+00 -0.12915587400E+04  0.12915587400E+04  0.00000000000E+00 0.  1.
         25    1    1    2    0    0  0.14434788477E+03  0.27361178035E+03 -0.77529533251E+03  0.84404239870E+03  0.12500000000E+03 0.  0.
         25    1    1    2    0    0 -0.14434788477E+03 -0.27361178035E+03 -0.42413564254E+03  0.53964410630E+03  0.12500000000E+03 0.  0.
</event>
<event>
 4    0  0.2270578E-002  0.1979808E+03  0.7546771E-02  0.1151454E+00
         21   -1    0    0  502  501  0.00000000000E+00  0.00000000000E+00  0.73693202752E+03  0.73693202752E+03  0.00000000000E+00 0.  1.
         21   -1    0    0  501  502 -0.00000000000E+00 -0.00000000000E+00 -0.53188637155E+02  0.53188637155E+02  0.00000000000E+00 0.  1.
         25    1    1    2    0    0  0.12700706476E+03 -0.22608269840E+02  0.17576365334E+03  0.25131611607E+03  0.12500000000E+03 0.  0.
         25    1    1    2    0    0 -0.12700706476E+03  0.22608269840E+02  0.50797973703E+03  0.53880454861E+03  0.12500000000E+03 0.  0.
</event>
<event>
 4    0  0.2270578E-002  0.1950288E+03  0.7546771E-02  0.1154002E+00
         21   -1    0    0  502  501  0.00000000000E+00  0.00000000000E+00  0.23420731597E+02  0.23420731597E+02  0.00000000000E+00 0.  1.
         21   -1    0    0  501  502 -0.00000000000E+00 -0.00000000000E+00 -0.16240410250E+04  0.16240410250E+04  0.00000000000E+00 0.  1.
         25    1    1    2    0    0  0.13028100416E+03  0.91207605808E+01 -0.49123624981E+03  0.52344472626E+03  0.12500000000E+03 0.  0.
         25    1    1    2    0    0 -0.13028100416E+03 -0.91207605808E+01 -0.11093840436E+04  0.11240170303E+04  0.12500000000E+03 0.  0.
</event>
<event>
 4    0  0.2270578E-002  0.2754420E+03  0.7546771E-02  0.1098205E+00
         21   -1    0    0  502  501  0.00000000000E+00  0.00000000000E+00  0.40368027980E+03  0.40368027980E+03  0.00000000000E+00 0. -1.
         21   -1    0    0  501  502 -0.00000000000E+00 -0.00000000000E+00 -0.18794153765E+03  0.18794153765E+03  0.00000000000E+00 0. -1.
         25    1    1    2    0    0  0.14259484356E+03 -0.17658901849E+03  0.75465724244E+01  0.25922754795E+03  0.12500000000E+03 0.  0.
         25    1    1    2    0    0 -0.14259484356E+03  0.17658901849E+03  0.20819216973E+03  0.33239426950E+03  0.12500000000E+03 0.  0.
</event>
<event>
 4    0  0.2270578E-002  0.2671656E+03  0.7546771E-02  0.1102913E+00
         21   -1    0    0  502  501  0.00000000000E+00  0.00000000000E+00  0.36242530114E+02  0.36242530114E+02  0.00000000000E+00 0.  1.
         21   -1    0    0  501  502 -0.00000000000E+00 -0.00000000000E+00 -0.19694393019E+04  0.19694393019E+04  0.00000000000E+00 0.  1.
         25    1    1    2    0    0  0.26211524182E+02  0.69312551994E+02 -0.12507174162E+03  0.19172692669E+03  0.12500000000E+03 0.  0.
         25    1    1    2    0    0 -0.26211524182E+02 -0.69312551994E+02 -0.18081250302E+04  0.18139549054E+04  0.12500000000E+03 0.  0.
</event>
<event>
 4    0  0.2270578E-002  0.2230145E+03  0.7546771E-02  0.1131655E+00
         21   -1    0    0  502  501  0.00000000000E+00  0.00000000000E+00  0.21214504210E+03  0.21214504210E+03  0.00000000000E+00 0. -1.
         21   -1    0    0  501  502 -0.00000000000E+00 -0.00000000000E+00 -0.23444076867E+03  0.23444076867E+03  0.00000000000E+00 0. -1.
         25    1    1    2    0    0 -0.32126047740E+02 -0.39296653561E+02  0.16665239467E+03  0.21441625538E+03  0.12500000000E+03 0.  0.
         25    1    1    2    0    0  0.32126047740E+02  0.39296653561E+02 -0.18894812124E+03  0.23216955538E+03  0.12500000000E+03 0.  0.
</event>
<event>
 4    0  0.2270578E-002  0.1660628E+03  0.7546771E-02  0.1182017E+00
         21   -1    0    0  502  501  0.00000000000E+00  0.00000000000E+00  0.11666527363E+04  0.11666527363E+04  0.00000000000E+00 0.  1.
         21   -1    0    0  501  502 -0.00000000000E+00 -0.00000000000E+00 -0.23637588455E+02  0.23637588455E+02  0.00000000000E+00 0.  1.
         25    1    1    2    0    0  0.58663642714E+02 -0.12805873931E+02  0.24409054690E+03  0.28073227187E+03  0.12500000000E+03 0.  0.
         25    1    1    2    0    0 -0.58663642714E+02  0.12805873931E+02  0.89892460095E+03  0.90955805289E+03  0.12500000000E+03 0.  0.
</event>
<event>
 4    0  0.2270578E-002  0.1970957E+03  0.7546771E-02  0.1152213E+00
         21   -1    0    0  502  501  0.00000000000E+00  0.00000000000E+00  0.60886117410E+03  0.60886117410E+03  0.00000000000E+00 0.  1.
         21   -1    0    0  501  502 -0.00000000000E+00 -0.00000000000E+00 -0.63802237981E+02  0.63802237981E+02  0.00000000000E+00 0.  1.
         25    1    1    2    0    0  0.10326747184E+03 -0.52735297138E+02  0.10380311032E+03  0.19961279522E+03  0.12500000000E+03 0.  0.
         25    1    1    2    0    0 -0.10326747184E+03  0.52735297138E+02  0.44125582580E+03  0.47305061686E+03  0.12500000000E+03 0.  0.
</event>
<event>
 4    0  0.2270578E-002  0.3036157E+03  0.7546771E-02  0.1083447E+00
         21   -1    0    0  502  501  0.00000000000E+00  0.00000000000E+00  0.10300334042E+03  0.10300334042E+03  0.00000000000E+00 0.  1.
         21   -1    0    0  501  502 -0.00000000000E+00 -0.00000000000E+00 -0.89494644140E+03  0.89494644140E+03  0.00000000000E+00 0.  1.
         25    1    1    2    0    0 -0.20016212177E+01 -0.21824979333E+03 -0.67545582024E+03  0.72076524879E+03  0.12500000000E+03 0.  0.
         25    1    1    2    0    0  0.20016212177E+01  0.21824979333E+03 -0.11648728075E+03  0.27718453303E+03  0.12500000000E+03 0.  0.
</event>
<event>
 4    0  0.2270578E-002  0.1560546E+03  0.7546771E-02  0.1193224E+00
         21   -1    0    0  502  501  0.00000000000E+00  0.00000000000E+00  0.15353874233E+03  0.15353874233E+03  0.00000000000E+00 0. -1.
         21   -1    0    0  501  502 -0.00000000000E+00 -0.00000000000E+00 -0.15861164407E+03  0.15861164407E+03  0.00000000000E+00 0. -1.
         25    1    1    2    0    0  0.79587650788E+02  0.48925817987E+02 -0.22162111170E+01  0.15606998884E+03  0.12500000000E+03 0.  0.
         25    1    1    2    0    0 -0.79587650788E+02 -0.48925817987E+02 -0.28566906214E+01  0.15608039757E+03  0.12500000000E+03 0.  0.
</event>
<event>
 4    0  0.2270578E-002  0.2464260E+03  0.7546771E-02  0.1115585E+00
         21   -1    0    0  502  501  0.00000000000E+00  0.00000000000E+00  0.16882319936E+03  0.16882319936E+03  0.00000000000E+00 0. -1.
         21   -1    0    0  501  502 -0.00000000000E+00 -0.00000000000E+00 -0.35970045411E+03  0.35970045411E+03  0.00000000000E+00 0. -1.
         25    1    1    2    0    0  0.19847567929E+03 -0.28087624954E+02 -0.20224698691E+02  0.23709818300E+03  0.12500000000E+03 0.  0.
         25    1    1    2    0    0 -0.19847567929E+03  0.28087624954E+02 -0.17065255607E+03  0.29142547047E+03  0.12500000000E+03 0.  0.
</event>
<event>
 4    0  0.2270578E-002  0.2031613E+03  0.7546771E-02  0.1147099E+00
         21   -1    0    0  502  501  0.00000000000E+00  0.00000000000E+00  0.10241024171E+03  0.10241024171E+03  0.00000000000E+00 0.  1.
         21   -1    0    0  501  502 -0.00000000000E+00 -0.00000000000E+00 -0.40303121253E+03  0.40303121253E+03  0.00000000000E+00 0.  1.
         25    1    1    2    0    0 -0.54663359433E+02  0.13031891366E+02 -0.33686686564E+03  0.36367870191E+03  0.12500000000E+03 0.  0.
         25    1    1    2    0    0  0.54663359433E+02 -0.13031891366E+02  0.36245894824E+02  0.14176275233E+03  0.12500000000E+03 0.  0.
</event>
<event>
 4    0  0.2270578E-002  0.4418190E+03  0.7546771E-02  0.1030190E+00
         21   -1    0    0  502  501  0.00000000000E+00  0.00000000000E+00  0.42664195226E+03  0.42664195226E+03  0.00000000000E+00 0.  1.
         21   -1    0    0  501  502 -0.00000000000E+00 -0.00000000000E+00 -0.45753602272E+03  0.45753602272E+03  0.00000000000E+00 0.  1.
         25    1    1    2    0    0  0.19648409358E+03  0.34348940563E+03 -0.16715791494E+03  0.44738991868E+03  0.12500000000E+03 0.  0.
         25    1    1    2    0    0 -0.19648409358E+03 -0.34348940563E+03  0.13626384449E+03  0.43678805630E+03  0.12500000000E+03 0.  0.
</event>
<event>
 4    0  0.2270578E-002  0.3673184E+03  0.7546771E-02  0.1055723E+00
         21   -1    0    0  502  501  0.00000000000E+00  0.00000000000E+00  0.26516257932E+03  0.26516257932E+03  0.00000000000E+00 0. -1.
         21   -1    0    0  501  502 -0.00000000000E+00 -0.00000000000E+00 -0.50883062116E+03  0.50883062116E+03  0.00000000000E+00 0. -1.
         25    1    1    2    0    0 -0.15445698837E+03  0.26038880783E+03 -0.29698881157E+03  0.44213871884E+03  0.12500000000E+03 0.  0.
         25    1    1    2    0    0  0.15445698837E+03 -0.26038880783E+03  0.53320769732E+02  0.33185448164E+03  0.12500000000E+03 0.  0.
</event>
<event>
 4    0  0.2270578E-002  0.2606003E+03  0.7546771E-02  0.1106783E+00
         21   -1    0    0  502  501  0.00000000000E+00  0.00000000000E+00  0.27520199026E+02  0.27520199026E+02  0.00000000000E+00 0. -1.
         21   -1    0    0  501  502 -0.00000000000E+00 -0.00000000000E+00 -0.24677335960E+04  0.24677335960E+04  0.00000000000E+00 0. -1.
         25    1    1    2    0    0  0.17631926116E+01  0.21885396945E+03 -0.15372174691E+04  0.15577428273E+04  0.12500000000E+03 0.  0.
         25    1    1    2    0    0 -0.17631926116E+01 -0.21885396945E+03 -0.90299592790E+03  0.93751096772E+03  0.12500000000E+03 0.  0.
</event>
<event>
 4    0  0.2270578E-002  0.3089194E+03  0.7546771E-02  0.1080865E+00
         21   -1    0    0  502  501  0.00000000000E+00  0.00000000000E+00  0.10647594032E+04  0.10647594032E+04  0.00000000000E+00 0. -1.
         21   -1    0    0  501  502 -0.00000000000E+00 -0.00000000000E+00 -0.89626988761E+02  0.89626988761E+02  0.00000000000E+00 0. -1.
         25    1    1    2    0    0  0.25988434395E+03  0.33096539461E+02  0.29008733253E+03  0.41037898783E+03  0.12500000000E+03 0.  0.
         25    1    1    2    0    0 -0.25988434395E+03 -0.33096539461E+02  0.68504508192E+03  0.74400740414E+03  0.12500000000E+03 0.  0.
</event>
<event>
 4    0  0.2270578E-002  0.4014487E+03  0.7546771E-02  0.1043279E+00
         21   -1    0    0  502  501  0.00000000000E+00  0.00000000000E+00  0.21637430771E+03  0.21637430771E+03  0.00000000000E+00 0. -1.
         21   -1    0    0  501  502 -0.00000000000E+00 -0.00000000000E+00 -0.74482532045E+03  0.74482532045E+03  0.00000000000E+00 0. -1.
         25    1    1    2    0    0 -0.36716020469E+03 -0.80589983195E+02 -0.34213043829E+03  0.52343060486E+03  0.12500000000E+03 0.  0.
         25    1    1    2    0    0  0.36716020469E+03  0.80589983195E+02 -0.18632057446E+03  0.43776902331E+03  0.12500000000E+03 0.  0.
</event>
<event>
 4    0  0.2270578E-002  0.1637120E+03  0.7546771E-02  0.1184569E+00
         21   -1    0    0  502  501  0.00000000000E+00  0.00000000000E+00  0.18856491219E+03  0.18856491219E+03  0.00000000000E+00 0.  1.
         21   -1    0    0  501  502 -0.00000000000E+00 -0.00000000000E+00 -0.14213476104E+03  0.14213476104E+03  0.00000000000E+00 0.  1.
         25    1    1    2    0    0  0.79447011708E+02 -0.40737342219E+02 -0.33966416970E+02  0.15732156941E+03  0.12500000000E+03 0.  0.
         25    1    1    2    0    0 -0.79447011708E+02  0.40737342219E+02  0.80396568118E+02  0.17337810382E+03  0.12500000000E+03 0.  0.
</event>
<event>
 4    0  0.2270578E-002  0.2240145E+03  0.7546771E-02  0.1130925E+00
         21   -1    0    0  502  501  0.00000000000E+00  0.00000000000E+00  0.21211133078E+03  0.21211133078E+03  0.00000000000E+00 0. -1.
         21   -1    0    0  501  502 -0.00000000000E+00 -0.00000000000E+00 -0.23658570934E+03  0.23658570934E+03  0.00000000000E+00 0. -1.
         25    1    1    2    0    0 -0.20262199830E+02  0.18228711400E+03 -0.42586842447E+02  0.22600395532E+03  0.12500000000E+03 0.  0.
         25    1    1    2    0    0  0.20262199830E+02 -0.18228711400E+03  0.18112463889E+02  0.22269308480E+03  0.12500000000E+03 0.  0.
</event>
<event>
 4    0  0.2270578E-002  0.1674108E+03  0.7546771E-02  0.1180575E+00
         21   -1    0    0  502  501  0.00000000000E+00  0.00000000000E+00  0.12236983543E+03  0.12236983543E+03  0.00000000000E+00 0. -1.
         21   -1    0    0  501  502 -0.00000000000E+00 -0.00000000000E+00 -0.22903000587E+03  0.22903000587E+03  0.00000000000E+00 0. -1.
         25    1    1    2    0    0 -0.75412520564E+02 -0.81816376684E+02 -0.58069936200E+02  0.17713860461E+03  0.12500000000E+03 0.  0.
         25    1    1    2    0    0  0.75412520564E+02  0.81816376684E+02 -0.48590234232E+02  0.17426123669E+03  0.12500000000E+03 0.  0.
</event>
<event>
 4    0  0.2270578E-002  0.2276036E+03  0.7546771E-02  0.1128338E+00
         21   -1    0    0  502  501  0.00000000000E+00  0.00000000000E+00  0.38137298692E+03  0.38137298692E+03  0.00000000000E+00 0.  1.
         21   -1    0    0  501  502 -0.00000000000E+00 -0.00000000000E+00 -0.13583397303E+03  0.13583397303E+03  0.00000000000E+00 0.  1.
         25    1    1    2    0    0 -0.91035316109E+02 -0.14523217352E+03  0.21645336872E+03  0.30307898943E+03  0.12500000000E+03 0.  0.
         25    1    1    2    0    0  0.91035316109E+02  0.14523217352E+03  0.29085645178E+02  0.21412797052E+03  0.12500000000E+03 0.  0.
</event>
<event>
 4    0  0.2270578E-002  0.2036881E+03  0.7546771E-02  0.1146664E+00
         21   -1    0    0  502  501  0.00000000000E+00  0.00000000000E+00  0.30445041794E+03  0.30445041794E+03  0.00000000000E+00 0. -1.
         21   -1    0    0  501  502 -0.00000000000E+00 -0.00000000000E+00 -0.13627456562E+03  0.13627456562E+03  0.00000000000E+00 0. -1.
         25    1    1    2    0    0  0.32219492812E+02  0.12890340148E+02  0.25397679565E+03  0.28519023355E+03  0.12500000000E+03 0.  0.
         25    1    1    2    0    0 -0.32219492812E+02 -0.12890340148E+02 -0.85800943322E+02  0.15553475001E+03  0.12500000000E+03 0.  0.
</event>
<event>
 4    0  0.2270578E-002  0.2126629E+03  0.7546771E-02  0.1139474E+00
         21   -1    0    0  502  501  0.00000000000E+00  0.00000000000E+00  0.41493799690E+03  0.41493799690E+03  0.00000000000E+00 0.  1.
         21   -1    0    0  501  502 -0.00000000000E+00 -0.00000000000E+00 -0.10899341926E+03  0.10899341926E+03  0.00000000000E+00 0.  1.
         25    1    1    2    0    0  0.33004940133E+02  0.14291090265E+03  0.26375299169E+03  0.32665500577E+03  0.12500000000E+03 0.  0.
         25    1    1    2    0    0 -0.33004940133E+02 -0.14291090265E+03  0.42191585947E+02  0.19727641039E+03  0.12500000000E+03 0.  0.
</event>
<event>
 4    0  0.2270578E-002  0.3070003E+03  0.7546771E-02  0.1081793E+00
         21   -1    0    0  502  501  0.00000000000E+00  0.00000000000E+00  0.21743625096E+03  0.21743625096E+03  0.00000000000E+00 0.  1.
         21   -1    0    0  501  502 -0.00000000000E+00 -0.00000000000E+00 -0.43345668956E+03  0.43345668956E+03  0.00000000000E+00 0.  1.
         25    1    1    2    0    0 -0.54820049985E+01 -0.14642534143E+03 -0.36144321413E+03  0.40955662616E+03  0.12500000000E+03 0.  0.
         25    1    1    2    0    0  0.54820049985E+01  0.14642534143E+03  0.14542277552E+03  0.24133631436E+03  0.12500000000E+03 0.  0.
</event>
<event>
 4    0  0.2270578E-002  0.1857408E+03  0.7546771E-02  0.1162360E+00
         21   -1    0    0  502  501  0.00000000000E+00  0.00000000000E+00  0.13448088502E+03  0.13448088502E+03  0.00000000000E+00 0. -1.
         21   -1    0    0  501  502 -0.00000000000E+00 -0.00000000000E+00 -0.25653946089E+03  0.25653946089E+03  0.00000000000E+00 0. -1.
         25    1    1    2    0    0  0.11447183003E+03  0.58769016157E+02 -0.10361690152E+02  0.17969407824E+03  0.12500000000E+03 0.  0.
         25    1    1    2    0    0 -0.11447183003E+03 -0.58769016157E+02 -0.11169688572E+03  0.21132626768E+03  0.12500000000E+03 0.  0.
</event>
<event>
 4    0  0.2270578E-002  0.2086137E+03  0.7546771E-02  0.1142669E+00
         21   -1    0    0  502  501  0.00000000000E+00  0.00000000000E+00  0.61347913074E+02  0.61347913074E+02  0.00000000000E+00 0.  1.
         21   -1    0    0  501  502 -0.00000000000E+00 -0.00000000000E+00 -0.70939109633E+03  0.70939109633E+03  0.00000000000E+00 0.  1.
         25    1    1    2    0    0 -0.11836438553E+03 -0.11119700685E+03 -0.39603647478E+03  0.44592016265E+03  0.12500000000E+03 0.  0.
         25    1    1    2    0    0  0.11836438553E+03  0.11119700685E+03 -0.25200670848E+03  0.32481884676E+03  0.12500000000E+03 0.  0.
</event>
<event>
 4    0  0.2270578E-002  0.2605859E+03  0.7546771E-02  0.1106792E+00
         21   -1    0    0  502  501  0.00000000000E+00  0.00000000000E+00  0.16119531752E+03  0.16119531752E+03  0.00000000000E+00 0. -1.
         21   -1    0    0  501  502 -0.00000000000E+00 -0.00000000000E+00 -0.42125916323E+03  0.42125916323E+03  0.00000000000E+00 0.  1.
         25    1    1    2    0    0  0.10520752510E+01  0.20716672623E+03 -0.21903806722E+02  0.24294842265E+03  0.12500000000E+03 0.  0.
         25    1    1    2    0    0 -0.10520752510E+01 -0.20716672623E+03 -0.23816003899E+03  0.33950605811E+03  0.12500000000E+03 0.  0.
</event>
<event>
 4    0  0.2270578E-002  0.2109292E+03  0.7546771E-02  0.1140832E+00
         21   -1    0    0  502  501  0.00000000000E+00  0.00000000000E+00  0.10868218070E+03  0.10868218070E+03  0.00000000000E+00 0.  1.
         21   -1    0    0  501  502 -0.00000000000E+00 -0.00000000000E+00 -0.40936925817E+03  0.40936925817E+03  0.00000000000E+00 0.  1.
         25    1    1    2    0    0 -0.26258571020E+02 -0.16775426941E+03 -0.14306433801E+03  0.25480073051E+03  0.12500000000E+03 0.  0.
         25    1    1    2    0    0  0.26258571020E+02  0.16775426941E+03 -0.15762273946E+03  0.26325070836E+03  0.12500000000E+03 0.  0.
</event>
<event>
 4    0  0.2270578E-002  0.1858467E+03  0.7546771E-02  0.1162262E+00
         21   -1    0    0  502  501  0.00000000000E+00  0.00000000000E+00  0.19422131332E+03  0.19422131332E+03  0.00000000000E+00 0.  1.
         21   -1    0    0  501  502 -0.00000000000E+00 -0.00000000000E+00 -0.17783322491E+03  0.17783322491E+03  0.00000000000E+00 0.  1.
         25    1    1    2    0    0  0.13694699736E+02  0.63116834986E+02  0.12973161891E+03  0.19138070071E+03  0.12500000000E+03 0.  0.
         25    1    1    2    0    0 -0.13694699736E+02 -0.63116834986E+02 -0.11334353049E+03  0.18067383752E+03  0.12500000000E+03 0.  0.
</event>
<event>
 4    0  0.2270578E-002  0.1692428E+03  0.7546771E-02  0.1178640E+00
         21   -1    0    0  502  501  0.00000000000E+00  0.00000000000E+00  0.31006521791E+02  0.31006521791E+02  0.00000000000E+00 0.  1.
         21   -1    0    0  501  502 -0.00000000000E+00 -0.00000000000E+00 -0.92377769913E+03  0.92377769913E+03  0.00000000000E+00 0.  1.
         25    1    1    2    0    0 -0.80791838372E+02  0.58259512456E+02 -0.28941783829E+03  0.33061938397E+03  0.12500000000E+03 0.  0.
         25    1    1    2    0    0  0.80791838372E+02 -0.58259512456E+02 -0.60335333906E+03  0.62416483695E+03  0.12500000000E+03 0.  0.
</event>
<event>
 4    0  0.2270578E-002  0.2327240E+03  0.7546771E-02  0.1124737E+00
         21   -1    0    0  502  501  0.00000000000E+00  0.00000000000E+00  0.12019791347E+04  0.12019791347E+04  0.00000000000E+00 0.  1.
         21   -1    0    0  501  502 -0.00000000000E+00 -0.00000000000E+00 -0.45059406753E+02  0.45059406753E+02  0.00000000000E+00 0.  1.
         25    1    1    2    0    0 -0.11278371685E+03  0.55240420745E+02  0.17422755477E+03  0.24849931934E+03  0.12500000000E+03 0.  0.
         25    1    1    2    0    0  0.11278371685E+03 -0.55240420745E+02  0.98269217317E+03  0.99853922210E+03  0.12500000000E+03 0.  0.
</event>
<event>
 4    0  0.2270578E-002  0.2076656E+03  0.7546771E-02  0.1143428E+00
         21   -1    0    0  502  501  0.00000000000E+00  0.00000000000E+00  0.81406772961E+02  0.81406772961E+02  0.00000000000E+00 0.  1.
         21   -1    0    0  501  502 -0.00000000000E+00 -0.00000000000E+00 -0.52974732919E+03  0.52974732919E+03  0.00000000000E+00 0.  1.
         25    1    1    2    0    0 -0.15537910821E+03 -0.33963949944E+02 -0.15509184127E+03  0.25490134639E+03  0.12500000000E+03 0.  0.
         25    1    1    2    0    0  0.15537910821E+03  0.33963949944E+02 -0.29324871496E+03  0.35625275576E+03  0.12500000000E+03 0.  0.
</event>
<event>
 4    0  0.2270578E-002  0.2083775E+03  0.7546771E-02  0.1142857E+00
         21   -1    0    0  502  501  0.00000000000E+00  0.00000000000E+00  0.17751027013E+03  0.17751027013E+03  0.00000000000E+00 0.  1.
         21   -1    0    0  501  502 -0.00000000000E+00 -0.00000000000E+00 -0.24461231404E+03  0.24461231404E+03  0.00000000000E+00 0.  1.
         25    1    1    2    0    0  0.11157684747E+03 -0.11762145559E+03  0.58342033241E+01  0.20480048251E+03  0.12500000000E+03 0.  0.
         25    1    1    2    0    0 -0.11157684747E+03  0.11762145559E+03 -0.72936247233E+02  0.21732210165E+03  0.12500000000E+03 0.  0.
</event>
<event>
 4    0  0.2270578E-002  0.2704838E+03  0.7546771E-02  0.1101003E+00
         21   -1    0    0  502  501  0.00000000000E+00  0.00000000000E+00  0.37354362000E+03  0.37354362000E+03  0.00000000000E+00 0.  1.
         21   -1    0    0  501  502 -0.00000000000E+00 -0.00000000000E+00 -0.19585799445E+03  0.19585799445E+03  0.00000000000E+00 0.  1.
         25    1    1    2    0    0  0.19981767478E+03 -0.13268945492E+03  0.87047384294E+02  0.28414053162E+03  0.12500000000E+03 0.  0.
         25    1    1    2    0    0 -0.19981767478E+03  0.13268945492E+03  0.90638241257E+02  0.28526108283E+03  0.12500000000E+03 0.  0.
</event>
<event>
 4    0  0.2270578E-002  0.2713215E+03  0.7546771E-02  0.1100526E+00
         21   -1    0    0  502  501  0.00000000000E+00  0.00000000000E+00  0.24669192441E+03  0.24669192441E+03  0.00000000000E+00 0.  1.
         21   -1    0    0  501  502 -0.00000000000E+00 -0.00000000000E+00 -0.29841007982E+03  0.29841007982E+03  0.00000000000E+00 0.  1.
         25    1    1    2    0    0  0.21106372656E+03 -0.59531758079E+02 -0.12580077706E+03  0.28203326470E+03  0.12500000000E+03 0.  0.
         25    1    1    2    0    0 -0.21106372656E+03  0.59531758079E+02  0.74082621654E+02  0.26306873953E+03  0.12500000000E+03 0.  0.
</event>
<event>
 4    0  0.2270578E-002  0.1729077E+03  0.7546771E-02  0.1174849E+00
         21   -1    0    0  502  501  0.00000000000E+00  0.00000000000E+00  0.30696294325E+04  0.30696294325E+04  0.00000000000E+00 0. -1.
         21   -1    0    0  501  502 -0.00000000000E+00 -0.00000000000E+00 -0.97396387831E+01  0.97396387831E+01  0.00000000000E+00 0. -1.
         25    1    1    2    0    0  0.71779702883E+02 -0.87081365432E+02  0.11808876814E+04  0.11928353642E+04  0.12500000000E+03 0.  0.
         25    1    1    2    0    0 -0.71779702883E+02  0.87081365432E+02  0.18790021123E+04  0.18865337071E+04  0.12500000000E+03 0.  0.
</event>
<event>
 4    0  0.2270578E-002  0.4547456E+03  0.7546771E-02  0.1026316E+00
         21   -1    0    0  502  501  0.00000000000E+00  0.00000000000E+00  0.81608762822E+03  0.81608762822E+03  0.00000000000E+00 0.  1.
         21   -1    0    0  501  502 -0.00000000000E+00 -0.00000000000E+00 -0.25339626500E+03  0.25339626500E+03  0.00000000000E+00 0.  1.
         25    1    1    2    0    0  0.18238782852E+03 -0.32398001146E+03  0.10782625930E+02  0.39238964415E+03  0.12500000000E+03 0.  0.
         25    1    1    2    0    0 -0.18238782852E+03  0.32398001146E+03  0.55190873730E+03  0.67709424907E+03  0.12500000000E+03 0.  0.
</event>
<event>
 4    0  0.2270578E-002  0.2698632E+03  0.7546771E-02  0.1101358E+00
         21   -1    0    0  502  501  0.00000000000E+00  0.00000000000E+00  0.48776072538E+02  0.48776072538E+02  0.00000000000E+00 0.  1.
         21   -1    0    0  501  502 -0.00000000000E+00 -0.00000000000E+00 -0.14930710657E+04  0.14930710657E+04  0.00000000000E+00 0.  1.
         25    1    1    2    0    0  0.18568297662E+03 -0.12750158653E+03 -0.49242883676E+03  0.55573913093E+03  0.12500000000E+03 0.  0.
         25    1    1    2    0    0 -0.18568297662E+03  0.12750158653E+03 -0.95186615637E+03  0.98610800728E+03  0.12500000000E+03 0.  0.
</event>
<event>
 4    0  0.2270578E-002  0.2131183E+03  0.7546771E-02  0.1139120E+00
         21   -1    0    0  502  501  0.00000000000E+00  0.00000000000E+00  0.21811243303E+03  0.21811243303E+03  0.00000000000E+00 0. -1.
         21   -1    0    0  501  502 -0.00000000000E+00 -0.00000000000E+00 -0.20823861024E+03  0.20823861024E+03  0.00000000000E+00 0. -1.
         25    1    1    2    0    0 -0.83038959380E+02 -0.27571446780E+02 -0.14389405530E+03  0.20972875960E+03  0.12500000000E+03 0.  0.
         25    1    1    2    0    0  0.83038959380E+02  0.27571446780E+02  0.15376787809E+03  0.21662228367E+03  0.12500000000E+03 0.  0.
</event>
<event>
 4    0  0.2270578E-002  0.2396459E+03  0.7546771E-02  0.1120029E+00
         21   -1    0    0  502  501  0.00000000000E+00  0.00000000000E+00  0.83073079342E+03  0.83073079342E+03  0.00000000000E+00 0.  1.
         21   -1    0    0  501  502 -0.00000000000E+00 -0.00000000000E+00 -0.69132085504E+02  0.69132085504E+02  0.00000000000E+00 0.  1.
         25    1    1    2    0    0  0.29181240152E+02  0.65533282353E+02  0.21326050514E+02  0.14569130483E+03  0.12500000000E+03 0.  0.
         25    1    1    2    0    0 -0.29181240152E+02 -0.65533282353E+02  0.74027265740E+03  0.75417157409E+03  0.12500000000E+03 0.  0.
</event>
<event>
 4    0  0.2270578E-002  0.2394378E+03  0.7546771E-02  0.1120168E+00
         21   -1    0    0  502  501  0.00000000000E+00  0.00000000000E+00  0.13442617989E+04  0.13442617989E+04  0.00000000000E+00 0.  1.
         21   -1    0    0  501  502 -0.00000000000E+00 -0.00000000000E+00 -0.42648271254E+02  0.42648271254E+02  0.00000000000E+00 0.  1.
         25    1    1    2    0    0  0.68639778649E+02 -0.13623137550E+03  0.10440376700E+04  0.10625017945E+04  0.12500000000E+03 0.  0.
         25    1    1    2    0    0 -0.68639778649E+02  0.13623137550E+03  0.25757585763E+03  0.32440827566E+03  0.12500000000E+03 0.  0.
</event>
<event>
 4    0  0.2270578E-002  0.2030605E+03  0.7546771E-02  0.1147182E+00
         21   -1    0    0  502  501  0.00000000000E+00  0.00000000000E+00  0.68177613703E+03  0.68177613703E+03  0.00000000000E+00 0. -1.
         21   -1    0    0  501  502 -0.00000000000E+00 -0.00000000000E+00 -0.60479607610E+02  0.60479607610E+02  0.00000000000E+00 0. -1.
         25    1    1    2    0    0 -0.62806150989E+02 -0.13118205163E+03  0.43264052549E+03  0.47324007392E+03  0.12500000000E+03 0.  0.
         25    1    1    2    0    0  0.62806150989E+02  0.13118205163E+03  0.18865600393E+03  0.26901567071E+03  0.12500000000E+03 0.  0.
</event>
<event>
 4    0  0.2270578E-002  0.2589106E+03  0.7546771E-02  0.1107800E+00
         21   -1    0    0  502  501  0.00000000000E+00  0.00000000000E+00  0.26626325819E+03  0.26626325819E+03  0.00000000000E+00 0. -1.
         21   -1    0    0  501  502 -0.00000000000E+00 -0.00000000000E+00 -0.25176098687E+03  0.25176098687E+03  0.00000000000E+00 0. -1.
         25    1    1    2    0    0  0.68471025116E+02  0.21534222128E+03 -0.11441669250E+02  0.25848881087E+03  0.12500000000E+03 0.  0.
         25    1    1    2    0    0 -0.68471025116E+02 -0.21534222128E+03  0.25943940565E+02  0.25953543419E+03  0.12500000000E+03 0.  0.
</event>
<event>
 4    0  0.2270578E-002  0.1837801E+03  0.7546771E-02  0.1164194E+00
         21   -1    0    0  502  501  0.00000000000E+00  0.00000000000E+00  0.41656576328E+02  0.41656576328E+02  0.00000000000E+00 0. -1.
         21   -1    0    0  501  502 -0.00000000000E+00 -0.00000000000E+00 -0.81079932817E+03  0.81079932817E+03  0.00000000000E+00 0. -1.
         25    1    1    2    0    0  0.10114931833E+03  0.76634035354E+02 -0.48948060223E+03  0.52088407533E+03  0.12500000000E+03 0.  0.
         25    1    1    2    0    0 -0.10114931833E+03 -0.76634035354E+02 -0.27966214962E+03  0.33157182917E+03  0.12500000000E+03 0.  0.
</event>
<event>
 4    0  0.2270578E-002  0.3427207E+03  0.7546771E-02  0.1065643E+00
         21   -1    0    0  502  501  0.00000000000E+00  0.00000000000E+00  0.80151101968E+03  0.80151101968E+03  0.00000000000E+00 0.  1.
         21   -1    0    0  501  502 -0.00000000000E+00 -0.00000000000E+00 -0.14654509043E+03  0.14654509043E+03  0.00000000000E+00 0.  1.
         25    1    1    2    0    0  0.51765854015E+02  0.27474726796E+03  0.54026398147E+03  0.62102812703E+03  0.12500000000E+03 0.  0.
         25    1    1    2    0    0 -0.51765854015E+02 -0.27474726796E+03  0.11470194778E+03  0.32702798308E+03  0.12500000000E+03 0.  0.
</event>
<event>
 4    0  0.2270578E-002  0.1849196E+03  0.7546771E-02  0.1163125E+00
         21   -1    0    0  502  501  0.00000000000E+00  0.00000000000E+00  0.14341340719E+04  0.14341340719E+04  0.00000000000E+00 0.  1.
         21   -1    0    0  501  502 -0.00000000000E+00 -0.00000000000E+00 -0.23843845970E+02  0.23843845970E+02  0.00000000000E+00 0.  1.
         25    1    1    2    0    0  0.53408217590E+02  0.37263016842E+02  0.23324461619E+03  0.27252343223E+03  0.12500000000E+03 0.  0.
         25    1    1    2    0    0 -0.53408217590E+02 -0.37263016842E+02  0.11770456098E+04  0.11854544857E+04  0.12500000000E+03 0.  0.
</event>
<event>
 4    0  0.2270578E-002  0.1745038E+03  0.7546771E-02  0.1173231E+00
         21   -1    0    0  502  501  0.00000000000E+00  0.00000000000E+00  0.45826609141E+03  0.45826609141E+03  0.00000000000E+00 0.  1.
         21   -1    0    0  501  502 -0.00000000000E+00 -0.00000000000E+00 -0.66449517296E+02  0.66449517296E+02  0.00000000000E+00 0.  1.
         25    1    1    2    0    0  0.10535294282E+03  0.32749006910E+02  0.27337351376E+03  0.32020277644E+03  0.12500000000E+03 0.  0.
         25    1    1    2    0    0 -0.10535294282E+03 -0.32749006910E+02  0.11844306035E+03  0.20451283226E+03  0.12500000000E+03 0.  0.
</event>
<event>
 4    0  0.2270578E-002  0.2437122E+03  0.7546771E-02  0.1117344E+00
         21   -1    0    0  502  501  0.00000000000E+00  0.00000000000E+00  0.37571215403E+03  0.37571215403E+03  0.00000000000E+00 0.  1.
         21   -1    0    0  501  502 -0.00000000000E+00 -0.00000000000E+00 -0.15808809094E+03  0.15808809094E+03  0.00000000000E+00 0.  1.
         25    1    1    2    0    0 -0.91997421796E+02 -0.16888388765E+03  0.18601577222E+02  0.23012238439E+03  0.12500000000E+03 0.  0.
         25    1    1    2    0    0  0.91997421796E+02  0.16888388765E+03  0.19902248587E+03  0.30367786058E+03  0.12500000000E+03 0.  0.
</event>
<event>
 4    0  0.2270578E-002  0.2068505E+03  0.7546771E-02  0.1144085E+00
         21   -1    0    0  502  501  0.00000000000E+00  0.00000000000E+00  0.34046022642E+03  0.34046022642E+03  0.00000000000E+00 0. -1.
         21   -1    0    0  501  502 -0.00000000000E+00 -0.00000000000E+00 -0.12567435314E+03  0.12567435314E+03  0.00000000000E+00 0. -1.
         25    1    1    2    0    0  0.30697945340E+02 -0.12583166105E+03 -0.74361888614E+01  0.18015623130E+03  0.12500000000E+03 0.  0.
         25    1    1    2    0    0 -0.30697945340E+02  0.12583166105E+03  0.22222206215E+03  0.28597834826E+03  0.12500000000E+03 0.  0.
</event>
<event>
 4    0  0.2270578E-002  0.1722731E+03  0.7546771E-02  0.1175498E+00
         21   -1    0    0  502  501  0.00000000000E+00  0.00000000000E+00  0.45809925397E+03  0.45809925397E+03  0.00000000000E+00 0. -1.
         21   -1    0    0  501  502 -0.00000000000E+00 -0.00000000000E+00 -0.64785115749E+02  0.64785115749E+02  0.00000000000E+00 0. -1.
         25    1    1    2    0    0  0.40281783375E+02  0.54345310994E+02  0.34439540247E+03  0.37257110481E+03  0.12500000000E+03 0.  0.
         25    1    1    2    0    0 -0.40281783375E+02 -0.54345310994E+02  0.48918735749E+02  0.15031326490E+03  0.12500000000E+03 0.  0.
</event>
<event>
 4    0  0.2270578E-002  0.1738850E+03  0.7546771E-02  0.1173856E+00
         21   -1    0    0  502  501  0.00000000000E+00  0.00000000000E+00  0.31163172228E+03  0.31163172228E+03  0.00000000000E+00 0. -1.
         21   -1    0    0  501  502 -0.00000000000E+00 -0.00000000000E+00 -0.97024744693E+02  0.97024744693E+02  0.00000000000E+00 0. -1.
         25    1    1    2    0    0 -0.47426284111E+02 -0.10120935973E+03  0.53219287518E+02  0.17592577835E+03  0.12500000000E+03 0.  0.
         25    1    1    2    0    0  0.47426284111E+02  0.10120935973E+03  0.16138769007E+03  0.23273068863E+03  0.12500000000E+03 0.  0.
</event>
<event>
 4    0  0.2270578E-002  0.2267691E+03  0.7546771E-02  0.1128935E+00
         21   -1    0    0  502  501  0.00000000000E+00  0.00000000000E+00  0.16514864383E+03  0.16514864383E+03  0.00000000000E+00 0. -1.
         21   -1    0    0  501  502 -0.00000000000E+00 -0.00000000000E+00 -0.31138140749E+03  0.31138140749E+03  0.00000000000E+00 0. -1.
         25    1    1    2    0    0 -0.17397573442E+03 -0.35154618448E+02 -0.42512826058E+01  0.21713239457E+03  0.12500000000E+03 0.  0.
         25    1    1    2    0    0  0.17397573442E+03  0.35154618448E+02 -0.14198148106E+03  0.25939765675E+03  0.12500000000E+03 0.  0.
</event>
<event>
 4    0  0.2270578E-002  0.1962286E+03  0.7546771E-02  0.1152961E+00
         21   -1    0    0  502  501  0.00000000000E+00  0.00000000000E+00  0.62633522440E+02  0.62633522440E+02  0.00000000000E+00 0. -1.
         21   -1    0    0  501  502 -0.00000000000E+00 -0.00000000000E+00 -0.61477715548E+03  0.61477715548E+03  0.00000000000E+00 0. -1.
         25    1    1    2    0    0  0.90153075621E+02  0.33328971038E+02 -0.47767758165E+03  0.50303008793E+03  0.12500000000E+03 0.  0.
         25    1    1    2    0    0 -0.90153075621E+02 -0.33328971038E+02 -0.74466051388E+02  0.17438058999E+03  0.12500000000E+03 0.  0.
</event>
<event>
 4    0  0.2270578E-002  0.2102910E+03  0.7546771E-02  0.1141336E+00
         21   -1    0    0  502  501  0.00000000000E+00  0.00000000000E+00  0.10439787140E+03  0.10439787140E+03  0.00000000000E+00 0.  1.
         21   -1    0    0  501  502 -0.00000000000E+00 -0.00000000000E+00 -0.42359387147E+03  0.42359387147E+03  0.00000000000E+00 0.  1.
         25    1    1    2    0    0  0.60846005729E+02 -0.12060222897E+03 -0.28731541058E+03  0.34120709137E+03  0.12500000000E+03 0.  0.
         25    1    1    2    0    0 -0.60846005729E+02  0.12060222897E+03 -0.31880589487E+02  0.18678465149E+03  0.12500000000E+03 0.  0.
</event>
<event>
 4    0  0.2270578E-002  0.2087048E+03  0.7546771E-02  0.1142596E+00
         21   -1    0    0  502  501  0.00000000000E+00  0.00000000000E+00  0.55280051114E+02  0.55280051114E+02  0.00000000000E+00 0.  1.
         21   -1    0    0  501  502 -0.00000000000E+00 -0.00000000000E+00 -0.78794559686E+03  0.78794559686E+03  0.00000000000E+00 0.  1.
         25    1    1    2    0    0 -0.15453440559E+02 -0.16606259315E+03 -0.38819132311E+03  0.44060537560E+03  0.12500000000E+03 0.  0.
         25    1    1    2    0    0  0.15453440559E+02  0.16606259315E+03 -0.34447422263E+03  0.40262027237E+03  0.12500000000E+03 0.  0.
</event>
<event>
 4    0  0.2270578E-002  0.1957032E+03  0.7546771E-02  0.1153416E+00
         21   -1    0    0  502  501  0.00000000000E+00  0.00000000000E+00  0.19458879172E+03  0.19458879172E+03  0.00000000000E+00 0.  1.
         21   -1    0    0  501  502 -0.00000000000E+00 -0.00000000000E+00 -0.19682408847E+03  0.19682408847E+03  0.00000000000E+00 0.  1.
         25    1    1    2    0    0  0.12486617620E+03 -0.80760969440E+02  0.22565335085E+02  0.19557119034E+03  0.12500000000E+03 0.  0.
         25    1    1    2    0    0 -0.12486617620E+03  0.80760969440E+02 -0.24800631831E+02  0.19584168985E+03  0.12500000000E+03 0.  0.
</event>
<event>
 4    0  0.2270578E-002  0.2186969E+03  0.7546771E-02  0.1134858E+00
         21   -1    0    0  502  501  0.00000000000E+00  0.00000000000E+00  0.31847672592E+03  0.31847672592E+03  0.00000000000E+00 0.  1.
         21   -1    0    0  501  502 -0.00000000000E+00 -0.00000000000E+00 -0.15017846618E+03  0.15017846618E+03  0.00000000000E+00 0.  1.
         25    1    1    2    0    0 -0.11476344556E+03 -0.13427326523E+03  0.50208866327E+02  0.22213934467E+03  0.12500000000E+03 0.  0.
         25    1    1    2    0    0  0.11476344556E+03  0.13427326523E+03  0.11808939341E+03  0.24651584742E+03  0.12500000000E+03 0.  0.
</event>
<event>
 4    0  0.2270578E-002  0.2231465E+03  0.7546771E-02  0.1131559E+00
         21   -1    0    0  502  501  0.00000000000E+00  0.00000000000E+00  0.18596926104E+03  0.18596926104E+03  0.00000000000E+00 0.  1.
         21   -1    0    0  501  502 -0.00000000000E+00 -0.00000000000E+00 -0.26775582644E+03  0.26775582644E+03  0.00000000000E+00 0.  1.
         25    1    1    2    0    0  0.80881257994E+02 -0.10365940280E+03 -0.17298895861E+03  0.25067355163E+03  0.12500000000E+03 0.  0.
         25    1    1    2    0    0 -0.80881257994E+02  0.10365940280E+03  0.91202393212E+02  0.20305153585E+03  0.12500000000E+03 0.  0.
</event>
<event>
 4    0  0.2270578E-002  0.2391219E+03  0.7546771E-02  0.1120379E+00
         21   -1    0    0  502  501  0.00000000000E+00  0.00000000000E+00  0.23766506645E+03  0.23766506645E+03  0.00000000000E+00 0.  1.
         21   -1    0    0  501  502 -0.00000000000E+00 -0.00000000000E+00 -0.24058764646E+03  0.24058764646E+03  0.00000000000E+00 0.  1.
         25    1    1    2    0    0 -0.17738548206E+03  0.59650295753E+02  0.79351801978E+02  0.23863251142E+03  0.12500000000E+03 0.  0.
         25    1    1    2    0    0  0.17738548206E+03 -0.59650295753E+02 -0.82274381992E+02  0.23962020149E+03  0.12500000000E+03 0.  0.
</event>
<event>
 4    0  0.2270578E-002  0.3864929E+03  0.7546771E-02  0.1048560E+00
         21   -1    0    0  502  501  0.00000000000E+00  0.00000000000E+00  0.67012563459E+02  0.67012563459E+02  0.00000000000E+00 0. -1.
         21   -1    0    0  501  502 -0.00000000000E+00 -0.00000000000E+00 -0.22290863584E+04  0.22290863584E+04  0.00000000000E+00 0. -1.
         25    1    1    2    0    0 -0.53805442303E+02 -0.32094292360E+03 -0.15767728181E+04  0.16148488802E+04  0.12500000000E+03 0.  0.
         25    1    1    2    0    0  0.53805442303E+02  0.32094292360E+03 -0.58530097682E+03  0.68125004168E+03  0.12500000000E+03 0.  0.
</event>
<event>
 4    0  0.2270578E-002  0.2779793E+03  0.7546771E-02  0.1096798E+00
         21   -1    0    0  502  501  0.00000000000E+00  0.00000000000E+00  0.17504242183E+04  0.17504242183E+04  0.00000000000E+00 0. -1.
         21   -1    0    0  501  502 -0.00000000000E+00 -0.00000000000E+00 -0.44145013081E+02  0.44145013081E+02  0.00000000000E+00 0. -1.
         25    1    1    2    0    0  0.71770071897E+02 -0.19555190918E+03  0.41700490019E+03  0.48260706500E+03  0.12500000000E+03 0.  0.
         25    1    1    2    0    0 -0.71770071897E+02  0.19555190918E+03  0.12892743050E+04  0.13119621664E+04  0.12500000000E+03 0.  0.
</event>
<event>
 4    0  0.2270578E-002  0.1821040E+03  0.7546771E-02  0.1165782E+00
         21   -1    0    0  502  501  0.00000000000E+00  0.00000000000E+00  0.87307161918E+03  0.87307161918E+03  0.00000000000E+00 0.  1.
         21   -1    0    0  501  502 -0.00000000000E+00 -0.00000000000E+00 -0.37982987644E+02  0.37982987644E+02  0.00000000000E+00 0.  1.
         25    1    1    2    0    0  0.63661107250E+02  0.10643068035E+03  0.30137699619E+03  0.34904630084E+03  0.12500000000E+03 0.  0.
         25    1    1    2    0    0 -0.63661107250E+02 -0.10643068035E+03  0.53371163534E+03  0.56200830598E+03  0.12500000000E+03 0.  0.
</event>
<event>
 4    0  0.2270578E-002  0.1556488E+03  0.7546771E-02  0.1193699E+00
         21   -1    0    0  502  501  0.00000000000E+00  0.00000000000E+00  0.92909292223E+02  0.92909292223E+02  0.00000000000E+00 0. -1.
         21   -1    0    0  501  502 -0.00000000000E+00 -0.00000000000E+00 -0.26075475559E+03  0.26075475559E+03  0.00000000000E+00 0. -1.
         25    1    1    2    0    0  0.13592397623E+02 -0.53986534122E+02 -0.16819506394E+03  0.21682684030E+03  0.12500000000E+03 0.  0.
         25    1    1    2    0    0 -0.13592397623E+02  0.53986534122E+02  0.34960057476E+00  0.13683720751E+03  0.12500000000E+03 0.  0.
</event>
<event>
 4    0  0.2270578E-002  0.2753099E+03  0.7546771E-02  0.1098278E+00
         21   -1    0    0  502  501  0.00000000000E+00  0.00000000000E+00  0.20171479458E+03  0.20171479458E+03  0.00000000000E+00 0. -1.
         21   -1    0    0  501  502 -0.00000000000E+00 -0.00000000000E+00 -0.37575600924E+03  0.37575600924E+03  0.00000000000E+00 0. -1.
         25    1    1    2    0    0 -0.61663832140E+02 -0.22505419992E+03 -0.77106340396E+01  0.26483254138E+03  0.12500000000E+03 0.  0.
         25    1    1    2    0    0  0.61663832140E+02  0.22505419992E+03 -0.16633058061E+03  0.31263826244E+03  0.12500000000E+03 0.  0.
</event>
<event>
 4    0  0.2270578E-002  0.1982090E+03  0.7546771E-02  0.1151259E+00
         21   -1    0    0  502  501  0.00000000000E+00  0.00000000000E+00  0.21481040472E+02  0.21481040472E+02  0.00000000000E+00 0. -1.
         21   -1    0    0  501  502 -0.00000000000E+00 -0.00000000000E+00 -0.18289058592E+04  0.18289058592E+04  0.00000000000E+00 0. -1.
         25    1    1    2    0    0 -0.13445511741E+03 -0.50939775993E+02 -0.11588972318E+04  0.11744534189E+04  0.12500000000E+03 0.  0.
         25    1    1    2    0    0  0.13445511741E+03  0.50939775993E+02 -0.64852758693E+03  0.67593348074E+03  0.12500000000E+03 0.  0.
</event>
<event>
 4    0  0.2270578E-002  0.2369467E+03  0.7546771E-02  0.1121844E+00
         21   -1    0    0  502  501  0.00000000000E+00  0.00000000000E+00  0.36992053340E+03  0.36992053340E+03  0.00000000000E+00 0. -1.
         21   -1    0    0  501  502 -0.00000000000E+00 -0.00000000000E+00 -0.15177241594E+03  0.15177241594E+03  0.00000000000E+00 0.  1.
         25    1    1    2    0    0  0.72489836119E+02 -0.13392649222E+03 -0.35837884318E+02  0.20025093161E+03  0.12500000000E+03 0.  0.
         25    1    1    2    0    0 -0.72489836119E+02  0.13392649222E+03  0.25398600178E+03  0.32144201773E+03  0.12500000000E+03 0.  0.
</event>
<event>
 4    0  0.2270578E-002  0.2146021E+03  0.7546771E-02  0.1137973E+00
         21   -1    0    0  502  501  0.00000000000E+00  0.00000000000E+00  0.57912266871E+03  0.57912266871E+03  0.00000000000E+00 0.  1.
         21   -1    0    0  501  502 -0.00000000000E+00 -0.00000000000E+00 -0.79523877157E+02  0.79523877157E+02  0.00000000000E+00 0.  1.
         25    1    1    2    0    0  0.17080545700E+03 -0.34202919707E+02  0.26392550715E+03  0.34003825841E+03  0.12500000000E+03 0.  0.
         25    1    1    2    0    0 -0.17080545700E+03  0.34202919707E+02  0.23567328441E+03  0.31860828747E+03  0.12500000000E+03 0.  0.
</event>
<event>
 4    0  0.2270578E-002  0.2451080E+03  0.7546771E-02  0.1116436E+00
         21   -1    0    0  502  501  0.00000000000E+00  0.00000000000E+00  0.98337421642E+02  0.98337421642E+02  0.00000000000E+00 0. -1.
         21   -1    0    0  501  502 -0.00000000000E+00 -0.00000000000E+00 -0.61093666522E+03  0.61093666522E+03  0.00000000000E+00 0. -1.
         25    1    1    2    0    0  0.15047071519E+03 -0.17147437875E+02 -0.44062106001E+02  0.20125093774E+03  0.12500000000E+03 0.  0.
         25    1    1    2    0    0 -0.15047071519E+03  0.17147437875E+02 -0.46853713758E+03  0.50802314912E+03  0.12500000000E+03 0.  0.
</event>
<event>
 4    0  0.2270578E-002  0.1849817E+03  0.7546771E-02  0.1163067E+00
         21   -1    0    0  502  501  0.00000000000E+00  0.00000000000E+00  0.91476853153E+03  0.91476853153E+03  0.00000000000E+00 0.  1.
         21   -1    0    0  501  502 -0.00000000000E+00 -0.00000000000E+00 -0.37406448805E+02  0.37406448805E+02  0.00000000000E+00 0.  1.
         25    1    1    2    0    0  0.10637527818E+03 -0.26719637836E+02  0.23016998571E+03  0.28395925971E+03  0.12500000000E+03 0.  0.
         25    1    1    2    0    0 -0.10637527818E+03  0.26719637836E+02  0.64719209702E+03  0.66821572063E+03  0.12500000000E+03 0.  0.
</event>
<event>
 4    0  0.2270578E-002  0.2624193E+03  0.7546771E-02  0.1105698E+00
         21   -1    0    0  502  501  0.00000000000E+00  0.00000000000E+00  0.85169576717E+02  0.85169576717E+02  0.00000000000E+00 0. -1.
         21   -1    0    0  501  502 -0.00000000000E+00 -0.00000000000E+00 -0.80855033932E+03  0.80855033932E+03  0.00000000000E+00 0. -1.
         25    1    1    2    0    0  0.20286687036E+03 -0.59712517848E+02 -0.20452636977E+03  0.31965072784E+03  0.12500000000E+03 0.  0.
         25    1    1    2    0    0 -0.20286687036E+03  0.59712517848E+02 -0.51885439284E+03  0.57406918820E+03  0.12500000000E+03 0.  0.
</event>
<event>
 4    0  0.2270578E-002  0.2376278E+03  0.7546771E-02  0.1121383E+00
         21   -1    0    0  502  501  0.00000000000E+00  0.00000000000E+00  0.94727639803E+02  0.94727639803E+02  0.00000000000E+00 0.  1.
         21   -1    0    0  501  502 -0.00000000000E+00 -0.00000000000E+00 -0.59609822389E+03  0.59609822389E+03  0.00000000000E+00 0.  1.
         25    1    1    2    0    0 -0.15350848968E+03 -0.29047310736E+02 -0.43702469769E+03  0.48064975716E+03  0.12500000000E+03 0.  0.
         25    1    1    2    0    0  0.15350848968E+03  0.29047310736E+02 -0.64345886402E+02  0.21017610654E+03  0.12500000000E+03 0.  0.
</event>
<event>
 4    0  0.2270578E-002  0.1863304E+03  0.7546771E-02  0.1161813E+00
         21   -1    0    0  502  501  0.00000000000E+00  0.00000000000E+00  0.19398572265E+03  0.19398572265E+03  0.00000000000E+00 0. -1.
         21   -1    0    0  501  502 -0.00000000000E+00 -0.00000000000E+00 -0.17897727657E+03  0.17897727657E+03  0.00000000000E+00 0. -1.
         25    1    1    2    0    0  0.46035810951E+02  0.48174503482E+02  0.12865588828E+03  0.19135677742E+03  0.12500000000E+03 0.  0.
         25    1    1    2    0    0 -0.46035810951E+02 -0.48174503482E+02 -0.11364744220E+03  0.18160622179E+03  0.12500000000E+03 0.  0.
</event>
<event>
 4    0  0.2270578E-002  0.2742171E+03  0.7546771E-02  0.1098890E+00
         21   -1    0    0  502  501  0.00000000000E+00  0.00000000000E+00  0.36812769297E+03  0.36812769297E+03  0.00000000000E+00 0.  1.
         21   -1    0    0  501  502 -0.00000000000E+00 -0.00000000000E+00 -0.20426339544E+03  0.20426339544E+03  0.00000000000E+00 0.  1.
         25    1    1    2    0    0 -0.11011014386E+03 -0.56291533267E+02 -0.13768062676E+03  0.22332473102E+03  0.12500000000E+03 0.  0.
         25    1    1    2    0    0  0.11011014386E+03  0.56291533267E+02  0.30154492429E+03  0.34906635739E+03  0.12500000000E+03 0.  0.
</event>
<event>
 4    0  0.2270578E-002  0.2322544E+03  0.7546771E-02  0.1125063E+00
         21   -1    0    0  502  501  0.00000000000E+00  0.00000000000E+00  0.13715360722E+03  0.13715360722E+03  0.00000000000E+00 0. -1.
         21   -1    0    0  501  502 -0.00000000000E+00 -0.00000000000E+00 -0.39329711335E+03  0.39329711335E+03  0.00000000000E+00 0. -1.
         25    1    1    2    0    0 -0.16672725071E+03  0.96856624134E+02 -0.89549651014E+02  0.24662384671E+03  0.12500000000E+03 0.  0.
         25    1    1    2    0    0  0.16672725071E+03 -0.96856624134E+02 -0.16659385512E+03  0.28382687387E+03  0.12500000000E+03 0.  0.
</event>
<event>
 4    0  0.2270578E-002  0.1926492E+03  0.7546771E-02  0.1156093E+00
         21   -1    0    0  502  501  0.00000000000E+00  0.00000000000E+00  0.35535932419E+02  0.35535932419E+02  0.00000000000E+00 0.  1.
         21   -1    0    0  501  502 -0.00000000000E+00 -0.00000000000E+00 -0.10443993030E+04  0.10443993030E+04  0.00000000000E+00 0.  1.
         25    1    1    2    0    0  0.84041996775E+02  0.54886647837E+02 -0.80386658387E+03  0.81969633768E+03  0.12500000000E+03 0.  0.
         25    1    1    2    0    0 -0.84041996775E+02 -0.54886647837E+02 -0.20499678666E+03  0.26023889770E+03  0.12500000000E+03 0.  0.
</event>
<event>
 4    0  0.2270578E-002  0.1845031E+03  0.7546771E-02  0.1163515E+00
         21   -1    0    0  502  501  0.00000000000E+00  0.00000000000E+00  0.18296252608E+03  0.18296252608E+03  0.00000000000E+00 0.  1.
         21   -1    0    0  501  502 -0.00000000000E+00 -0.00000000000E+00 -0.18605666445E+03  0.18605666445E+03  0.00000000000E+00 0.  1.
         25    1    1    2    0    0  0.12644437950E+02 -0.99638732122E+02 -0.92811652404E+02  0.18527482714E+03  0.12500000000E+03 0.  0.
         25    1    1    2    0    0 -0.12644437950E+02  0.99638732122E+02  0.89717514034E+02  0.18374436338E+03  0.12500000000E+03 0.  0.
</event>
<event>
 4    0  0.2270578E-002  0.2274580E+03  0.7546771E-02  0.1128442E+00
         21   -1    0    0  502  501  0.00000000000E+00  0.00000000000E+00  0.10378352119E+03  0.10378352119E+03  0.00000000000E+00 0.  1.
         21   -1    0    0  501  502 -0.00000000000E+00 -0.00000000000E+00 -0.49851029253E+03  0.49851029253E+03  0.00000000000E+00 0.  1.
         25    1    1    2    0    0  0.10406837714E+02 -0.15299816206E+03 -0.34595125620E+03  0.39852730337E+03  0.12500000000E+03 0.  0.
         25    1    1    2    0    0 -0.10406837714E+02  0.15299816206E+03 -0.48775515141E+02  0.20376651035E+03  0.12500000000E+03 0.  0.
</event>
<event>
 4    0  0.2270578E-002  0.2008451E+03  0.7546771E-02  0.1149028E+00
         21   -1    0    0  502  501  0.00000000000E+00  0.00000000000E+00  0.92640833439E+03  0.92640833439E+03  0.00000000000E+00 0.  1.
         21   -1    0    0  501  502 -0.00000000000E+00 -0.00000000000E+00 -0.43543163362E+02  0.43543163362E+02  0.00000000000E+00 0.  1.
         25    1    1    2    0    0  0.26373655275E+02 -0.13111222709E+03  0.24190725126E+03  0.30336463867E+03  0.12500000000E+03 0.  0.
         25    1    1    2    0    0 -0.26373655275E+02  0.13111222709E+03  0.64095791977E+03  0.66658685908E+03  0.12500000000E+03 0.  0.
</event>
<event>
 4    0  0.2270578E-002  0.2483096E+03  0.7546771E-02  0.1114378E+00
         21   -1    0    0  502  501  0.00000000000E+00  0.00000000000E+00  0.62487575117E+03  0.62487575117E+03  0.00000000000E+00 0. -1.
         21   -1    0    0  501  502 -0.00000000000E+00 -0.00000000000E+00 -0.98671848606E+02  0.98671848606E+02  0.00000000000E+00 0. -1.
         25    1    1    2    0    0  0.58295754337E+02 -0.76715591396E+01  0.56372550202E+03  0.58040390197E+03  0.12500000000E+03 0.  0.
         25    1    1    2    0    0 -0.58295754337E+02  0.76715591396E+01 -0.37521599464E+02  0.14314369780E+03  0.12500000000E+03 0.  0.
</event>
<event>
 4    0  0.2270578E-002  0.1985877E+03  0.7546771E-02  0.1150936E+00
         21   -1    0    0  502  501  0.00000000000E+00  0.00000000000E+00  0.10004216937E+03  0.10004216937E+03  0.00000000000E+00 0.  1.
         21   -1    0    0  501  502 -0.00000000000E+00 -0.00000000000E+00 -0.39420464833E+03  0.39420464833E+03  0.00000000000E+00 0.  1.
         25    1    1    2    0    0  0.51194929361E+02 -0.11028045592E+03 -0.26532837625E+03  0.31750094015E+03  0.12500000000E+03 0.  0.
         25    1    1    2    0    0 -0.51194929361E+02  0.11028045592E+03 -0.28834102704E+02  0.17674587754E+03  0.12500000000E+03 0.  0.
</event>
<event>
 4    0  0.2270578E-002  0.2541056E+03  0.7546771E-02  0.1110737E+00
         21   -1    0    0  502  501  0.00000000000E+00  0.00000000000E+00  0.11803006298E+03  0.11803006298E+03  0.00000000000E+00 0.  1.
         21   -1    0    0  501  502 -0.00000000000E+00 -0.00000000000E+00 -0.54706099748E+03  0.54706099748E+03  0.00000000000E+00 0.  1.
         25    1    1    2    0    0 -0.20982280443E+03  0.43536068176E+02 -0.28647732303E+03  0.37896603423E+03  0.12500000000E+03 0.  0.
         25    1    1    2    0    0  0.20982280443E+03 -0.43536068176E+02 -0.14255361147E+03  0.28612502623E+03  0.12500000000E+03 0.  0.
</event>
<event>
 4    0  0.2270578E-002  0.1976556E+03  0.7546771E-02  0.1151732E+00
         21   -1    0    0  502  501  0.00000000000E+00  0.00000000000E+00  0.13086590435E+04  0.13086590435E+04  0.00000000000E+00 0.  1.
         21   -1    0    0  501  502 -0.00000000000E+00 -0.00000000000E+00 -0.29853255051E+02  0.29853255051E+02  0.00000000000E+00 0.  1.
         25    1    1    2    0    0  0.12451869726E+03  0.60621511577E+02  0.86047488962E+03  0.88046687007E+03  0.12500000000E+03 0.  0.
         25    1    1    2    0    0 -0.12451869726E+03 -0.60621511577E+02  0.41833089881E+03  0.45804542846E+03  0.12500000000E+03 0.  0.
</event>
<event>
 4    0  0.2270578E-002  0.2955297E+03  0.7546771E-02  0.1087497E+00
         21   -1    0    0  502  501  0.00000000000E+00  0.00000000000E+00  0.71564342897E+02  0.71564342897E+02  0.00000000000E+00 0.  1.
         21   -1    0    0  501  502 -0.00000000000E+00 -0.00000000000E+00 -0.12204096025E+04  0.12204096025E+04  0.00000000000E+00 0.  1.
         25    1    1    2    0    0  0.47516358732E+02  0.96632778456E+02 -0.11103694100E+04  0.11225599873E+04  0.12500000000E+03 0.  0.
         25    1    1    2    0    0 -0.47516358732E+02 -0.96632778456E+02 -0.38475849577E+02  0.16941395816E+03  0.12500000000E+03 0.  0.
</event>
<event>
 4    0  0.2270578E-002  0.1874714E+03  0.7546771E-02  0.1160762E+00
         21   -1    0    0  502  501  0.00000000000E+00  0.00000000000E+00  0.50199421326E+02  0.50199421326E+02  0.00000000000E+00 0.  1.
         21   -1    0    0  501  502 -0.00000000000E+00 -0.00000000000E+00 -0.70011791694E+03  0.70011791694E+03  0.00000000000E+00 0.  1.
         25    1    1    2    0    0  0.22371382320E+02  0.12198530282E+02 -0.59986267562E+03  0.61327767976E+03  0.12500000000E+03 0.  0.
         25    1    1    2    0    0 -0.22371382320E+02 -0.12198530282E+02 -0.50055819990E+02  0.13703965850E+03  0.12500000000E+03 0.  0.
</event>
<event>
 4    0  0.2270578E-002  0.2183166E+03  0.7546771E-02  0.1135144E+00
         21   -1    0    0  502  501  0.00000000000E+00  0.00000000000E+00  0.28210533022E+02  0.28210533022E+02  0.00000000000E+00 0.  1.
         21   -1    0    0  501  502 -0.00000000000E+00 -0.00000000000E+00 -0.16895159254E+04  0.16895159254E+04  0.00000000000E+00 0.  1.
         25    1    1    2    0    0 -0.38891292073E+02  0.83262831394E+02 -0.14349056732E+04  0.14432686938E+04  0.12500000000E+03 0.  0.
         25    1    1    2    0    0  0.38891292073E+02 -0.83262831394E+02 -0.22639971923E+03  0.27445776462E+03  0.12500000000E+03 0.  0.
</event>
<event>
 4    0  0.2270578E-002  0.2446041E+03  0.7546771E-02  0.1116763E+00
         21   -1    0    0  502  501  0.00000000000E+00  0.00000000000E+00  0.34132994461E+03  0.34132994461E+03  0.00000000000E+00 0.  1.
         21   -1    0    0  501  502 -0.00000000000E+00 -0.00000000000E+00 -0.17528832591E+03  0.17528832591E+03  0.00000000000E+00 0.  1.
         25    1    1    2    0    0 -0.92780563928E+02  0.12842078429E+03  0.22899000999E+03  0.30522377947E+03  0.12500000000E+03 0.  0.
         25    1    1    2    0    0  0.92780563928E+02 -0.12842078429E+03 -0.62948391290E+02  0.21139449105E+03  0.12500000000E+03 0.  0.
</event>
<event>
 4    0  0.2270578E-002  0.2200807E+03  0.7546771E-02  0.1133823E+00
         21   -1    0    0  502  501  0.00000000000E+00  0.00000000000E+00  0.13036795297E+04  0.13036795297E+04  0.00000000000E+00 0.  1.
         21   -1    0    0  501  502 -0.00000000000E+00 -0.00000000000E+00 -0.37152946547E+02  0.37152946547E+02  0.00000000000E+00 0.  1.
         25    1    1    2    0    0  0.11618999396E+03 -0.17917822495E+02  0.21348712152E+03  0.27390311082E+03  0.12500000000E+03 0.  0.
         25    1    1    2    0    0 -0.11618999396E+03  0.17917822495E+02  0.10530394616E+04  0.10669293654E+04  0.12500000000E+03 0.  0.
</event>
<event>
 4    0  0.2270578E-002  0.1746189E+03  0.7546771E-02  0.1173115E+00
         21   -1    0    0  502  501  0.00000000000E+00  0.00000000000E+00  0.10973478909E+03  0.10973478909E+03  0.00000000000E+00 0.  1.
         21   -1    0    0  501  502 -0.00000000000E+00 -0.00000000000E+00 -0.27786761636E+03  0.27786761636E+03  0.00000000000E+00 0.  1.
         25    1    1    2    0    0  0.28299144963E+02  0.11788194259E+03 -0.69606337388E+02  0.18752876099E+03  0.12500000000E+03 0.  0.
         25    1    1    2    0    0 -0.28299144963E+02 -0.11788194259E+03 -0.98526489886E+02  0.20007364445E+03  0.12500000000E+03 0.  0.
</event>
<event>
 4    0  0.2270578E-002  0.4124065E+03  0.7546771E-02  0.1039566E+00
         21   -1    0    0  502  501  0.00000000000E+00  0.00000000000E+00  0.17393443451E+03  0.17393443451E+03  0.00000000000E+00 0. -1.
         21   -1    0    0  501  502 -0.00000000000E+00 -0.00000000000E+00 -0.97783446963E+03  0.97783446963E+03  0.00000000000E+00 0.  1.
         25    1    1    2    0    0  0.22908602463E+03 -0.68844119564E+02 -0.83738101693E+03  0.87980218628E+03  0.12500000000E+03 0.  0.
         25    1    1    2    0    0 -0.22908602463E+03  0.68844119564E+02  0.33480981808E+02  0.27196671785E+03  0.12500000000E+03 0.  0.
</event>
<event>
 4    0  0.2270578E-002  0.1916138E+03  0.7546771E-02  0.1157014E+00
         21   -1    0    0  502  501  0.00000000000E+00  0.00000000000E+00  0.16905154626E+04  0.16905154626E+04  0.00000000000E+00 0.  1.
         21   -1    0    0  501  502 -0.00000000000E+00 -0.00000000000E+00 -0.21718720769E+02  0.21718720769E+02  0.00000000000E+00 0.  1.
         25    1    1    2    0    0  0.90445072908E+02  0.11355957798E+03  0.85155448268E+03  0.87283797233E+03  0.12500000000E+03 0.  0.
         25    1    1    2    0    0 -0.90445072908E+02 -0.11355957798E+03  0.81724225910E+03  0.83939621099E+03  0.12500000000E+03 0.  0.
</event>
<event>
 4    0  0.2270578E-002  0.2214764E+03  0.7546771E-02  0.1132787E+00
         21   -1    0    0  502  501  0.00000000000E+00  0.00000000000E+00  0.23936082215E+03  0.23936082215E+03  0.00000000000E+00 0. -1.
         21   -1    0    0  501  502 -0.00000000000E+00 -0.00000000000E+00 -0.20492827725E+03  0.20492827725E+03  0.00000000000E+00 0. -1.
         25    1    1    2    0    0  0.77449416214E+02  0.12776903269E+03  0.12290712749E+03  0.23033562420E+03  0.12500000000E+03 0.  0.
         25    1    1    2    0    0 -0.77449416214E+02 -0.12776903269E+03 -0.88474582589E+02  0.21395347520E+03  0.12500000000E+03 0.  0.
</event>
<event>
 4    0  0.2270578E-002  0.2362512E+03  0.7546771E-02  0.1122316E+00
         21   -1    0    0  502  501  0.00000000000E+00  0.00000000000E+00  0.73764678868E+02  0.73764678868E+02  0.00000000000E+00 0.  1.
         21   -1    0    0  501  502 -0.00000000000E+00 -0.00000000000E+00 -0.75665770277E+03  0.75665770277E+03  0.00000000000E+00 0.  1.
         25    1    1    2    0    0  0.14633876660E+02 -0.11923193507E+03 -0.62351939950E+03  0.64717219211E+03  0.12500000000E+03 0.  0.
         25    1    1    2    0    0 -0.14633876660E+02  0.11923193507E+03 -0.59373624397E+02  0.18325018952E+03  0.12500000000E+03 0.  0.
</event>
<event>
 4    0  0.2270578E-002  0.2219261E+03  0.7546771E-02  0.1132455E+00
         21   -1    0    0  502  501  0.00000000000E+00  0.00000000000E+00  0.11972422953E+03  0.11972422953E+03  0.00000000000E+00 0. -1.
         21   -1    0    0  501  502 -0.00000000000E+00 -0.00000000000E+00 -0.41137187214E+03  0.41137187214E+03  0.00000000000E+00 0. -1.
         25    1    1    2    0    0 -0.10665392203E+03  0.14115476720E+03 -0.20353792329E+03  0.29724133900E+03  0.12500000000E+03 0.  0.
         25    1    1    2    0    0  0.10665392203E+03 -0.14115476720E+03 -0.88109719320E+02  0.23385476268E+03  0.12500000000E+03 0.  0.
</event>
<event>
 4    0  0.2270578E-002  0.1486690E+03  0.7546771E-02  0.1202118E+00
         21   -1    0    0  502  501  0.00000000000E+00  0.00000000000E+00  0.23763569690E+04  0.23763569690E+04  0.00000000000E+00 0.  1.
         21   -1    0    0  501  502 -0.00000000000E+00 -0.00000000000E+00 -0.93009849287E+01  0.93009849287E+01  0.00000000000E+00 0.  1.
         25    1    1    2    0    0 -0.67815656851E+02 -0.41692279650E+02  0.12785470308E+04  0.12871071127E+04  0.12500000000E+03 0.  0.
         25    1    1    2    0    0  0.67815656851E+02  0.41692279650E+02  0.10885089532E+04  0.10985508412E+04  0.12500000000E+03 0.  0.
</event>
<event>
 4    0  0.2270578E-002  0.2303219E+03  0.7546771E-02  0.1126413E+00
         21   -1    0    0  502  501  0.00000000000E+00  0.00000000000E+00  0.17312988687E+03  0.17312988687E+03  0.00000000000E+00 0.  1.
         21   -1    0    0  501  502 -0.00000000000E+00 -0.00000000000E+00 -0.30640689756E+03  0.30640689756E+03  0.00000000000E+00 0.  1.
         25    1    1    2    0    0 -0.29016577123E+02  0.28850622237E+02 -0.26346692579E+03  0.29447264921E+03  0.12500000000E+03 0.  0.
         25    1    1    2    0    0  0.29016577123E+02 -0.28850622237E+02  0.13018991510E+03  0.18506413522E+03  0.12500000000E+03 0.  0.
</event>
<event>
 4    0  0.2270578E-002  0.1531778E+03  0.7546771E-02  0.1196622E+00
         21   -1    0    0  502  501  0.00000000000E+00  0.00000000000E+00  0.96448418756E+02  0.96448418756E+02  0.00000000000E+00 0.  1.
         21   -1    0    0  501  502 -0.00000000000E+00 -0.00000000000E+00 -0.24327459666E+03  0.24327459666E+03  0.00000000000E+00 0.  1.
         25    1    1    2    0    0  0.14123672060E+02 -0.87066616736E+02 -0.64940476235E+02  0.16619969710E+03  0.12500000000E+03 0.  0.
         25    1    1    2    0    0 -0.14123672060E+02  0.87066616736E+02 -0.81885701671E+02  0.17352331832E+03  0.12500000000E+03 0.  0.
</event>
<event>
 4    0  0.2270578E-002  0.2087882E+03  0.7546771E-02  0.1142529E+00
         21   -1    0    0  502  501  0.00000000000E+00  0.00000000000E+00  0.26181140612E+03  0.26181140612E+03  0.00000000000E+00 0. -1.
         21   -1    0    0  501  502 -0.00000000000E+00 -0.00000000000E+00 -0.16650351089E+03  0.16650351089E+03  0.00000000000E+00 0. -1.
         25    1    1    2    0    0 -0.10468650463E+03  0.13011624585E+03  0.56713793358E+02  0.21617343973E+03  0.12500000000E+03 0.  0.
         25    1    1    2    0    0  0.10468650463E+03 -0.13011624585E+03  0.38594101867E+02  0.21214147728E+03  0.12500000000E+03 0.  0.
</event>
<event>
 4    0  0.2270578E-002  0.2341118E+03  0.7546771E-02  0.1123779E+00
         21   -1    0    0  502  501  0.00000000000E+00  0.00000000000E+00  0.90626620093E+03  0.90626620093E+03  0.00000000000E+00 0.  1.
         21   -1    0    0  501  502 -0.00000000000E+00 -0.00000000000E+00 -0.60477090672E+02  0.60477090672E+02  0.00000000000E+00 0.  1.
         25    1    1    2    0    0 -0.49848200513E+02  0.38308624110E+02  0.81043765427E+03  0.82242725224E+03  0.12500000000E+03 0.  0.
         25    1    1    2    0    0  0.49848200513E+02 -0.38308624110E+02  0.35351455989E+02  0.14431603936E+03  0.12500000000E+03 0.  0.
</event>
<event>
 4    0  0.2270578E-002  0.2081225E+03  0.7546771E-02  0.1143061E+00
         21   -1    0    0  502  501  0.00000000000E+00  0.00000000000E+00  0.79626443148E+03  0.79626443148E+03  0.00000000000E+00 0. -1.
         21   -1    0    0  501  502 -0.00000000000E+00 -0.00000000000E+00 -0.54397737498E+02  0.54397737498E+02  0.00000000000E+00 0. -1.
         25    1    1    2    0    0  0.16040572856E+03 -0.43249235030E+02  0.39026611036E+03  0.44219128325E+03  0.12500000000E+03 0.  0.
         25    1    1    2    0    0 -0.16040572856E+03  0.43249235030E+02  0.35160058362E+03  0.40847088573E+03  0.12500000000E+03 0.  0.
</event>
<event>
 4    0  0.2270578E-002  0.2247070E+03  0.7546771E-02  0.1130422E+00
         21   -1    0    0  502  501  0.00000000000E+00  0.00000000000E+00  0.42785024184E+03  0.42785024184E+03  0.00000000000E+00 0. -1.
         21   -1    0    0  501  502 -0.00000000000E+00 -0.00000000000E+00 -0.11801616026E+03  0.11801616026E+03  0.00000000000E+00 0. -1.
         25    1    1    2    0    0  0.14226931955E+03  0.11871843760E+01  0.30181189766E+03  0.35631080570E+03  0.12500000000E+03 0.  0.
         25    1    1    2    0    0 -0.14226931955E+03 -0.11871843760E+01  0.80221839232E+01  0.18955559640E+03  0.12500000000E+03 0.  0.
</event>
<event>
 4    0  0.2270578E-002  0.2668930E+03  0.7546771E-02  0.1103071E+00
         21   -1    0    0  502  501  0.00000000000E+00  0.00000000000E+00  0.12858551336E+03  0.12858551336E+03  0.00000000000E+00 0. -1.
         21   -1    0    0  501  502 -0.00000000000E+00 -0.00000000000E+00 -0.55396486674E+03  0.55396486674E+03  0.00000000000E+00 0. -1.
         25    1    1    2    0    0  0.18679705589E+02  0.19177533897E+03 -0.38861462379E+02  0.23294189253E+03  0.12500000000E+03 0.  0.
         25    1    1    2    0    0 -0.18679705589E+02 -0.19177533897E+03 -0.38651789100E+03  0.44960848758E+03  0.12500000000E+03 0.  0.
</event>
<event>
 4    0  0.2270578E-002  0.1830364E+03  0.7546771E-02  0.1164896E+00
         21   -1    0    0  502  501  0.00000000000E+00  0.00000000000E+00  0.15531982176E+03  0.15531982176E+03  0.00000000000E+00 0.  1.
         21   -1    0    0  501  502 -0.00000000000E+00 -0.00000000000E+00 -0.21569884290E+03  0.21569884290E+03  0.00000000000E+00 0.  1.
         25    1    1    2    0    0  0.27696090012E+02 -0.12933033434E+03 -0.10331497134E+02  0.18227766900E+03  0.12500000000E+03 0.  0.
         25    1    1    2    0    0 -0.27696090012E+02  0.12933033434E+03 -0.50047524013E+02  0.18874099566E+03  0.12500000000E+03 0.  0.
</event>
<event>
 4    0  0.2270578E-002  0.2769499E+03  0.7546771E-02  0.1097367E+00
         21   -1    0    0  502  501  0.00000000000E+00  0.00000000000E+00  0.34924410774E+03  0.34924410774E+03  0.00000000000E+00 0. -1.
         21   -1    0    0  501  502 -0.00000000000E+00 -0.00000000000E+00 -0.21962078809E+03  0.21962078809E+03  0.00000000000E+00 0. -1.
         25    1    1    2    0    0 -0.11429622883E+02 -0.22564748998E+03 -0.38038087059E+02  0.26099678558E+03  0.12500000000E+03 0.  0.
         25    1    1    2    0    0  0.11429622883E+02  0.22564748998E+03  0.16766140671E+03  0.30786811026E+03  0.12500000000E+03 0.  0.
</event>
<event>
 4    0  0.2270578E-002  0.1957028E+03  0.7546771E-02  0.1153416E+00
         21   -1    0    0  502  501  0.00000000000E+00  0.00000000000E+00  0.13009278054E+03  0.13009278054E+03  0.00000000000E+00 0. -1.
         21   -1    0    0  501  502 -0.00000000000E+00 -0.00000000000E+00 -0.29440199161E+03  0.29440199161E+03  0.00000000000E+00 0. -1.
         25    1    1    2    0    0  0.94243414305E+02 -0.11417842560E+03 -0.11197529454E+03  0.22379008155E+03  0.12500000000E+03 0.  0.
         25    1    1    2    0    0 -0.94243414305E+02  0.11417842560E+03 -0.52333916528E+02  0.20070469061E+03  0.12500000000E+03 0.  0.
</event>
<event>
 4    0  0.2270578E-002  0.2449479E+03  0.7546771E-02  0.1116540E+00
         21   -1    0    0  502  501  0.00000000000E+00  0.00000000000E+00  0.48197285882E+03  0.48197285882E+03  0.00000000000E+00 0.  1.
         21   -1    0    0  501  502 -0.00000000000E+00 -0.00000000000E+00 -0.12448720412E+03  0.12448720412E+03  0.00000000000E+00 0.  1.
         25    1    1    2    0    0  0.20605489531E+03  0.40270896470E+02  0.19997222690E+03  0.31574397304E+03  0.12500000000E+03 0.  0.
         25    1    1    2    0    0 -0.20605489531E+03 -0.40270896470E+02  0.15751342780E+03  0.29071608989E+03  0.12500000000E+03 0.  0.
</event>
<event>
 4    0  0.2270578E-002  0.2693260E+03  0.7546771E-02  0.1101666E+00
         21   -1    0    0  502  501  0.00000000000E+00  0.00000000000E+00  0.28069737678E+03  0.28069737678E+03  0.00000000000E+00 0. -1.
         21   -1    0    0  501  502 -0.00000000000E+00 -0.00000000000E+00 -0.25841535558E+03  0.25841535558E+03  0.00000000000E+00 0. -1.
         25    1    1    2    0    0  0.22452166765E+03  0.77992057081E+02 -0.93404153523E+01  0.26870985015E+03  0.12500000000E+03 0.  0.
         25    1    1    2    0    0 -0.22452166765E+03 -0.77992057081E+02  0.31622436556E+02  0.27040288220E+03  0.12500000000E+03 0.  0.
</event>
<event>
 4    0  0.2270578E-002  0.1663649E+03  0.7546771E-02  0.1181693E+00
         21   -1    0    0  502  501  0.00000000000E+00  0.00000000000E+00  0.31151461166E+03  0.31151461166E+03  0.00000000000E+00 0.  1.
         21   -1    0    0  501  502 -0.00000000000E+00 -0.00000000000E+00 -0.88847484523E+02  0.88847484523E+02  0.00000000000E+00 0.  1.
         25    1    1    2    0    0 -0.54322131050E+02  0.95356512425E+02  0.10781903052E+03  0.19822639008E+03  0.12500000000E+03 0.  0.
         25    1    1    2    0    0  0.54322131050E+02 -0.95356512425E+02  0.11484809662E+03  0.20213570610E+03  0.12500000000E+03 0.  0.
</event>
<event>
 4    0  0.2270578E-002  0.1927522E+03  0.7546771E-02  0.1156002E+00
         21   -1    0    0  502  501  0.00000000000E+00  0.00000000000E+00  0.14943226018E+03  0.14943226018E+03  0.00000000000E+00 0. -1.
         21   -1    0    0  501  502 -0.00000000000E+00 -0.00000000000E+00 -0.24863045772E+03  0.24863045772E+03  0.00000000000E+00 0. -1.
         25    1    1    2    0    0  0.42462612250E+02  0.78025918045E+02 -0.17018214786E+03  0.22908094809E+03  0.12500000000E+03 0.  0.
         25    1    1    2    0    0 -0.42462612250E+02 -0.78025918045E+02  0.70983950325E+02  0.16898176981E+03  0.12500000000E+03 0.  0.
</event>
<event>
 4    0  0.2270578E-002  0.3351792E+03  0.7546771E-02  0.1068868E+00
         21   -1    0    0  502  501  0.00000000000E+00  0.00000000000E+00  0.12897084082E+04  0.12897084082E+04  0.00000000000E+00 0. -1.
         21   -1    0    0  501  502 -0.00000000000E+00 -0.00000000000E+00 -0.87108897958E+02  0.87108897958E+02  0.00000000000E+00 0. -1.
         25    1    1    2    0    0  0.15173828258E+03  0.12195924603E+03  0.10994236724E+04  0.11235016580E+04  0.12500000000E+03 0.  0.
         25    1    1    2    0    0 -0.15173828258E+03 -0.12195924603E+03  0.10317583786E+03  0.25331564817E+03  0.12500000000E+03 0.  0.
</event>
<event>
 4    0  0.2270578E-002  0.1871832E+03  0.7546771E-02  0.1161027E+00
         21   -1    0    0  502  501  0.00000000000E+00  0.00000000000E+00  0.91101242453E+03  0.91101242453E+03  0.00000000000E+00 0.  1.
         21   -1    0    0  501  502 -0.00000000000E+00 -0.00000000000E+00 -0.38459998612E+02  0.38459998612E+02  0.00000000000E+00 0.  1.
         25    1    1    2    0    0 -0.41362115383E+02 -0.10694055361E+03  0.63702873885E+03  0.65922509109E+03  0.12500000000E+03 0.  0.
         25    1    1    2    0    0  0.41362115383E+02  0.10694055361E+03  0.23552368706E+03  0.29024733205E+03  0.12500000000E+03 0.  0.
</event>
<event>
 4    0  0.2270578E-002  0.2820914E+03  0.7546771E-02  0.1094552E+00
         21   -1    0    0  502  501  0.00000000000E+00  0.00000000000E+00  0.75628470914E+03  0.75628470914E+03  0.00000000000E+00 0.  1.
         21   -1    0    0  501  502 -0.00000000000E+00 -0.00000000000E+00 -0.10521907702E+03  0.10521907702E+03  0.00000000000E+00 0.  1.
         25    1    1    2    0    0 -0.13384670537E+03 -0.20855226928E+03  0.24855067343E+03  0.37257405549E+03  0.12500000000E+03 0.  0.
         25    1    1    2    0    0  0.13384670537E+03  0.20855226928E+03  0.40251495870E+03  0.48892973067E+03  0.12500000000E+03 0.  0.
</event>
<event>
 4    0  0.2270578E-002  0.2056346E+03  0.7546771E-02  0.1145070E+00
         21   -1    0    0  502  501  0.00000000000E+00  0.00000000000E+00  0.12146000998E+03  0.12146000998E+03  0.00000000000E+00 0. -1.
         21   -1    0    0  501  502 -0.00000000000E+00 -0.00000000000E+00 -0.34814427215E+03  0.34814427215E+03  0.00000000000E+00 0. -1.
         25    1    1    2    0    0 -0.14256001502E+03 -0.48160384004E+02 -0.18571925944E+03  0.26973954808E+03  0.12500000000E+03 0.  0.
         25    1    1    2    0    0  0.14256001502E+03  0.48160384004E+02 -0.40965002734E+02  0.19986473405E+03  0.12500000000E+03 0.  0.
</event>
<event>
 4    0  0.2270578E-002  0.2207200E+03  0.7546771E-02  0.1133347E+00
         21   -1    0    0  502  501  0.00000000000E+00  0.00000000000E+00  0.27629920142E+03  0.27629920142E+03  0.00000000000E+00 0.  1.
         21   -1    0    0  501  502 -0.00000000000E+00 -0.00000000000E+00 -0.17632086060E+03  0.17632086060E+03  0.00000000000E+00 0.  1.
         25    1    1    2    0    0 -0.11529694062E+02 -0.10826752304E+03 -0.99432665345E+02  0.19330454037E+03  0.12500000000E+03 0.  0.
         25    1    1    2    0    0  0.11529694062E+02  0.10826752304E+03  0.19941100617E+03  0.25931552165E+03  0.12500000000E+03 0.  0.
</event>
<event>
 4    0  0.2270578E-002  0.2318843E+03  0.7546771E-02  0.1125320E+00
         21   -1    0    0  502  501  0.00000000000E+00  0.00000000000E+00  0.10460486062E+03  0.10460486062E+03  0.00000000000E+00 0.  1.
         21   -1    0    0  501  502 -0.00000000000E+00 -0.00000000000E+00 -0.51403277269E+03  0.51403277269E+03  0.00000000000E+00 0.  1.
         25    1    1    2    0    0  0.17212722347E+03 -0.62286789552E+02 -0.29555785288E+03  0.36944129386E+03  0.12500000000E+03 0.  0.
         25    1    1    2    0    0 -0.17212722347E+03  0.62286789552E+02 -0.11387005919E+03  0.24919633945E+03  0.12500000000E+03 0.  0.
</event>
<event>
 4    0  0.2270578E-002  0.1688679E+03  0.7546771E-02  0.1179034E+00
         21   -1    0    0  502  501  0.00000000000E+00  0.00000000000E+00  0.37679324054E+03  0.37679324054E+03  0.00000000000E+00 0.  1.
         21   -1    0    0  501  502 -0.00000000000E+00 -0.00000000000E+00 -0.75681728646E+02  0.75681728646E+02  0.00000000000E+00 0.  1.
         25    1    1    2    0    0 -0.82037506380E+02 -0.65786520017E+02  0.93191732669E+02  0.18806306843E+03  0.12500000000E+03 0.  0.
         25    1    1    2    0    0  0.82037506380E+02  0.65786520017E+02  0.20791977922E+03  0.26441190075E+03  0.12500000000E+03 0.  0.
</event>
<event>
 4    0  0.2270578E-002  0.2277499E+03  0.7546771E-02  0.1128234E+00
         21   -1    0    0  502  501  0.00000000000E+00  0.00000000000E+00  0.10049232714E+04  0.10049232714E+04  0.00000000000E+00 0. -1.
         21   -1    0    0  501  502 -0.00000000000E+00 -0.00000000000E+00 -0.51615900139E+02  0.51615900139E+02  0.00000000000E+00 0. -1.
         25    1    1    2    0    0  0.14275900735E+03  0.88191631069E+02  0.26806325507E+03  0.34006000454E+03  0.12500000000E+03 0.  0.
         25    1    1    2    0    0 -0.14275900735E+03 -0.88191631069E+02  0.68524411621E+03  0.71647916702E+03  0.12500000000E+03 0.  0.
</event>
<event>
 4    0  0.2270578E-002  0.2457412E+03  0.7546771E-02  0.1116026E+00
         21   -1    0    0  502  501  0.00000000000E+00  0.00000000000E+00  0.98072034294E+02  0.98072034294E+02  0.00000000000E+00 0. -1.
         21   -1    0    0  501  502 -0.00000000000E+00 -0.00000000000E+00 -0.61575883543E+03  0.61575883543E+03  0.00000000000E+00 0. -1.
         25    1    1    2    0    0 -0.19719655795E+03 -0.52779704236E+02 -0.33959943517E+03  0.41548159528E+03  0.12500000000E+03 0.  0.
         25    1    1    2    0    0  0.19719655795E+03  0.52779704236E+02 -0.17808736596E+03  0.29834927444E+03  0.12500000000E+03 0.  0.
</event>
<event>
 4    0  0.2270578E-002  0.2101252E+03  0.7546771E-02  0.1141467E+00
         21   -1    0    0  502  501  0.00000000000E+00  0.00000000000E+00  0.27695855304E+03  0.27695855304E+03  0.00000000000E+00 0.  1.
         21   -1    0    0  501  502 -0.00000000000E+00 -0.00000000000E+00 -0.15941958607E+03  0.15941958607E+03  0.00000000000E+00 0.  1.
         25    1    1    2    0    0 -0.31414068404E+01  0.12398467049E+03 -0.60284561878E+02  0.18612172187E+03  0.12500000000E+03 0.  0.
         25    1    1    2    0    0  0.31414068404E+01 -0.12398467049E+03  0.17782352885E+03  0.25025641723E+03  0.12500000000E+03 0.  0.
</event>
<event>
 4    0  0.2270578E-002  0.2058641E+03  0.7546771E-02  0.1144884E+00
         21   -1    0    0  502  501  0.00000000000E+00  0.00000000000E+00  0.28966351468E+03  0.28966351468E+03  0.00000000000E+00 0. -1.
         21   -1    0    0  501  502 -0.00000000000E+00 -0.00000000000E+00 -0.14630773372E+03  0.14630773372E+03  0.00000000000E+00 0. -1.
         25    1    1    2    0    0  0.12523209097E+03 -0.98806483478E+02  0.33364310719E+02  0.20538737794E+03  0.12500000000E+03 0.  0.
         25    1    1    2    0    0 -0.12523209097E+03  0.98806483478E+02  0.10999147024E+03  0.23058387045E+03  0.12500000000E+03 0.  0.
</event>
<event>
 4    0  0.2270578E-002  0.1669664E+03  0.7546771E-02  0.1181049E+00
         21   -1    0    0  502  501  0.00000000000E+00  0.00000000000E+00  0.21115348688E+03  0.21115348688E+03  0.00000000000E+00 0. -1.
         21   -1    0    0  501  502 -0.00000000000E+00 -0.00000000000E+00 -0.13202613437E+03  0.13202613437E+03  0.00000000000E+00 0. -1.
         25    1    1    2    0    0  0.96328219062E+02 -0.51540073768E+02  0.21258268501E+02  0.16736910997E+03  0.12500000000E+03 0.  0.
         25    1    1    2    0    0 -0.96328219062E+02  0.51540073768E+02  0.57869084010E+02  0.17581051128E+03  0.12500000000E+03 0.  0.
</event>
<event>
 4    0  0.2270578E-002  0.2031049E+03  0.7546771E-02  0.1147146E+00
         21   -1    0    0  502  501  0.00000000000E+00  0.00000000000E+00  0.15439493619E+03  0.15439493619E+03  0.00000000000E+00 0. -1.
         21   -1    0    0  501  502 -0.00000000000E+00 -0.00000000000E+00 -0.26718225652E+03  0.26718225652E+03  0.00000000000E+00 0. -1.
         25    1    1    2    0    0  0.57299730641E+02 -0.11555612692E+03 -0.15479687297E+03  0.23711505537E+03  0.12500000000E+03 0.  0.
         25    1    1    2    0    0 -0.57299730641E+02  0.11555612692E+03  0.42009552643E+02  0.18446213734E+03  0.12500000000E+03 0.  0.
</event>
<event>
 4    0  0.2270578E-002  0.2715092E+03  0.7546771E-02  0.1100419E+00
         21   -1    0    0  502  501  0.00000000000E+00  0.00000000000E+00  0.12324344342E+03  0.12324344342E+03  0.00000000000E+00 0.  1.
         21   -1    0    0  501  502 -0.00000000000E+00 -0.00000000000E+00 -0.59814347164E+03  0.59814347164E+03  0.00000000000E+00 0.  1.
         25    1    1    2    0    0  0.11768832756E+03  0.17899615887E+03 -0.38419756046E+03  0.45729960944E+03  0.12500000000E+03 0.  0.
         25    1    1    2    0    0 -0.11768832756E+03 -0.17899615887E+03 -0.90702467761E+02  0.26408730563E+03  0.12500000000E+03 0.  0.
</event>
<event>
 4    0  0.2270578E-002  0.2282328E+03  0.7546771E-02  0.1127890E+00
         21   -1    0    0  502  501  0.00000000000E+00  0.00000000000E+00  0.26682609665E+03  0.26682609665E+03  0.00000000000E+00 0. -1.
         21   -1    0    0  501  502 -0.00000000000E+00 -0.00000000000E+00 -0.19522153306E+03  0.19522153306E+03  0.00000000000E+00 0. -1.
         25    1    1    2    0    0 -0.55428620879E+01 -0.14958565062E+03  0.15582125952E+03  0.24962342660E+03  0.12500000000E+03 0.  0.
         25    1    1    2    0    0  0.55428620879E+01  0.14958565062E+03 -0.84216695931E+02  0.21242420311E+03  0.12500000000E+03 0.  0.
</event>
<event>
 4    0  0.2270578E-002  0.1786678E+03  0.7546771E-02  0.1169099E+00
         21   -1    0    0  502  501  0.00000000000E+00  0.00000000000E+00  0.87102771659E+02  0.87102771659E+02  0.00000000000E+00 0.  1.
         21   -1    0    0  501  502 -0.00000000000E+00 -0.00000000000E+00 -0.36648868935E+03  0.36648868935E+03  0.00000000000E+00 0.  1.
         25    1    1    2    0    0 -0.26893532277E+02 -0.87250717702E+02 -0.26432398301E+02  0.15703382278E+03  0.12500000000E+03 0.  0.
         25    1    1    2    0    0  0.26893532277E+02  0.87250717702E+02 -0.25295351939E+03  0.29655763822E+03  0.12500000000E+03 0.  0.
</event>
<event>
 4    0  0.2270578E-002  0.1924634E+03  0.7546771E-02  0.1156258E+00
         21   -1    0    0  502  501  0.00000000000E+00  0.00000000000E+00  0.18037994381E+02  0.18037994381E+02  0.00000000000E+00 0. -1.
         21   -1    0    0  501  502 -0.00000000000E+00 -0.00000000000E+00 -0.20535626009E+04  0.20535626009E+04  0.00000000000E+00 0. -1.
         25    1    1    2    0    0 -0.20647184561E+02 -0.46088370322E+02 -0.27853843366E+03  0.30944967787E+03  0.12500000000E+03 0.  0.
         25    1    1    2    0    0  0.20647184561E+02  0.46088370322E+02 -0.17569861729E+04  0.17621509175E+04  0.12500000000E+03 0.  0.
</event>
<event>
 4    0  0.2270578E-002  0.2639603E+03  0.7546771E-02  0.1104787E+00
         21   -1    0    0  502  501  0.00000000000E+00  0.00000000000E+00  0.19945191742E+03  0.19945191742E+03  0.00000000000E+00 0. -1.
         21   -1    0    0  501  502 -0.00000000000E+00 -0.00000000000E+00 -0.34933239760E+03  0.34933239760E+03  0.00000000000E+00 0. -1.
         25    1    1    2    0    0 -0.37369867976E+02 -0.22942905045E+03 -0.79074905797E+02  0.27552139110E+03  0.12500000000E+03 0.  0.
         25    1    1    2    0    0  0.37369867976E+02  0.22942905045E+03 -0.70805574382E+02  0.27326292392E+03  0.12500000000E+03 0.  0.
</event>
<event>
 4    0  0.2270578E-002  0.1967359E+03  0.7546771E-02  0.1152522E+00
         21   -1    0    0  502  501  0.00000000000E+00  0.00000000000E+00  0.26801390965E+03  0.26801390965E+03  0.00000000000E+00 0. -1.
         21   -1    0    0  501  502 -0.00000000000E+00 -0.00000000000E+00 -0.14441426886E+03  0.14441426886E+03  0.00000000000E+00 0. -1.
         25    1    1    2    0    0  0.13474937747E+03  0.65839008837E+02  0.36385840904E+02  0.19859783290E+03  0.12500000000E+03 0.  0.
         25    1    1    2    0    0 -0.13474937747E+03 -0.65839008837E+02  0.87213799890E+02  0.21383034561E+03  0.12500000000E+03 0.  0.
</event>
<event>
 4    0  0.2270578E-002  0.2231784E+03  0.7546771E-02  0.1131535E+00
         21   -1    0    0  502  501  0.00000000000E+00  0.00000000000E+00  0.14357664928E+03  0.14357664928E+03  0.00000000000E+00 0. -1.
         21   -1    0    0  501  502 -0.00000000000E+00 -0.00000000000E+00 -0.34691303673E+03  0.34691303673E+03  0.00000000000E+00 0. -1.
         25    1    1    2    0    0  0.14917973791E+03  0.80553670320E+02 -0.18271801141E+03  0.27884468741E+03  0.12500000000E+03 0.  0.
         25    1    1    2    0    0 -0.14917973791E+03 -0.80553670320E+02 -0.20618376036E+02  0.21164499860E+03  0.12500000000E+03 0.  0.
</event>
<event>
 4    0  0.2270578E-002  0.2787836E+03  0.7546771E-02  0.1096355E+00
         21   -1    0    0  502  501  0.00000000000E+00  0.00000000000E+00  0.21943038365E+03  0.21943038365E+03  0.00000000000E+00 0. -1.
         21   -1    0    0  501  502 -0.00000000000E+00 -0.00000000000E+00 -0.35419122107E+03  0.35419122107E+03  0.00000000000E+00 0. -1.
         25    1    1    2    0    0  0.23847340012E+02  0.23898326989E+03 -0.13572837446E+03  0.30286777734E+03  0.12500000000E+03 0.  0.
         25    1    1    2    0    0 -0.23847340012E+02 -0.23898326989E+03  0.96753704295E+00  0.27075382738E+03  0.12500000000E+03 0.  0.
</event>
<event>
 4    0  0.2270578E-002  0.1999611E+03  0.7546771E-02  0.1149772E+00
         21   -1    0    0  502  501  0.00000000000E+00  0.00000000000E+00  0.21196036344E+03  0.21196036344E+03  0.00000000000E+00 0.  1.
         21   -1    0    0  501  502 -0.00000000000E+00 -0.00000000000E+00 -0.18864113813E+03  0.18864113813E+03  0.00000000000E+00 0.  1.
         25    1    1    2    0    0  0.31224255857E+02  0.13728395599E+03  0.79135780817E+02  0.20422857423E+03  0.12500000000E+03 0.  0.
         25    1    1    2    0    0 -0.31224255857E+02 -0.13728395599E+03 -0.55816555512E+02  0.19637292735E+03  0.12500000000E+03 0.  0.
</event>
<event>
 4    0  0.2270578E-002  0.1998849E+03  0.7546771E-02  0.1149836E+00
         21   -1    0    0  502  501  0.00000000000E+00  0.00000000000E+00  0.92916435919E+02  0.92916435919E+02  0.00000000000E+00 0. -1.
         21   -1    0    0  501  502 -0.00000000000E+00 -0.00000000000E+00 -0.42999897227E+03  0.42999897227E+03  0.00000000000E+00 0. -1.
         25    1    1    2    0    0 -0.68795113330E+02  0.13987863473E+03 -0.17572619979E+03  0.26608926578E+03  0.12500000000E+03 0.  0.
         25    1    1    2    0    0  0.68795113330E+02 -0.13987863473E+03 -0.16135633656E+03  0.25682614240E+03  0.12500000000E+03 0.  0.
</event>
<event>
 4    0  0.2270578E-002  0.2552144E+03  0.7546771E-02  0.1110053E+00
         21   -1    0    0  502  501  0.00000000000E+00  0.00000000000E+00  0.20020270027E+04  0.20020270027E+04  0.00000000000E+00 0.  1.
         21   -1    0    0  501  502 -0.00000000000E+00 -0.00000000000E+00 -0.32534227711E+02  0.32534227711E+02  0.00000000000E+00 0.  1.
         25    1    1    2    0    0  0.17539459436E+02 -0.13863317521E+03  0.29455380393E+03  0.34916147169E+03  0.12500000000E+03 0.  0.
         25    1    1    2    0    0 -0.17539459436E+02  0.13863317521E+03  0.16749389711E+04  0.16853997588E+04  0.12500000000E+03 0.  0.
</event>
<event>
 4    0  0.2270578E-002  0.2657170E+03  0.7546771E-02  0.1103756E+00
         21   -1    0    0  502  501  0.00000000000E+00  0.00000000000E+00  0.20888059420E+04  0.20888059420E+04  0.00000000000E+00 0. -1.
         21   -1    0    0  501  502 -0.00000000000E+00 -0.00000000000E+00 -0.33801851247E+02  0.33801851247E+02  0.00000000000E+00 0. -1.
         25    1    1    2    0    0  0.12229158015E+03  0.79988352377E+02  0.29507320198E+03  0.35220244408E+03  0.12500000000E+03 0.  0.
         25    1    1    2    0    0 -0.12229158015E+03 -0.79988352377E+02  0.17599308887E+04  0.17704053491E+04  0.12500000000E+03 0.  0.
</event>
<event>
 4    0  0.2270578E-002  0.1786938E+03  0.7546771E-02  0.1169073E+00
         21   -1    0    0  502  501  0.00000000000E+00  0.00000000000E+00  0.60648010469E+02  0.60648010469E+02  0.00000000000E+00 0. -1.
         21   -1    0    0  501  502 -0.00000000000E+00 -0.00000000000E+00 -0.52650502833E+03  0.52650502833E+03  0.00000000000E+00 0. -1.
         25    1    1    2    0    0 -0.48545360502E+02 -0.24857182709E+02 -0.42262470811E+03  0.44408464898E+03  0.12500000000E+03 0.  0.
         25    1    1    2    0    0  0.48545360502E+02  0.24857182709E+02 -0.43232309755E+02  0.14306838982E+03  0.12500000000E+03 0.  0.
</event>
<event>
 4    0  0.2270578E-002  0.2405611E+03  0.7546771E-02  0.1119420E+00
         21   -1    0    0  502  501  0.00000000000E+00  0.00000000000E+00  0.90939009743E+02  0.90939009743E+02  0.00000000000E+00 0. -1.
         21   -1    0    0  501  502 -0.00000000000E+00 -0.00000000000E+00 -0.63635681088E+03  0.63635681088E+03  0.00000000000E+00 0. -1.
         25    1    1    2    0    0  0.11905339254E+03 -0.32905307834E+01 -0.19487502484E+02  0.17375068524E+03  0.12500000000E+03 0.  0.
         25    1    1    2    0    0 -0.11905339254E+03  0.32905307834E+01 -0.52593029866E+03  0.55354513539E+03  0.12500000000E+03 0.  0.
</event>
<event>
 4    0  0.2270578E-002  0.2265844E+03  0.7546771E-02  0.1129067E+00
         21   -1    0    0  502  501  0.00000000000E+00  0.00000000000E+00  0.17197132708E+03  0.17197132708E+03  0.00000000000E+00 0. -1.
         21   -1    0    0  501  502 -0.00000000000E+00 -0.00000000000E+00 -0.29854094262E+03  0.29854094262E+03  0.00000000000E+00 0. -1.
         25    1    1    2    0    0 -0.44846069289E+02 -0.79799239389E+01  0.12714856780E+03  0.18402882223E+03  0.12500000000E+03 0.  0.
         25    1    1    2    0    0  0.44846069289E+02  0.79799239389E+01 -0.25371818334E+03  0.28648344747E+03  0.12500000000E+03 0.  0.
</event>
<event>
 4    0  0.2270578E-002  0.1578758E+03  0.7546771E-02  0.1191116E+00
         21   -1    0    0  502  501  0.00000000000E+00  0.00000000000E+00  0.50612270133E+02  0.50612270133E+02  0.00000000000E+00 0. -1.
         21   -1    0    0  501  502 -0.00000000000E+00 -0.00000000000E+00 -0.49246507644E+03  0.49246507644E+03  0.00000000000E+00 0. -1.
         25    1    1    2    0    0  0.66026642665E+02 -0.21571107717E+02 -0.10587022937E+03  0.17792789466E+03  0.12500000000E+03 0.  0.
         25    1    1    2    0    0 -0.66026642665E+02  0.21571107717E+02 -0.33598257694E+03  0.36514945192E+03  0.12500000000E+03 0.  0.
</event>
<event>
 4    0  0.2270578E-002  0.1499185E+03  0.7546771E-02  0.1200573E+00
         21   -1    0    0  502  501  0.00000000000E+00  0.00000000000E+00  0.95096810367E+02  0.95096810367E+02  0.00000000000E+00 0. -1.
         21   -1    0    0  501  502 -0.00000000000E+00 -0.00000000000E+00 -0.23634408557E+03  0.23634408557E+03  0.00000000000E+00 0. -1.
         25    1    1    2    0    0 -0.47294231967E+01 -0.21049078121E+02 -0.15895316012E+03  0.20336307001E+03  0.12500000000E+03 0.  0.
         25    1    1    2    0    0  0.47294231967E+01  0.21049078121E+02  0.17705884912E+02  0.12807782593E+03  0.12500000000E+03 0.  0.
</event>
<event>
 4    0  0.2270578E-002  0.1623831E+03  0.7546771E-02  0.1186032E+00
         21   -1    0    0  502  501  0.00000000000E+00  0.00000000000E+00  0.72212347519E+02  0.72212347519E+02  0.00000000000E+00 0.  1.
         21   -1    0    0  501  502 -0.00000000000E+00 -0.00000000000E+00 -0.36514894435E+03  0.36514894435E+03  0.00000000000E+00 0.  1.
         25    1    1    2    0    0  0.27466204071E+02  0.68315706671E+02 -0.48225603636E+02  0.15287948518E+03  0.12500000000E+03 0.  0.
         25    1    1    2    0    0 -0.27466204071E+02 -0.68315706671E+02 -0.24471099319E+03  0.28448180668E+03  0.12500000000E+03 0.  0.
</event>
<event>
 4    0  0.2270578E-002  0.2033386E+03  0.7546771E-02  0.1146952E+00
         21   -1    0    0  502  501  0.00000000000E+00  0.00000000000E+00  0.79108893352E+03  0.79108893352E+03  0.00000000000E+00 0. -1.
         21   -1    0    0  501  502 -0.00000000000E+00 -0.00000000000E+00 -0.52265397900E+02  0.52265397900E+02  0.00000000000E+00 0. -1.
         25    1    1    2    0    0  0.28333606146E+02  0.14704980092E+03  0.25037057212E+03  0.31739070650E+03  0.12500000000E+03 0.  0.
         25    1    1    2    0    0 -0.28333606146E+02 -0.14704980092E+03  0.48845296350E+03  0.52596362492E+03  0.12500000000E+03 0.  0.
</event>
<event>
 4    0  0.2270578E-002  0.2997325E+03  0.7546771E-02  0.1085374E+00
         21   -1    0    0  502  501  0.00000000000E+00  0.00000000000E+00  0.29759861285E+03  0.29759861285E+03  0.00000000000E+00 0.  1.
         21   -1    0    0  501  502 -0.00000000000E+00 -0.00000000000E+00 -0.30188163876E+03  0.30188163876E+03  0.00000000000E+00 0.  1.
         25    1    1    2    0    0  0.33405652447E+02 -0.75932904984E+02 -0.26163380654E+03  0.30159408549E+03  0.12500000000E+03 0.  0.
         25    1    1    2    0    0 -0.33405652447E+02  0.75932904984E+02  0.25735078063E+03  0.29788616612E+03  0.12500000000E+03 0.  0.
</event>
<event>
 4    0  0.2270578E-002  0.2503256E+03  0.7546771E-02  0.1113099E+00
         21   -1    0    0  502  501  0.00000000000E+00  0.00000000000E+00  0.38436653673E+03  0.38436653673E+03  0.00000000000E+00 0.  1.
         21   -1    0    0  501  502 -0.00000000000E+00 -0.00000000000E+00 -0.16302902036E+03  0.16302902036E+03  0.00000000000E+00 0.  1.
         25    1    1    2    0    0 -0.12379241867E+03  0.15810674474E+03  0.20026880845E+03  0.30992725161E+03  0.12500000000E+03 0.  0.
         25    1    1    2    0    0  0.12379241867E+03 -0.15810674474E+03  0.21068707912E+02  0.23746830548E+03  0.12500000000E+03 0.  0.
</event>
<event>
 4    0  0.2270578E-002  0.2133704E+03  0.7546771E-02  0.1138924E+00
         21   -1    0    0  502  501  0.00000000000E+00  0.00000000000E+00  0.26985108036E+04  0.26985108036E+04  0.00000000000E+00 0.  1.
         21   -1    0    0  501  502 -0.00000000000E+00 -0.00000000000E+00 -0.16871133869E+02  0.16871133869E+02  0.00000000000E+00 0.  1.
         25    1    1    2    0    0  0.14755589249E+03 -0.84925684247E+02  0.15334878585E+04  0.15479648334E+04  0.12500000000E+03 0.  0.
         25    1    1    2    0    0 -0.14755589249E+03  0.84925684247E+02  0.11481518112E+04  0.11674171041E+04  0.12500000000E+03 0.  0.
</event>
<event>
 4    0  0.2270578E-002  0.1891671E+03  0.7546771E-02  0.1159215E+00
         21   -1    0    0  502  501  0.00000000000E+00  0.00000000000E+00  0.28052660489E+03  0.28052660489E+03  0.00000000000E+00 0. -1.
         21   -1    0    0  501  502 -0.00000000000E+00 -0.00000000000E+00 -0.12756072621E+03  0.12756072621E+03  0.00000000000E+00 0. -1.
         25    1    1    2    0    0 -0.74631163592E+02 -0.87181726629E+02 -0.13689997204E+02  0.17024359037E+03  0.12500000000E+03 0.  0.
         25    1    1    2    0    0  0.74631163592E+02  0.87181726629E+02  0.16665587589E+03  0.23784374073E+03  0.12500000000E+03 0.  0.
</event>
<event>
 4    0  0.2270578E-002  0.1613692E+03  0.7546771E-02  0.1187160E+00
         21   -1    0    0  502  501  0.00000000000E+00  0.00000000000E+00  0.18087027360E+04  0.18087027360E+04  0.00000000000E+00 0. -1.
         21   -1    0    0  501  502 -0.00000000000E+00 -0.00000000000E+00 -0.14397076498E+02  0.14397076498E+02  0.00000000000E+00 0. -1.
         25    1    1    2    0    0 -0.59093107891E+02 -0.14181019568E+02  0.43401863343E+03  0.45573048052E+03  0.12500000000E+03 0.  0.
         25    1    1    2    0    0  0.59093107891E+02  0.14181019568E+02  0.13602870260E+04  0.13673693319E+04  0.12500000000E+03 0.  0.
</event>
<event>
 4    0  0.2270578E-002  0.2402269E+03  0.7546771E-02  0.1119642E+00
         21   -1    0    0  502  501  0.00000000000E+00  0.00000000000E+00  0.35595170380E+03  0.35595170380E+03  0.00000000000E+00 0. -1.
         21   -1    0    0  501  502 -0.00000000000E+00 -0.00000000000E+00 -0.16212589023E+03  0.16212589023E+03  0.00000000000E+00 0. -1.
         25    1    1    2    0    0 -0.16781475128E+03  0.91285160354E+02  0.16297412489E+02  0.22887851996E+03  0.12500000000E+03 0.  0.
         25    1    1    2    0    0  0.16781475128E+03 -0.91285160354E+02  0.17752840108E+03  0.28919907406E+03  0.12500000000E+03 0.  0.
</event>
<event>
 4    0  0.2270578E-002  0.1866355E+03  0.7546771E-02  0.1161531E+00
         21   -1    0    0  502  501  0.00000000000E+00  0.00000000000E+00  0.93229418464E+02  0.93229418464E+02  0.00000000000E+00 0.  1.
         21   -1    0    0  501  502 -0.00000000000E+00 -0.00000000000E+00 -0.37362467533E+03  0.37362467533E+03  0.00000000000E+00 0.  1.
         25    1    1    2    0    0 -0.50239773642E+02  0.10049680633E+03 -0.24168391774E+03  0.29438029661E+03  0.12500000000E+03 0.  0.
         25    1    1    2    0    0  0.50239773642E+02 -0.10049680633E+03 -0.38711339124E+02  0.17247379718E+03  0.12500000000E+03 0.  0.
</event>
<event>
 4    0  0.2270578E-002  0.2327335E+03  0.7546771E-02  0.1124730E+00
         21   -1    0    0  502  501  0.00000000000E+00  0.00000000000E+00  0.13778466103E+04  0.13778466103E+04  0.00000000000E+00 0.  1.
         21   -1    0    0  501  502 -0.00000000000E+00 -0.00000000000E+00 -0.39311261116E+02  0.39311261116E+02  0.00000000000E+00 0.  1.
         25    1    1    2    0    0  0.15976985307E+03 -0.63048355253E+02  0.95871848890E+03  0.98197130407E+03  0.12500000000E+03 0.  0.
         25    1    1    2    0    0 -0.15976985307E+03  0.63048355253E+02  0.37981686031E+03  0.43518656737E+03  0.12500000000E+03 0.  0.
</event>
<event>
 4    0  0.2270578E-002  0.2330681E+03  0.7546771E-02  0.1124499E+00
         21   -1    0    0  502  501  0.00000000000E+00  0.00000000000E+00  0.51895216056E+03  0.51895216056E+03  0.00000000000E+00 0. -1.
         21   -1    0    0  501  502 -0.00000000000E+00 -0.00000000000E+00 -0.10467384290E+03  0.10467384290E+03  0.00000000000E+00 0. -1.
         25    1    1    2    0    0  0.11153896591E+03  0.13089506624E+03  0.33491208333E+03  0.39669328560E+03  0.12500000000E+03 0.  0.
         25    1    1    2    0    0 -0.11153896591E+03 -0.13089506624E+03  0.79366234334E+02  0.22693271786E+03  0.12500000000E+03 0.  0.
</event>
<event>
 4    0  0.2270578E-002  0.2071348E+03  0.7546771E-02  0.1143855E+00
         21   -1    0    0  502  501  0.00000000000E+00  0.00000000000E+00  0.22920056173E+03  0.22920056173E+03  0.00000000000E+00 0. -1.
         21   -1    0    0  501  502 -0.00000000000E+00 -0.00000000000E+00 -0.18719336567E+03  0.18719336567E+03  0.00000000000E+00 0. -1.
         25    1    1    2    0    0  0.13886470809E+03 -0.65131248742E+02  0.82590449515E+02  0.21441004889E+03  0.12500000000E+03 0.  0.
         25    1    1    2    0    0 -0.13886470809E+03  0.65131248742E+02 -0.40583253459E+02  0.20198387851E+03  0.12500000000E+03 0.  0.
</event>
<event>
 4    0  0.2270578E-002  0.2576144E+03  0.7546771E-02  0.1108585E+00
         21   -1    0    0  502  501  0.00000000000E+00  0.00000000000E+00  0.92933662961E+03  0.92933662961E+03  0.00000000000E+00 0. -1.
         21   -1    0    0  501  502 -0.00000000000E+00 -0.00000000000E+00 -0.71411348059E+02  0.71411348059E+02  0.00000000000E+00 0. -1.
         25    1    1    2    0    0  0.59660319093E+02 -0.81547469105E+02  0.81999921045E+03  0.83560340385E+03  0.12500000000E+03 0.  0.
         25    1    1    2    0    0 -0.59660319093E+02  0.81547469105E+02  0.37926071101E+02  0.16514457382E+03  0.12500000000E+03 0.  0.
</event>
<event>
 4    0  0.2270578E-002  0.1966737E+03  0.7546771E-02  0.1152576E+00
         21   -1    0    0  502  501  0.00000000000E+00  0.00000000000E+00  0.27894230697E+03  0.27894230697E+03  0.00000000000E+00 0.  1.
         21   -1    0    0  501  502 -0.00000000000E+00 -0.00000000000E+00 -0.13866863050E+03  0.13866863050E+03  0.00000000000E+00 0.  1.
         25    1    1    2    0    0 -0.63691756669E+02  0.13145860600E+02  0.21580870139E+03  0.25773600663E+03  0.12500000000E+03 0.  0.
         25    1    1    2    0    0  0.63691756669E+02 -0.13145860600E+02 -0.75535024921E+02  0.15987493083E+03  0.12500000000E+03 0.  0.
</event>
<event>
 4    0  0.2270578E-002  0.1802393E+03  0.7546771E-02  0.1167572E+00
         21   -1    0    0  502  501  0.00000000000E+00  0.00000000000E+00  0.35191016332E+02  0.35191016332E+02  0.00000000000E+00 0. -1.
         21   -1    0    0  501  502 -0.00000000000E+00 -0.00000000000E+00 -0.92313881188E+03  0.92313881188E+03  0.00000000000E+00 0. -1.
         25    1    1    2    0    0  0.38384667349E+02  0.29934428835E+02 -0.76400771472E+03  0.77569468276E+03  0.12500000000E+03 0.  0.
         25    1    1    2    0    0 -0.38384667349E+02 -0.29934428835E+02 -0.12394008083E+03  0.18263514545E+03  0.12500000000E+03 0.  0.
</event>
<event>
 4    0  0.2270578E-002  0.2010857E+03  0.7546771E-02  0.1148826E+00
         21   -1    0    0  502  501  0.00000000000E+00  0.00000000000E+00  0.30130528177E+04  0.30130528177E+04  0.00000000000E+00 0. -1.
         21   -1    0    0  501  502 -0.00000000000E+00 -0.00000000000E+00 -0.13420101686E+02  0.13420101686E+02  0.00000000000E+00 0. -1.
         25    1    1    2    0    0 -0.37875647315E+02  0.14824598138E+03  0.17812918040E+04  0.17922156474E+04  0.12500000000E+03 0.  0.
         25    1    1    2    0    0  0.37875647315E+02 -0.14824598138E+03  0.12183409120E+04  0.12342572720E+04  0.12500000000E+03 0.  0.
</event>
<event>
 4    0  0.2270578E-002  0.3006621E+03  0.7546771E-02  0.1084910E+00
         21   -1    0    0  502  501  0.00000000000E+00  0.00000000000E+00  0.42915608311E+03  0.42915608311E+03  0.00000000000E+00 0. -1.
         21   -1    0    0  501  502 -0.00000000000E+00 -0.00000000000E+00 -0.21064055670E+03  0.21064055670E+03  0.00000000000E+00 0. -1.
         25    1    1    2    0    0 -0.25597542615E+03 -0.13160232774E+02  0.78941361771E+01  0.28527868463E+03  0.12500000000E+03 0.  0.
         25    1    1    2    0    0  0.25597542615E+03  0.13160232774E+02  0.21062139023E+03  0.35451795518E+03  0.12500000000E+03 0.  0.
</event>
<event>
 4    0  0.2270578E-002  0.2004483E+03  0.7546771E-02  0.1149361E+00
         21   -1    0    0  502  501  0.00000000000E+00  0.00000000000E+00  0.12563269621E+03  0.12563269621E+03  0.00000000000E+00 0. -1.
         21   -1    0    0  501  502 -0.00000000000E+00 -0.00000000000E+00 -0.31981723745E+03  0.31981723745E+03  0.00000000000E+00 0. -1.
         25    1    1    2    0    0 -0.10564916322E+03  0.89168372969E+02 -0.17905873789E+03  0.25845652641E+03  0.12500000000E+03 0.  0.
         25    1    1    2    0    0  0.10564916322E+03 -0.89168372969E+02 -0.15125803348E+02  0.18699340725E+03  0.12500000000E+03 0.  0.
</event>
<event>
 4    0  0.2270578E-002  0.2349321E+03  0.7546771E-02  0.1123216E+00
         21   -1    0    0  502  501  0.00000000000E+00  0.00000000000E+00  0.18783584651E+03  0.18783584651E+03  0.00000000000E+00 0.  1.
         21   -1    0    0  501  502 -0.00000000000E+00 -0.00000000000E+00 -0.29383672957E+03  0.29383672957E+03  0.00000000000E+00 0. -1.
         25    1    1    2    0    0  0.19273640419E+03  0.45216860063E+02 -0.33117514196E+02  0.23646068527E+03  0.12500000000E+03 0.  0.
         25    1    1    2    0    0 -0.19273640419E+03 -0.45216860063E+02 -0.72883368865E+02  0.24521189080E+03  0.12500000000E+03 0.  0.
</event>
<event>
 4    0  0.2270578E-002  0.1818666E+03  0.7546771E-02  0.1166009E+00
         21   -1    0    0  502  501  0.00000000000E+00  0.00000000000E+00  0.22963610972E+03  0.22963610972E+03  0.00000000000E+00 0. -1.
         21   -1    0    0  501  502 -0.00000000000E+00 -0.00000000000E+00 -0.14403420736E+03  0.14403420736E+03  0.00000000000E+00 0. -1.
         25    1    1    2    0    0  0.55475410187E+02  0.34267327418E+02 -0.75223233655E+02  0.15979770257E+03  0.12500000000E+03 0.  0.
         25    1    1    2    0    0 -0.55475410187E+02 -0.34267327418E+02  0.16082513602E+03  0.21387261452E+03  0.12500000000E+03 0.  0.
</event>
<event>
 4    0  0.2270578E-002  0.2048831E+03  0.7546771E-02  0.1145683E+00
         21   -1    0    0  502  501  0.00000000000E+00  0.00000000000E+00  0.46613849757E+03  0.46613849757E+03  0.00000000000E+00 0. -1.
         21   -1    0    0  501  502 -0.00000000000E+00 -0.00000000000E+00 -0.90052786605E+02  0.90052786605E+02  0.00000000000E+00 0. -1.
         25    1    1    2    0    0 -0.14578359881E+03  0.65276130416E+02  0.22734101843E+03  0.30466829429E+03  0.12500000000E+03 0.  0.
         25    1    1    2    0    0  0.14578359881E+03 -0.65276130416E+02  0.14874469253E+03  0.25152298988E+03  0.12500000000E+03 0.  0.
</event>
<event>
 4    0  0.2270578E-002  0.2771870E+03  0.7546771E-02  0.1097235E+00
         21   -1    0    0  502  501  0.00000000000E+00  0.00000000000E+00  0.21475598630E+03  0.21475598630E+03  0.00000000000E+00 0.  1.
         21   -1    0    0  501  502 -0.00000000000E+00 -0.00000000000E+00 -0.35776709732E+03  0.35776709732E+03  0.00000000000E+00 0.  1.
         25    1    1    2    0    0  0.11602212018E+02  0.11112562895E+02  0.18345637124E+03  0.22257434831E+03  0.12500000000E+03 0.  0.
         25    1    1    2    0    0 -0.11602212018E+02 -0.11112562895E+02 -0.32646748226E+03  0.34994873532E+03  0.12500000000E+03 0.  0.
</event>
<event>
 4    0  0.2270578E-002  0.2408318E+03  0.7546771E-02  0.1119240E+00
         21   -1    0    0  502  501  0.00000000000E+00  0.00000000000E+00  0.32166519095E+03  0.32166519095E+03  0.00000000000E+00 0. -1.
         21   -1    0    0  501  502 -0.00000000000E+00 -0.00000000000E+00 -0.18031158764E+03  0.18031158764E+03  0.00000000000E+00 0. -1.
         25    1    1    2    0    0 -0.18754819041E+03  0.84764643893E+02  0.66561513503E+02  0.24982954921E+03  0.12500000000E+03 0.  0.
         25    1    1    2    0    0  0.18754819041E+03 -0.84764643893E+02  0.74792089809E+02  0.25214722937E+03  0.12500000000E+03 0.  0.
</event>
<event>
 4    0  0.2270578E-002  0.3243315E+03  0.7546771E-02  0.1073673E+00
         21   -1    0    0  502  501  0.00000000000E+00  0.00000000000E+00  0.38979934290E+03  0.38979934290E+03  0.00000000000E+00 0. -1.
         21   -1    0    0  501  502 -0.00000000000E+00 -0.00000000000E+00 -0.26985916610E+03  0.26985916610E+03  0.00000000000E+00 0. -1.
         25    1    1    2    0    0  0.19100529145E+03  0.20505587510E+03  0.16679832336E+03  0.34925293693E+03  0.12500000000E+03 0.  0.
         25    1    1    2    0    0 -0.19100529145E+03 -0.20505587510E+03 -0.46858146557E+02  0.31040557207E+03  0.12500000000E+03 0.  0.
</event>
<event>
 4    0  0.2270578E-002  0.2342223E+03  0.7546771E-02  0.1123703E+00
         21   -1    0    0  502  501  0.00000000000E+00  0.00000000000E+00  0.20795935451E+02  0.20795935451E+02  0.00000000000E+00 0. -1.
         21   -1    0    0  501  502 -0.00000000000E+00 -0.00000000000E+00 -0.26380206520E+04  0.26380206520E+04  0.00000000000E+00 0. -1.
         25    1    1    2    0    0 -0.19397621212E+03 -0.13138439208E+02 -0.10935499069E+04  0.11177100645E+04  0.12500000000E+03 0.  0.
         25    1    1    2    0    0  0.19397621212E+03  0.13138439208E+02 -0.15236748097E+04  0.15411065229E+04  0.12500000000E+03 0.  0.
</event>
<event>
 4    0  0.2270578E-002  0.1838724E+03  0.7546771E-02  0.1164107E+00
         21   -1    0    0  502  501  0.00000000000E+00  0.00000000000E+00  0.24206101786E+03  0.24206101786E+03  0.00000000000E+00 0.  1.
         21   -1    0    0  501  502 -0.00000000000E+00 -0.00000000000E+00 -0.13967169692E+03  0.13967169692E+03  0.00000000000E+00 0.  1.
         25    1    1    2    0    0 -0.20493686763E+01  0.13333622134E+03  0.71989760604E+02  0.19644407210E+03  0.12500000000E+03 0.  0.
         25    1    1    2    0    0  0.20493686763E+01 -0.13333622134E+03  0.30399560334E+02  0.18528864267E+03  0.12500000000E+03 0.  0.
</event>
<event>
 4    0  0.2270578E-002  0.1790921E+03  0.7546771E-02  0.1168685E+00
         21   -1    0    0  502  501  0.00000000000E+00  0.00000000000E+00  0.11006488894E+03  0.11006488894E+03  0.00000000000E+00 0.  1.
         21   -1    0    0  501  502 -0.00000000000E+00 -0.00000000000E+00 -0.29140964664E+03  0.29140964664E+03  0.00000000000E+00 0.  1.
         25    1    1    2    0    0  0.32046630882E+02  0.12353401560E+03 -0.76435646073E+02  0.19430658134E+03  0.12500000000E+03 0.  0.
         25    1    1    2    0    0 -0.32046630882E+02 -0.12353401560E+03 -0.10490911163E+03  0.20716795424E+03  0.12500000000E+03 0.  0.
</event>
<event>
 4    0  0.2270578E-002  0.1702369E+03  0.7546771E-02  0.1177601E+00
         21   -1    0    0  502  501  0.00000000000E+00  0.00000000000E+00  0.42124950603E+02  0.42124950603E+02  0.00000000000E+00 0. -1.
         21   -1    0    0  501  502 -0.00000000000E+00 -0.00000000000E+00 -0.68796790829E+03  0.68796790829E+03  0.00000000000E+00 0. -1.
         25    1    1    2    0    0  0.85677808095E+02  0.58005405004E+02 -0.43331456101E+03  0.46270057552E+03  0.12500000000E+03 0.  0.
         25    1    1    2    0    0 -0.85677808095E+02 -0.58005405004E+02 -0.21252839668E+03  0.26739228337E+03  0.12500000000E+03 0.  0.
</event>
<event>
 4    0  0.2270578E-002  0.2393617E+03  0.7546771E-02  0.1120219E+00
         21   -1    0    0  502  501  0.00000000000E+00  0.00000000000E+00  0.55837705861E+03  0.55837705861E+03  0.00000000000E+00 0.  1.
         21   -1    0    0  501  502 -0.00000000000E+00 -0.00000000000E+00 -0.10260810969E+03  0.10260810969E+03  0.00000000000E+00 0.  1.
         25    1    1    2    0    0 -0.63055277361E+02 -0.17119810778E+03  0.10145762511E+03  0.24331750821E+03  0.12500000000E+03 0.  0.
         25    1    1    2    0    0  0.63055277361E+02  0.17119810778E+03  0.35431132381E+03  0.41766766010E+03  0.12500000000E+03 0.  0.
</event>
<event>
 4    0  0.2270578E-002  0.1868707E+03  0.7546771E-02  0.1161314E+00
         21   -1    0    0  502  501  0.00000000000E+00  0.00000000000E+00  0.35750896960E+03  0.35750896960E+03  0.00000000000E+00 0.  1.
         21   -1    0    0  501  502 -0.00000000000E+00 -0.00000000000E+00 -0.97677717099E+02  0.97677717099E+02  0.00000000000E+00 0.  1.
         25    1    1    2    0    0  0.61601925764E+02  0.62817606969E+02  0.26083374529E+03  0.30232448079E+03  0.12500000000E+03 0.  0.
         25    1    1    2    0    0 -0.61601925764E+02 -0.62817606969E+02 -0.10024927914E+01  0.15286220591E+03  0.12500000000E+03 0.  0.
</event>
<event>
 4    0  0.2270578E-002  0.2185549E+03  0.7546771E-02  0.1134965E+00
         21   -1    0    0  502  501  0.00000000000E+00  0.00000000000E+00  0.64545722169E+03  0.64545722169E+03  0.00000000000E+00 0. -1.
         21   -1    0    0  501  502 -0.00000000000E+00 -0.00000000000E+00 -0.74003700365E+02  0.74003700365E+02  0.00000000000E+00 0. -1.
         25    1    1    2    0    0  0.78411519402E+02 -0.47725511705E+02  0.53919849544E+03  0.56105802581E+03  0.12500000000E+03 0.  0.
         25    1    1    2    0    0 -0.78411519402E+02  0.47725511705E+02  0.32255025880E+02  0.15840289624E+03  0.12500000000E+03 0.  0.
</event>
<event>
 4    0  0.2270578E-002  0.2136141E+03  0.7546771E-02  0.1138736E+00
         21   -1    0    0  502  501  0.00000000000E+00  0.00000000000E+00  0.20979684995E+02  0.20979684995E+02  0.00000000000E+00 0.  1.
         21   -1    0    0  501  502 -0.00000000000E+00 -0.00000000000E+00 -0.21750074941E+04  0.21750074941E+04  0.00000000000E+00 0.  1.
         25    1    1    2    0    0  0.17095816299E+03  0.27743799148E+02 -0.10611209912E+04  0.10824043468E+04  0.12500000000E+03 0.  0.
         25    1    1    2    0    0 -0.17095816299E+03 -0.27743799148E+02 -0.10929068179E+04  0.11135828323E+04  0.12500000000E+03 0.  0.
</event>
<event>
 4    0  0.2270578E-002  0.2359809E+03  0.7546771E-02  0.1122500E+00
         21   -1    0    0  502  501  0.00000000000E+00  0.00000000000E+00  0.50874337509E+02  0.50874337509E+02  0.00000000000E+00 0. -1.
         21   -1    0    0  501  502 -0.00000000000E+00 -0.00000000000E+00 -0.10945983688E+04  0.10945983688E+04  0.00000000000E+00 0. -1.
         25    1    1    2    0    0  0.19054960376E+03  0.73244113054E+01 -0.66947685449E+03  0.70723903823E+03  0.12500000000E+03 0.  0.
         25    1    1    2    0    0 -0.19054960376E+03 -0.73244113054E+01 -0.37424717680E+03  0.43823366808E+03  0.12500000000E+03 0.  0.
</event>
<event>
 4    0  0.2270578E-002  0.2662374E+03  0.7546771E-02  0.1103453E+00
         21   -1    0    0  502  501  0.00000000000E+00  0.00000000000E+00  0.62258813728E+02  0.62258813728E+02  0.00000000000E+00 0.  1.
         21   -1    0    0  501  502 -0.00000000000E+00 -0.00000000000E+00 -0.11385107378E+04  0.11385107378E+04  0.00000000000E+00 0.  1.
         25    1    1    2    0    0  0.13972632986E+03  0.86258710109E+02 -0.91744322407E+03  0.94036752481E+03  0.12500000000E+03 0.  0.
         25    1    1    2    0    0 -0.13972632986E+03 -0.86258710109E+02 -0.15880870002E+03  0.26040202674E+03  0.12500000000E+03 0.  0.
</event>
<event>
 4    0  0.2270578E-002  0.1997526E+03  0.7546771E-02  0.1149948E+00
         21   -1    0    0  502  501  0.00000000000E+00  0.00000000000E+00  0.25088835175E+03  0.25088835175E+03  0.00000000000E+00 0. -1.
         21   -1    0    0  501  502 -0.00000000000E+00 -0.00000000000E+00 -0.15903933290E+03  0.15903933290E+03  0.00000000000E+00 0. -1.
         25    1    1    2    0    0 -0.34021578035E+02  0.12335779608E+03  0.13713390382E+03  0.22540035759E+03  0.12500000000E+03 0.  0.
         25    1    1    2    0    0  0.34021578035E+02 -0.12335779608E+03 -0.45284884966E+02  0.18452732706E+03  0.12500000000E+03 0.  0.
</event>
<event>
 4    0  0.2270578E-002  0.3996064E+03  0.7546771E-02  0.1043916E+00
         21   -1    0    0  502  501  0.00000000000E+00  0.00000000000E+00  0.93399971496E+03  0.93399971496E+03  0.00000000000E+00 0. -1.
         21   -1    0    0  501  502 -0.00000000000E+00 -0.00000000000E+00 -0.17096925972E+03  0.17096925972E+03  0.00000000000E+00 0. -1.
         25    1    1    2    0    0  0.10578636315E+03  0.22991204647E+03 -0.95594200708E+01  0.28242996699E+03  0.12500000000E+03 0.  0.
         25    1    1    2    0    0 -0.10578636315E+03 -0.22991204647E+03  0.77258987531E+03  0.82253900769E+03  0.12500000000E+03 0.  0.
</event>
<event>
 4    0  0.2270578E-002  0.1684230E+03  0.7546771E-02  0.1179502E+00
         21   -1    0    0  502  501  0.00000000000E+00  0.00000000000E+00  0.96975762062E+02  0.96975762062E+02  0.00000000000E+00 0.  1.
         21   -1    0    0  501  502 -0.00000000000E+00 -0.00000000000E+00 -0.29250933273E+03  0.29250933273E+03  0.00000000000E+00 0.  1.
         25    1    1    2    0    0 -0.46923249044E+02  0.68184447649E+02 -0.18650934879E+03  0.23929406050E+03  0.12500000000E+03 0.  0.
         25    1    1    2    0    0  0.46923249044E+02 -0.68184447649E+02 -0.90242218753E+01  0.15019103429E+03  0.12500000000E+03 0.  0.
</event>
<event>
 4    0  0.2270578E-002  0.1801583E+03  0.7546771E-02  0.1167650E+00
         21   -1    0    0  502  501  0.00000000000E+00  0.00000000000E+00  0.75602858217E+03  0.75602858217E+03  0.00000000000E+00 0.  1.
         21   -1    0    0  501  502 -0.00000000000E+00 -0.00000000000E+00 -0.42930929307E+02  0.42930929307E+02  0.00000000000E+00 0.  1.
         25    1    1    2    0    0  0.99548930174E+01 -0.54215637507E+02  0.96126068442E+02  0.16704387531E+03  0.12500000000E+03 0.  0.
         25    1    1    2    0    0 -0.99548930174E+01  0.54215637507E+02  0.61697158442E+03  0.63191563616E+03  0.12500000000E+03 0.  0.
</event>
<event>
 4    0  0.2270578E-002  0.4560136E+03  0.7546771E-02  0.1025944E+00
         21   -1    0    0  502  501  0.00000000000E+00  0.00000000000E+00  0.35375687142E+03  0.35375687142E+03  0.00000000000E+00 0. -1.
         21   -1    0    0  501  502 -0.00000000000E+00 -0.00000000000E+00 -0.58782854905E+03  0.58782854905E+03  0.00000000000E+00 0. -1.
         25    1    1    2    0    0  0.19692026328E+03  0.21834582403E+03 -0.45295923435E+03  0.55430096242E+03  0.12500000000E+03 0.  0.
         25    1    1    2    0    0 -0.19692026328E+03 -0.21834582403E+03  0.21888755671E+03  0.38728445805E+03  0.12500000000E+03 0.  0.
</event>
<event>
 4    0  0.2270578E-002  0.2199180E+03  0.7546771E-02  0.1133944E+00
         21   -1    0    0  502  501  0.00000000000E+00  0.00000000000E+00  0.95669064361E+02  0.95669064361E+02  0.00000000000E+00 0. -1.
         21   -1    0    0  501  502 -0.00000000000E+00 -0.00000000000E+00 -0.50553341295E+03  0.50553341295E+03  0.00000000000E+00 0. -1.
         25    1    1    2    0    0  0.13263779853E+03  0.10454726094E+03 -0.11617979117E+03  0.24009510459E+03  0.12500000000E+03 0.  0.
         25    1    1    2    0    0 -0.13263779853E+03 -0.10454726094E+03 -0.29368455742E+03  0.36110737272E+03  0.12500000000E+03 0.  0.
</event>
<event>
 4    0  0.2270578E-002  0.3131750E+03  0.7546771E-02  0.1078834E+00
         21   -1    0    0  502  501  0.00000000000E+00  0.00000000000E+00  0.27581549462E+03  0.27581549462E+03  0.00000000000E+00 0.  1.
         21   -1    0    0  501  502 -0.00000000000E+00 -0.00000000000E+00 -0.35559495385E+03  0.35559495385E+03  0.00000000000E+00 0.  1.
         25    1    1    2    0    0 -0.92037562923E+02  0.26788183294E+02 -0.31275178924E+03  0.35018166918E+03  0.12500000000E+03 0.  0.
         25    1    1    2    0    0  0.92037562923E+02 -0.26788183294E+02  0.23297233001E+03  0.28122877930E+03  0.12500000000E+03 0.  0.
</event>
<event>
 4    0  0.2270578E-002  0.1823361E+03  0.7546771E-02  0.1165561E+00
         21   -1    0    0  502  501  0.00000000000E+00  0.00000000000E+00  0.16219692402E+03  0.16219692402E+03  0.00000000000E+00 0.  1.
         21   -1    0    0  501  502 -0.00000000000E+00 -0.00000000000E+00 -0.20497581680E+03  0.20497581680E+03  0.00000000000E+00 0.  1.
         25    1    1    2    0    0 -0.40813813842E+02 -0.12238938279E+03  0.10074128678E+02  0.17992058383E+03  0.12500000000E+03 0.  0.
         25    1    1    2    0    0  0.40813813842E+02  0.12238938279E+03 -0.52853021457E+02  0.18725215699E+03  0.12500000000E+03 0.  0.
</event>
<event>
 4    0  0.2270578E-002  0.1921721E+03  0.7546771E-02  0.1156517E+00
         21   -1    0    0  502  501  0.00000000000E+00  0.00000000000E+00  0.26519979644E+03  0.26519979644E+03  0.00000000000E+00 0.  1.
         21   -1    0    0  501  502 -0.00000000000E+00 -0.00000000000E+00 -0.13925387402E+03  0.13925387402E+03  0.00000000000E+00 0.  1.
         25    1    1    2    0    0 -0.11345404902E+03  0.37291518279E+02 -0.25338219541E+02  0.17472694110E+03  0.12500000000E+03 0.  0.
         25    1    1    2    0    0  0.11345404902E+03 -0.37291518279E+02  0.15128414196E+03  0.22972672936E+03  0.12500000000E+03 0.  0.
</event>
<event>
 4    0  0.2270578E-002  0.1954340E+03  0.7546771E-02  0.1153650E+00
         21   -1    0    0  502  501  0.00000000000E+00  0.00000000000E+00  0.17881680036E+03  0.17881680036E+03  0.00000000000E+00 0.  1.
         21   -1    0    0  501  502 -0.00000000000E+00 -0.00000000000E+00 -0.21359536308E+03  0.21359536308E+03  0.00000000000E+00 0.  1.
         25    1    1    2    0    0 -0.93606598505E+02  0.90591353434E+02  0.57742534931E+02  0.18954732639E+03  0.12500000000E+03 0.  0.
         25    1    1    2    0    0  0.93606598505E+02 -0.90591353434E+02 -0.92521097650E+02  0.20286483705E+03  0.12500000000E+03 0.  0.
</event>
<event>
 4    0  0.2270578E-002  0.3439626E+03  0.7546771E-02  0.1065121E+00
         21   -1    0    0  502  501  0.00000000000E+00  0.00000000000E+00  0.63583440850E+03  0.63583440850E+03  0.00000000000E+00 0. -1.
         21   -1    0    0  501  502 -0.00000000000E+00 -0.00000000000E+00 -0.18607083452E+03  0.18607083452E+03  0.00000000000E+00 0. -1.
         25    1    1    2    0    0  0.22167786410E+03 -0.20354778737E+03  0.93390553303E+02  0.33899789472E+03  0.12500000000E+03 0.  0.
         25    1    1    2    0    0 -0.22167786410E+03  0.20354778737E+03  0.35637302068E+03  0.48290734830E+03  0.12500000000E+03 0.  0.
</event>
<event>
 4    0  0.2270578E-002  0.1640024E+03  0.7546771E-02  0.1184251E+00
         21   -1    0    0  502  501  0.00000000000E+00  0.00000000000E+00  0.68115076212E+02  0.68115076212E+02  0.00000000000E+00 0.  1.
         21   -1    0    0  501  502 -0.00000000000E+00 -0.00000000000E+00 -0.39487271455E+03  0.39487271455E+03  0.00000000000E+00 0.  1.
         25    1    1    2    0    0  0.29370148255E+02  0.25535196403E+02 -0.23950666483E+02  0.13309127052E+03  0.12500000000E+03 0.  0.
         25    1    1    2    0    0 -0.29370148255E+02 -0.25535196403E+02 -0.30280697186E+03  0.32989652024E+03  0.12500000000E+03 0.  0.
</event>
<event>
 4    0  0.2270578E-002  0.3232705E+03  0.7546771E-02  0.1074154E+00
         21   -1    0    0  502  501  0.00000000000E+00  0.00000000000E+00  0.10366432117E+03  0.10366432117E+03  0.00000000000E+00 0.  1.
         21   -1    0    0  501  502 -0.00000000000E+00 -0.00000000000E+00 -0.10080980175E+04  0.10080980175E+04  0.00000000000E+00 0.  1.
         25    1    1    2    0    0  0.22006425307E+03 -0.16489704888E+03 -0.25421043934E+03  0.39480027822E+03  0.12500000000E+03 0.  0.
         25    1    1    2    0    0 -0.22006425307E+03  0.16489704888E+03 -0.65022325699E+03  0.71696206046E+03  0.12500000000E+03 0.  0.
</event>
<event>
 4    0  0.2270578E-002  0.2687408E+03  0.7546771E-02  0.1102002E+00
         21   -1    0    0  502  501  0.00000000000E+00  0.00000000000E+00  0.49283717064E+02  0.49283717064E+02  0.00000000000E+00 0.  1.
         21   -1    0    0  501  502 -0.00000000000E+00 -0.00000000000E+00 -0.14654253162E+04  0.14654253162E+04  0.00000000000E+00 0.  1.
         25    1    1    2    0    0  0.48457451591E+02  0.68494074942E+02 -0.80708607296E+02  0.17081698454E+03  0.12500000000E+03 0.  0.
         25    1    1    2    0    0 -0.48457451591E+02 -0.68494074942E+02 -0.13354329919E+04  0.13438920487E+04  0.12500000000E+03 0.  0.
</event>
<event>
 4    0  0.2270578E-002  0.3441004E+03  0.7546771E-02  0.1065063E+00
         21   -1    0    0  502  501  0.00000000000E+00  0.00000000000E+00  0.66866374499E+03  0.66866374499E+03  0.00000000000E+00 0. -1.
         21   -1    0    0  501  502 -0.00000000000E+00 -0.00000000000E+00 -0.17707719362E+03  0.17707719362E+03  0.00000000000E+00 0.  1.
         25    1    1    2    0    0  0.20342943544E+03 -0.24394571409E+03  0.29917765307E+03  0.45390011536E+03  0.12500000000E+03 0.  0.
         25    1    1    2    0    0 -0.20342943544E+03  0.24394571409E+03  0.19240889829E+03  0.39184082325E+03  0.12500000000E+03 0.  0.
</event>
<event>
 4    0  0.2270578E-002  0.3612403E+03  0.7546771E-02  0.1058094E+00
         21   -1    0    0  502  501  0.00000000000E+00  0.00000000000E+00  0.19782419679E+03  0.19782419679E+03  0.00000000000E+00 0.  1.
         21   -1    0    0  501  502 -0.00000000000E+00 -0.00000000000E+00 -0.65964906592E+03  0.65964906592E+03  0.00000000000E+00 0.  1.
         25    1    1    2    0    0  0.29918753078E+03 -0.92545426932E+02 -0.38470732198E+03  0.51156872285E+03  0.12500000000E+03 0.  0.
         25    1    1    2    0    0 -0.29918753078E+03  0.92545426932E+02 -0.77117547152E+02  0.34590453986E+03  0.12500000000E+03 0.  0.
</event>
<event>
 4    0  0.2270578E-002  0.3051838E+03  0.7546771E-02  0.1082678E+00
         21   -1    0    0  502  501  0.00000000000E+00  0.00000000000E+00  0.78167003099E+02  0.78167003099E+02  0.00000000000E+00 0. -1.
         21   -1    0    0  501  502 -0.00000000000E+00 -0.00000000000E+00 -0.11915152057E+04  0.11915152057E+04  0.00000000000E+00 0. -1.
         25    1    1    2    0    0  0.19843293613E+03  0.40082196840E+02 -0.15909082124E+03  0.28621163856E+03  0.12500000000E+03 0.  0.
         25    1    1    2    0    0 -0.19843293613E+03 -0.40082196840E+02 -0.95425738134E+03  0.98347057021E+03  0.12500000000E+03 0.  0.
</event>
<event>
 4    0  0.2270578E-002  0.1828884E+03  0.7546771E-02  0.1165037E+00
         21   -1    0    0  502  501  0.00000000000E+00  0.00000000000E+00  0.24201170492E+03  0.24201170492E+03  0.00000000000E+00 0. -1.
         21   -1    0    0  501  502 -0.00000000000E+00 -0.00000000000E+00 -0.13820882151E+03  0.13820882151E+03  0.00000000000E+00 0.  1.
         25    1    1    2    0    0  0.63170324544E+02  0.10687424884E+03  0.86525133055E+00  0.17617702356E+03  0.12500000000E+03 0.  0.
         25    1    1    2    0    0 -0.63170324544E+02 -0.10687424884E+03  0.10293763208E+03  0.20404350288E+03  0.12500000000E+03 0.  0.
</event>
<event>
 4    0  0.2270578E-002  0.2369334E+03  0.7546771E-02  0.1121853E+00
         21   -1    0    0  502  501  0.00000000000E+00  0.00000000000E+00  0.46208977222E+03  0.46208977222E+03  0.00000000000E+00 0. -1.
         21   -1    0    0  501  502 -0.00000000000E+00 -0.00000000000E+00 -0.12148597143E+03  0.12148597143E+03  0.00000000000E+00 0. -1.
         25    1    1    2    0    0 -0.85488190507E+02 -0.45378271054E+02  0.38763967064E+03  0.41863699365E+03  0.12500000000E+03 0.  0.
         25    1    1    2    0    0  0.85488190507E+02  0.45378271054E+02 -0.47035869848E+02  0.16493875000E+03  0.12500000000E+03 0.  0.
</event>
<event>
 4    0  0.2270578E-002  0.1835128E+03  0.7546771E-02  0.1164446E+00
         21   -1    0    0  502  501  0.00000000000E+00  0.00000000000E+00  0.45323174919E+03  0.45323174919E+03  0.00000000000E+00 0. -1.
         21   -1    0    0  501  502 -0.00000000000E+00 -0.00000000000E+00 -0.74304016006E+02  0.74304016006E+02  0.00000000000E+00 0. -1.
         25    1    1    2    0    0 -0.60831740964E+02 -0.92163898475E+02  0.79461343828E+02  0.18475332217E+03  0.12500000000E+03 0.  0.
         25    1    1    2    0    0  0.60831740964E+02  0.92163898475E+02  0.29946638935E+03  0.34278244302E+03  0.12500000000E+03 0.  0.
</event>
<event>
 4    0  0.2270578E-002  0.2128004E+03  0.7546771E-02  0.1139367E+00
         21   -1    0    0  502  501  0.00000000000E+00  0.00000000000E+00  0.31260784416E+03  0.31260784416E+03  0.00000000000E+00 0. -1.
         21   -1    0    0  501  502 -0.00000000000E+00 -0.00000000000E+00 -0.14485889388E+03  0.14485889388E+03  0.00000000000E+00 0. -1.
         25    1    1    2    0    0 -0.16061860874E+02 -0.23785548493E+02 -0.98649188221E+02  0.16180357854E+03  0.12500000000E+03 0.  0.
         25    1    1    2    0    0  0.16061860874E+02  0.23785548493E+02  0.26639813850E+03  0.29566315950E+03  0.12500000000E+03 0.  0.
</event>
<event>
 4    0  0.2270578E-002  0.2844454E+03  0.7546771E-02  0.1093285E+00
         21   -1    0    0  502  501  0.00000000000E+00  0.00000000000E+00  0.11251502072E+04  0.11251502072E+04  0.00000000000E+00 0. -1.
         21   -1    0    0  501  502 -0.00000000000E+00 -0.00000000000E+00 -0.71909694116E+02  0.71909694116E+02  0.00000000000E+00 0. -1.
         25    1    1    2    0    0  0.20556453361E+03 -0.91504317750E+02  0.27189571973E+03  0.37440900103E+03  0.12500000000E+03 0.  0.
         25    1    1    2    0    0 -0.20556453361E+03  0.91504317750E+02  0.78134479337E+03  0.82265090031E+03  0.12500000000E+03 0.  0.
</event>
<event>
 4    0  0.2270578E-002  0.2914064E+03  0.7546771E-02  0.1089617E+00
         21   -1    0    0  502  501  0.00000000000E+00  0.00000000000E+00  0.37107106251E+02  0.37107106251E+02  0.00000000000E+00 0.  1.
         21   -1    0    0  501  502 -0.00000000000E+00 -0.00000000000E+00 -0.22884489334E+04  0.22884489334E+04  0.00000000000E+00 0.  1.
         25    1    1    2    0    0  0.77110060039E+02 -0.64257190035E+02 -0.15466096178E+03  0.22275538362E+03  0.12500000000E+03 0.  0.
         25    1    1    2    0    0 -0.77110060039E+02  0.64257190035E+02 -0.20966808654E+04  0.21028006561E+04  0.12500000000E+03 0.  0.
</event>
<event>
 4    0  0.2270578E-002  0.1505731E+03  0.7546771E-02  0.1199771E+00
         21   -1    0    0  502  501  0.00000000000E+00  0.00000000000E+00  0.46281287415E+03  0.46281287415E+03  0.00000000000E+00 0.  1.
         21   -1    0    0  501  502 -0.00000000000E+00 -0.00000000000E+00 -0.48987970828E+02  0.48987970828E+02  0.00000000000E+00 0.  1.
         25    1    1    2    0    0 -0.70546478844E+02  0.42349748843E+02  0.23519571251E+03  0.27876931339E+03  0.12500000000E+03 0.  0.
         25    1    1    2    0    0  0.70546478844E+02 -0.42349748843E+02  0.17862919082E+03  0.23303153159E+03  0.12500000000E+03 0.  0.
</event>
<event>
 4    0  0.2270578E-002  0.2174699E+03  0.7546771E-02  0.1135784E+00
         21   -1    0    0  502  501  0.00000000000E+00  0.00000000000E+00  0.14062018653E+03  0.14062018653E+03  0.00000000000E+00 0. -1.
         21   -1    0    0  501  502 -0.00000000000E+00 -0.00000000000E+00 -0.33631829878E+03  0.33631829878E+03  0.00000000000E+00 0. -1.
         25    1    1    2    0    0 -0.12730474263E+03 -0.12088040331E+03 -0.12981102426E+03  0.25158392520E+03  0.12500000000E+03 0.  0.
         25    1    1    2    0    0  0.12730474263E+03  0.12088040331E+03 -0.65887087988E+02  0.22535456011E+03  0.12500000000E+03 0.  0.
</event>
<event>
 4    0  0.2270578E-002  0.2184930E+03  0.7546771E-02  0.1135012E+00
         21   -1    0    0  502  501  0.00000000000E+00  0.00000000000E+00  0.50925941948E+02  0.50925941948E+02  0.00000000000E+00 0. -1.
         21   -1    0    0  501  502 -0.00000000000E+00 -0.00000000000E+00 -0.93742345960E+03  0.93742345960E+03  0.00000000000E+00 0. -1.
         25    1    1    2    0    0  0.91644336519E+02 -0.10397277527E+03 -0.70018454466E+03  0.72463260967E+03  0.12500000000E+03 0.  0.
         25    1    1    2    0    0 -0.91644336519E+02  0.10397277527E+03 -0.18631297299E+03  0.26371679188E+03  0.12500000000E+03 0.  0.
</event>
<event>
 4    0  0.2270578E-002  0.2678523E+03  0.7546771E-02  0.1102515E+00
         21   -1    0    0  502  501  0.00000000000E+00  0.00000000000E+00  0.98291359823E+03  0.98291359823E+03  0.00000000000E+00 0. -1.
         21   -1    0    0  501  502 -0.00000000000E+00 -0.00000000000E+00 -0.72992018645E+02  0.72992018645E+02  0.00000000000E+00 0. -1.
         25    1    1    2    0    0 -0.18914984206E+02  0.17609256044E+03  0.14484927822E+03  0.26071570699E+03  0.12500000000E+03 0.  0.
         25    1    1    2    0    0  0.18914984206E+02 -0.17609256044E+03  0.76507230136E+03  0.79518990988E+03  0.12500000000E+03 0.  0.
</event>
<event>
 4    0  0.2270578E-002  0.3216715E+03  0.7546771E-02  0.1074883E+00
         21   -1    0    0  502  501  0.00000000000E+00  0.00000000000E+00  0.10473304937E+03  0.10473304937E+03  0.00000000000E+00 0. -1.
         21   -1    0    0  501  502 -0.00000000000E+00 -0.00000000000E+00 -0.98796483444E+03  0.98796483444E+03  0.00000000000E+00 0. -1.
         25    1    1    2    0    0 -0.10178987003E+03 -0.20256149872E+03 -0.11732300907E+03  0.28422179167E+03  0.12500000000E+03 0.  0.
         25    1    1    2    0    0  0.10178987003E+03  0.20256149872E+03 -0.76590877601E+03  0.80847609215E+03  0.12500000000E+03 0.  0.
</event>
<event>
 4    0  0.2270578E-002  0.2734465E+03  0.7546771E-02  0.1099323E+00
         21   -1    0    0  502  501  0.00000000000E+00  0.00000000000E+00  0.83298490220E+03  0.83298490220E+03  0.00000000000E+00 0.  1.
         21   -1    0    0  501  502 -0.00000000000E+00 -0.00000000000E+00 -0.89765146344E+02  0.89765146344E+02  0.00000000000E+00 0. -1.
         25    1    1    2    0    0  0.15592832667E+02 -0.20741292862E+03  0.15895670482E+03  0.29009566249E+03  0.12500000000E+03 0.  0.
         25    1    1    2    0    0 -0.15592832667E+02  0.20741292862E+03  0.58426305104E+03  0.63265438606E+03  0.12500000000E+03 0.  0.
</event>
<event>
 4    0  0.2270578E-002  0.4704497E+03  0.7546771E-02  0.1021793E+00
         21   -1    0    0  502  501  0.00000000000E+00  0.00000000000E+00  0.37423259955E+03  0.37423259955E+03  0.00000000000E+00 0. -1.
         21   -1    0    0  501  502 -0.00000000000E+00 -0.00000000000E+00 -0.59140462816E+03  0.59140462816E+03  0.00000000000E+00 0. -1.
         25    1    1    2    0    0  0.11730486181E+03 -0.39093213297E+03 -0.31154679540E+03  0.52846453894E+03  0.12500000000E+03 0.  0.
         25    1    1    2    0    0 -0.11730486181E+03  0.39093213297E+03  0.94374766790E+02  0.43717268876E+03  0.12500000000E+03 0.  0.
</event>
<event>
 4    0  0.2270578E-002  0.2570396E+03  0.7546771E-02  0.1108935E+00
         21   -1    0    0  502  501  0.00000000000E+00  0.00000000000E+00  0.36848679714E+02  0.36848679714E+02  0.00000000000E+00 0.  1.
         21   -1    0    0  501  502 -0.00000000000E+00 -0.00000000000E+00 -0.17929911896E+04  0.17929911896E+04  0.00000000000E+00 0.  1.
         25    1    1    2    0    0 -0.20352664111E+03  0.22893101811E+02 -0.12061818153E+04  0.12298157420E+04  0.12500000000E+03 0.  0.
         25    1    1    2    0    0  0.20352664111E+03 -0.22893101811E+02 -0.54996069460E+03  0.60002412731E+03  0.12500000000E+03 0.  0.
</event>
<event>
 4    0  0.2270578E-002  0.2466895E+03  0.7546771E-02  0.1115415E+00
         21   -1    0    0  502  501  0.00000000000E+00  0.00000000000E+00  0.89953524421E+02  0.89953524421E+02  0.00000000000E+00 0.  1.
         21   -1    0    0  501  502 -0.00000000000E+00 -0.00000000000E+00 -0.67652415756E+03  0.67652415756E+03  0.00000000000E+00 0.  1.
         25    1    1    2    0    0  0.13317183302E+03  0.74474260276E+02 -0.63124241942E+02  0.20710099583E+03  0.12500000000E+03 0.  0.
         25    1    1    2    0    0 -0.13317183302E+03 -0.74474260276E+02 -0.52344639120E+03  0.55937668615E+03  0.12500000000E+03 0.  0.
</event>
<event>
 4    0  0.2270578E-002  0.1462141E+03  0.7546771E-02  0.1205204E+00
         21   -1    0    0  502  501  0.00000000000E+00  0.00000000000E+00  0.92876928087E+03  0.92876928087E+03  0.00000000000E+00 0. -1.
         21   -1    0    0  501  502 -0.00000000000E+00 -0.00000000000E+00 -0.23018148202E+02  0.23018148202E+02  0.00000000000E+00 0. -1.
         25    1    1    2    0    0  0.71651101103E+02 -0.24110964666E+02  0.47302628435E+03  0.49506977750E+03  0.12500000000E+03 0.  0.
         25    1    1    2    0    0 -0.71651101103E+02  0.24110964666E+02  0.43272484832E+03  0.45671765157E+03  0.12500000000E+03 0.  0.
</event>
<event>
 4    0  0.2270578E-002  0.2104180E+03  0.7546771E-02  0.1141235E+00
         21   -1    0    0  502  501  0.00000000000E+00  0.00000000000E+00  0.11436870158E+03  0.11436870158E+03  0.00000000000E+00 0. -1.
         21   -1    0    0  501  502 -0.00000000000E+00 -0.00000000000E+00 -0.38713171019E+03  0.38713171019E+03  0.00000000000E+00 0. -1.
         25    1    1    2    0    0 -0.97207756002E+02  0.67903250029E+02  0.75627018536E+01  0.17245983199E+03  0.12500000000E+03 0.  0.
         25    1    1    2    0    0  0.97207756002E+02 -0.67903250029E+02 -0.28032571047E+03  0.32904057978E+03  0.12500000000E+03 0.  0.
</event>
<event>
 4    0  0.2270578E-002  0.2010421E+03  0.7546771E-02  0.1148863E+00
         21   -1    0    0  502  501  0.00000000000E+00  0.00000000000E+00  0.64152937757E+02  0.64152937757E+02  0.00000000000E+00 0. -1.
         21   -1    0    0  501  502 -0.00000000000E+00 -0.00000000000E+00 -0.63002473920E+03  0.63002473920E+03  0.00000000000E+00 0. -1.
         25    1    1    2    0    0  0.90394019945E+02 -0.12703113277E+03 -0.24491676774E+03  0.31609683746E+03  0.12500000000E+03 0.  0.
         25    1    1    2    0    0 -0.90394019945E+02  0.12703113277E+03 -0.32095503371E+03  0.37808083950E+03  0.12500000000E+03 0.  0.
</event>
<event>
 4    0  0.2270578E-002  0.2003932E+03  0.7546771E-02  0.1149408E+00
         21   -1    0    0  502  501  0.00000000000E+00  0.00000000000E+00  0.93113198458E+03  0.93113198458E+03  0.00000000000E+00 0.  1.
         21   -1    0    0  501  502 -0.00000000000E+00 -0.00000000000E+00 -0.43127549030E+02  0.43127549030E+02  0.00000000000E+00 0.  1.
         25    1    1    2    0    0  0.62264273694E+02 -0.34283063224E+02  0.78328292668E+03  0.79637259586E+03  0.12500000000E+03 0.  0.
         25    1    1    2    0    0 -0.62264273694E+02  0.34283063224E+02  0.10472150887E+03  0.17788693775E+03  0.12500000000E+03 0.  0.
</event>
<event>
 4    0  0.2270578E-002  0.2314389E+03  0.7546771E-02  0.1125631E+00
         21   -1    0    0  502  501  0.00000000000E+00  0.00000000000E+00  0.15241817166E+04  0.15241817166E+04  0.00000000000E+00 0.  1.
         21   -1    0    0  501  502 -0.00000000000E+00 -0.00000000000E+00 -0.35142780730E+02  0.35142780730E+02  0.00000000000E+00 0.  1.
         25    1    1    2    0    0 -0.10958674171E+03  0.14323491634E+03  0.49665818923E+03  0.54297315969E+03  0.12500000000E+03 0.  0.
         25    1    1    2    0    0  0.10958674171E+03 -0.14323491634E+03  0.99238074665E+03  0.10163513376E+04  0.12500000000E+03 0.  0.
</event>
<event>
 4    0  0.2270578E-002  0.2531483E+03  0.7546771E-02  0.1111331E+00
         21   -1    0    0  502  501  0.00000000000E+00  0.00000000000E+00  0.99480492829E+02  0.99480492829E+02  0.00000000000E+00 0.  1.
         21   -1    0    0  501  502 -0.00000000000E+00 -0.00000000000E+00 -0.64418742164E+03  0.64418742164E+03  0.00000000000E+00 0.  1.
         25    1    1    2    0    0  0.99872060334E+02 -0.14876923150E+03 -0.84523744758E+02  0.23425621892E+03  0.12500000000E+03 0.  0.
         25    1    1    2    0    0 -0.99872060334E+02  0.14876923150E+03 -0.46018318406E+03  0.50941169555E+03  0.12500000000E+03 0.  0.
</event>
<event>
 4    0  0.2270578E-002  0.1726780E+03  0.7546771E-02  0.1175084E+00
         21   -1    0    0  502  501  0.00000000000E+00  0.00000000000E+00  0.96454386893E+02  0.96454386893E+02  0.00000000000E+00 0.  1.
         21   -1    0    0  501  502 -0.00000000000E+00 -0.00000000000E+00 -0.30913782275E+03  0.30913782275E+03  0.00000000000E+00 0.  1.
         25    1    1    2    0    0 -0.86459708295E+02 -0.64128128626E+02 -0.16628306544E+03  0.23422799980E+03  0.12500000000E+03 0.  0.
         25    1    1    2    0    0  0.86459708295E+02  0.64128128626E+02 -0.46400370418E+02  0.17136420984E+03  0.12500000000E+03 0.  0.
</event>
<event>
 4    0  0.2270578E-002  0.2083855E+03  0.7546771E-02  0.1142851E+00
         21   -1    0    0  502  501  0.00000000000E+00  0.00000000000E+00  0.14394527261E+03  0.14394527261E+03  0.00000000000E+00 0.  1.
         21   -1    0    0  501  502 -0.00000000000E+00 -0.00000000000E+00 -0.30167375348E+03  0.30167375348E+03  0.00000000000E+00 0.  1.
         25    1    1    2    0    0  0.14863056024E+03  0.47904485345E+02 -0.16393834361E+02  0.20069788479E+03  0.12500000000E+03 0.  0.
         25    1    1    2    0    0 -0.14863056024E+03 -0.47904485345E+02 -0.14133464650E+03  0.24492114130E+03  0.12500000000E+03 0.  0.
</event>
<event>
 4    0  0.2270578E-002  0.2582538E+03  0.7546771E-02  0.1108197E+00
         21   -1    0    0  502  501  0.00000000000E+00  0.00000000000E+00  0.53681865143E+03  0.53681865143E+03  0.00000000000E+00 0. -1.
         21   -1    0    0  501  502 -0.00000000000E+00 -0.00000000000E+00 -0.12424129467E+03  0.12424129467E+03  0.00000000000E+00 0. -1.
         25    1    1    2    0    0 -0.10908502415E+03  0.16548774428E+03  0.34522510118E+03  0.41724226354E+03  0.12500000000E+03 0.  0.
         25    1    1    2    0    0  0.10908502415E+03 -0.16548774428E+03  0.67352255582E+02  0.24381768257E+03  0.12500000000E+03 0.  0.
</event>
<event>
 4    0  0.2270578E-002  0.2806749E+03  0.7546771E-02  0.1095321E+00
         21   -1    0    0  502  501  0.00000000000E+00  0.00000000000E+00  0.22547559561E+03  0.22547559561E+03  0.00000000000E+00 0. -1.
         21   -1    0    0  501  502 -0.00000000000E+00 -0.00000000000E+00 -0.34938775188E+03  0.34938775188E+03  0.00000000000E+00 0. -1.
         25    1    1    2    0    0  0.15586622518E+03 -0.10075118391E+03  0.11155810540E+03  0.25003058231E+03  0.12500000000E+03 0.  0.
         25    1    1    2    0    0 -0.15586622518E+03  0.10075118391E+03 -0.23547026166E+03  0.32483276518E+03  0.12500000000E+03 0.  0.
</event>
<event>
 4    0  0.2270578E-002  0.2919309E+03  0.7546771E-02  0.1089345E+00
         21   -1    0    0  502  501  0.00000000000E+00  0.00000000000E+00  0.27342493031E+03  0.27342493031E+03  0.00000000000E+00 0.  1.
         21   -1    0    0  501  502 -0.00000000000E+00 -0.00000000000E+00 -0.31168940403E+03  0.31168940403E+03  0.00000000000E+00 0.  1.
         25    1    1    2    0    0 -0.11189873276E+03 -0.22451965476E+03  0.62702306494E+02  0.28720546828E+03  0.12500000000E+03 0.  0.
         25    1    1    2    0    0  0.11189873276E+03  0.22451965476E+03 -0.10096678022E+03  0.29790886606E+03  0.12500000000E+03 0.  0.
</event>
<event>
 4    0  0.2270578E-002  0.2532025E+03  0.7546771E-02  0.1111297E+00
         21   -1    0    0  502  501  0.00000000000E+00  0.00000000000E+00  0.18132375123E+03  0.18132375123E+03  0.00000000000E+00 0.  1.
         21   -1    0    0  501  502 -0.00000000000E+00 -0.00000000000E+00 -0.35357487499E+03  0.35357487499E+03  0.00000000000E+00 0.  1.
         25    1    1    2    0    0 -0.21798829699E+03  0.20137208337E+02 -0.11116860747E+03  0.27551381830E+03  0.12500000000E+03 0.  0.
         25    1    1    2    0    0  0.21798829699E+03 -0.20137208337E+02 -0.61082516284E+02  0.25938480792E+03  0.12500000000E+03 0.  0.
</event>
<event>
 4    0  0.2270578E-002  0.3860225E+03  0.7546771E-02  0.1048730E+00
         21   -1    0    0  502  501  0.00000000000E+00  0.00000000000E+00  0.27941498872E+03  0.27941498872E+03  0.00000000000E+00 0.  1.
         21   -1    0    0  501  502 -0.00000000000E+00 -0.00000000000E+00 -0.53330472365E+03  0.53330472365E+03  0.00000000000E+00 0.  1.
         25    1    1    2    0    0  0.19651259739E+03  0.94478280830E+02  0.18148448517E+03  0.31000800770E+03  0.12500000000E+03 0.  0.
         25    1    1    2    0    0 -0.19651259739E+03 -0.94478280830E+02 -0.43537422010E+03  0.50271170466E+03  0.12500000000E+03 0.  0.
</event>
<event>
 4    0  0.2270578E-002  0.2510767E+03  0.7546771E-02  0.1112626E+00
         21   -1    0    0  502  501  0.00000000000E+00  0.00000000000E+00  0.84938256334E+03  0.84938256334E+03  0.00000000000E+00 0. -1.
         21   -1    0    0  501  502 -0.00000000000E+00 -0.00000000000E+00 -0.74218058133E+02  0.74218058133E+02  0.00000000000E+00 0. -1.
         25    1    1    2    0    0 -0.14398518138E+03  0.14995592964E+03  0.26843992659E+03  0.36180589752E+03  0.12500000000E+03 0.  0.
         25    1    1    2    0    0  0.14398518138E+03 -0.14995592964E+03  0.50672457862E+03  0.56179472395E+03  0.12500000000E+03 0.  0.
</event>
<event>
 4    0  0.2270578E-002  0.1759482E+03  0.7546771E-02  0.1171783E+00
         21   -1    0    0  502  501  0.00000000000E+00  0.00000000000E+00  0.31670581605E+04  0.31670581605E+04  0.00000000000E+00 0.  1.
         21   -1    0    0  501  502 -0.00000000000E+00 -0.00000000000E+00 -0.97749237995E+01  0.97749237995E+01  0.00000000000E+00 0.  1.
         25    1    1    2    0    0  0.51462713608E+01 -0.49965276716E+02  0.55687941010E+03  0.57294213528E+03  0.12500000000E+03 0.  0.
         25    1    1    2    0    0 -0.51462713608E+01  0.49965276716E+02  0.26004038266E+04  0.26038909490E+04  0.12500000000E+03 0.  0.
</event>
<event>
 4    0  0.2270578E-002  0.2752723E+03  0.7546771E-02  0.1098299E+00
         21   -1    0    0  502  501  0.00000000000E+00  0.00000000000E+00  0.66236215426E+03  0.66236215426E+03  0.00000000000E+00 0. -1.
         21   -1    0    0  501  502 -0.00000000000E+00 -0.00000000000E+00 -0.11440093895E+03  0.11440093895E+03  0.00000000000E+00 0. -1.
         25    1    1    2    0    0 -0.20587343689E+03 -0.13156640997E+03  0.30411776567E+03  0.40964155995E+03  0.12500000000E+03 0.  0.
         25    1    1    2    0    0  0.20587343689E+03  0.13156640997E+03  0.24384344964E+03  0.36712153326E+03  0.12500000000E+03 0.  0.
</event>
<event>
 4    0  0.2270578E-002  0.1617965E+03  0.7546771E-02  0.1186683E+00
         21   -1    0    0  502  501  0.00000000000E+00  0.00000000000E+00  0.39725237458E+03  0.39725237458E+03  0.00000000000E+00 0. -1.
         21   -1    0    0  501  502 -0.00000000000E+00 -0.00000000000E+00 -0.65897964165E+02  0.65897964165E+02  0.00000000000E+00 0. -1.
         25    1    1    2    0    0 -0.32005481474E+02 -0.84707423520E+02  0.23511131267E+03  0.28125082718E+03  0.12500000000E+03 0.  0.
         25    1    1    2    0    0  0.32005481474E+02  0.84707423520E+02  0.96243097740E+02  0.18189951156E+03  0.12500000000E+03 0.  0.
</event>
<event>
 4    0  0.2270578E-002  0.2355453E+03  0.7546771E-02  0.1122796E+00
         21   -1    0    0  502  501  0.00000000000E+00  0.00000000000E+00  0.55525971026E+03  0.55525971026E+03  0.00000000000E+00 0. -1.
         21   -1    0    0  501  502 -0.00000000000E+00 -0.00000000000E+00 -0.99920095830E+02  0.99920095830E+02  0.00000000000E+00 0. -1.
         25    1    1    2    0    0 -0.15192731086E+03 -0.41441384555E+02  0.57010624012E+02  0.20898446686E+03  0.12500000000E+03 0.  0.
         25    1    1    2    0    0  0.15192731086E+03  0.41441384555E+02  0.39832899042E+03  0.44619533923E+03  0.12500000000E+03 0.  0.
</event>
<event>
 4    0  0.2270578E-002  0.1827698E+03  0.7546771E-02  0.1165149E+00
         21   -1    0    0  502  501  0.00000000000E+00  0.00000000000E+00  0.82957985096E+02  0.82957985096E+02  0.00000000000E+00 0.  1.
         21   -1    0    0  501  502 -0.00000000000E+00 -0.00000000000E+00 -0.40267119191E+03  0.40267119191E+03  0.00000000000E+00 0. -1.
         25    1    1    2    0    0 -0.58683978729E+02  0.11914526067E+03 -0.17559772807E+03  0.25317773323E+03  0.12500000000E+03 0.  0.
         25    1    1    2    0    0  0.58683978729E+02 -0.11914526067E+03 -0.14411547875E+03  0.23245144378E+03  0.12500000000E+03 0.  0.
</event>
<event>
 4    0  0.2270578E-002  0.2326635E+03  0.7546771E-02  0.1124779E+00
         21   -1    0    0  502  501  0.00000000000E+00  0.00000000000E+00  0.23647966471E+03  0.23647966471E+03  0.00000000000E+00 0.  1.
         21   -1    0    0  501  502 -0.00000000000E+00 -0.00000000000E+00 -0.22890886262E+03  0.22890886262E+03  0.00000000000E+00 0.  1.
         25    1    1    2    0    0  0.60968503357E+02 -0.11336418784E+03 -0.14435136329E+03  0.23028441886E+03  0.12500000000E+03 0.  0.
         25    1    1    2    0    0 -0.60968503357E+02  0.11336418784E+03  0.15192216538E+03  0.23510410847E+03  0.12500000000E+03 0.  0.
</event>
<event>
 4    0  0.2270578E-002  0.1948962E+03  0.7546771E-02  0.1154118E+00
         21   -1    0    0  502  501  0.00000000000E+00  0.00000000000E+00  0.87930197803E+03  0.87930197803E+03  0.00000000000E+00 0.  1.
         21   -1    0    0  501  502 -0.00000000000E+00 -0.00000000000E+00 -0.43198486148E+02  0.43198486148E+02  0.00000000000E+00 0.  1.
         25    1    1    2    0    0  0.87970429164E+02 -0.44067683427E+02  0.68453606045E+03  0.70277690286E+03  0.12500000000E+03 0.  0.
         25    1    1    2    0    0 -0.87970429164E+02  0.44067683427E+02  0.15156743144E+03  0.21972356133E+03  0.12500000000E+03 0.  0.
</event>
<event>
 4    0  0.2270578E-002  0.2355755E+03  0.7546771E-02  0.1122776E+00
         21   -1    0    0  502  501  0.00000000000E+00  0.00000000000E+00  0.18900576624E+03  0.18900576624E+03  0.00000000000E+00 0. -1.
         21   -1    0    0  501  502 -0.00000000000E+00 -0.00000000000E+00 -0.29361981773E+03  0.29361981773E+03  0.00000000000E+00 0. -1.
         25    1    1    2    0    0 -0.42547067699E+02 -0.19499277997E+03 -0.58654833787E+02  0.24268874456E+03  0.12500000000E+03 0.  0.
         25    1    1    2    0    0  0.42547067699E+02  0.19499277997E+03 -0.45959217705E+02  0.23993683940E+03  0.12500000000E+03 0.  0.
</event>
<event>
 4    0  0.2270578E-002  0.1847219E+03  0.7546771E-02  0.1163310E+00
         21   -1    0    0  502  501  0.00000000000E+00  0.00000000000E+00  0.18331053207E+03  0.18331053207E+03  0.00000000000E+00 0. -1.
         21   -1    0    0  501  502 -0.00000000000E+00 -0.00000000000E+00 -0.18614408621E+03  0.18614408621E+03  0.00000000000E+00 0. -1.
         25    1    1    2    0    0  0.11755052831E+03 -0.67878490339E+02 -0.98760640452E+01  0.18479218814E+03  0.12500000000E+03 0.  0.
         25    1    1    2    0    0 -0.11755052831E+03  0.67878490339E+02  0.70425099001E+01  0.18466243013E+03  0.12500000000E+03 0.  0.
</event>
<event>
 4    0  0.2270578E-002  0.4602338E+03  0.7546771E-02  0.1024713E+00
         21   -1    0    0  502  501  0.00000000000E+00  0.00000000000E+00  0.37526797027E+03  0.37526797027E+03  0.00000000000E+00 0. -1.
         21   -1    0    0  501  502 -0.00000000000E+00 -0.00000000000E+00 -0.56443696805E+03  0.56443696805E+03  0.00000000000E+00 0. -1.
         25    1    1    2    0    0 -0.55546768890E+02 -0.17627484373E+03 -0.50552905935E+03  0.55257840522E+03  0.12500000000E+03 0.  0.
         25    1    1    2    0    0  0.55546768890E+02  0.17627484373E+03  0.31636006157E+03  0.38712653309E+03  0.12500000000E+03 0.  0.
</event>
<event>
 4    0  0.2270578E-002  0.1910923E+03  0.7546771E-02  0.1157480E+00
         21   -1    0    0  502  501  0.00000000000E+00  0.00000000000E+00  0.22211213911E+04  0.22211213911E+04  0.00000000000E+00 0. -1.
         21   -1    0    0  501  502 -0.00000000000E+00 -0.00000000000E+00 -0.16440465308E+02  0.16440465308E+02  0.00000000000E+00 0. -1.
         25    1    1    2    0    0 -0.67252536615E+02  0.12103004656E+03  0.85952415022E+03  0.87953279680E+03  0.12500000000E+03 0.  0.
         25    1    1    2    0    0  0.67252536615E+02 -0.12103004656E+03  0.13451567756E+04  0.13580290596E+04  0.12500000000E+03 0.  0.
</event>
<event>
 4    0  0.2270578E-002  0.2536385E+03  0.7546771E-02  0.1111027E+00
         21   -1    0    0  502  501  0.00000000000E+00  0.00000000000E+00  0.18530906375E+03  0.18530906375E+03  0.00000000000E+00 0. -1.
         21   -1    0    0  501  502 -0.00000000000E+00 -0.00000000000E+00 -0.34716323903E+03  0.34716323903E+03  0.00000000000E+00 0. -1.
         25    1    1    2    0    0  0.43544191222E+02 -0.56064063684E+02  0.13842136221E+03  0.19956139241E+03  0.12500000000E+03 0.  0.
         25    1    1    2    0    0 -0.43544191222E+02  0.56064063684E+02 -0.30027553748E+03  0.33291091036E+03  0.12500000000E+03 0.  0.
</event>
<event>
 4    0  0.2270578E-002  0.2182105E+03  0.7546771E-02  0.1135224E+00
         21   -1    0    0  502  501  0.00000000000E+00  0.00000000000E+00  0.12706283128E+03  0.12706283128E+03  0.00000000000E+00 0. -1.
         21   -1    0    0  501  502 -0.00000000000E+00 -0.00000000000E+00 -0.37474230153E+03  0.37474230153E+03  0.00000000000E+00 0. -1.
         25    1    1    2    0    0 -0.85766619900E+02  0.99441978841E+02  0.15787296080E+02  0.18198587572E+03  0.12500000000E+03 0.  0.
         25    1    1    2    0    0  0.85766619900E+02 -0.99441978841E+02 -0.26346676632E+03  0.31981925708E+03  0.12500000000E+03 0.  0.
</event>
<event>
 4    0  0.2270578E-002  0.1863887E+03  0.7546771E-02  0.1161759E+00
         21   -1    0    0  502  501  0.00000000000E+00  0.00000000000E+00  0.29653438138E+02  0.29653438138E+02  0.00000000000E+00 0.  1.
         21   -1    0    0  501  502 -0.00000000000E+00 -0.00000000000E+00 -0.11715589235E+04  0.11715589235E+04  0.00000000000E+00 0.  1.
         25    1    1    2    0    0 -0.70119321550E+02 -0.97976301895E+02 -0.35241131354E+03  0.39285469184E+03  0.12500000000E+03 0.  0.
         25    1    1    2    0    0  0.70119321550E+02  0.97976301895E+02 -0.78949417187E+03  0.80835766985E+03  0.12500000000E+03 0.  0.
</event>
<event>
 4    0  0.2270578E-002  0.1717682E+03  0.7546771E-02  0.1176016E+00
         21   -1    0    0  502  501  0.00000000000E+00  0.00000000000E+00  0.18830457967E+04  0.18830457967E+04  0.00000000000E+00 0. -1.
         21   -1    0    0  501  502 -0.00000000000E+00 -0.00000000000E+00 -0.15668399345E+02  0.15668399345E+02  0.00000000000E+00 0. -1.
         25    1    1    2    0    0 -0.10587569514E+03 -0.44792274384E+02  0.10760338832E+04  0.10893529862E+04  0.12500000000E+03 0.  0.
         25    1    1    2    0    0  0.10587569514E+03  0.44792274384E+02  0.79134351417E+03  0.80936120990E+03  0.12500000000E+03 0.  0.
</event>
<event>
 4    0  0.2270578E-002  0.3987567E+03  0.7546771E-02  0.1044211E+00
         21   -1    0    0  502  501  0.00000000000E+00  0.00000000000E+00  0.46189868070E+03  0.46189868070E+03  0.00000000000E+00 0. -1.
         21   -1    0    0  501  502 -0.00000000000E+00 -0.00000000000E+00 -0.34424635560E+03  0.34424635560E+03  0.00000000000E+00 0. -1.
         25    1    1    2    0    0 -0.24467150930E+03  0.10340642124E+03  0.33160778409E+03  0.44288345858E+03  0.12500000000E+03 0.  0.
         25    1    1    2    0    0  0.24467150930E+03 -0.10340642124E+03 -0.21395545899E+03  0.36326157772E+03  0.12500000000E+03 0.  0.
</event>
<event>
 4    0  0.2270578E-002  0.2160821E+03  0.7546771E-02  0.1136838E+00
         21   -1    0    0  502  501  0.00000000000E+00  0.00000000000E+00  0.76733126024E+02  0.76733126024E+02  0.00000000000E+00 0. -1.
         21   -1    0    0  501  502 -0.00000000000E+00 -0.00000000000E+00 -0.60849192156E+03  0.60849192156E+03  0.00000000000E+00 0. -1.
         25    1    1    2    0    0  0.71898777829E+02  0.47862855922E+02 -0.22268101997E+02  0.15356156940E+03  0.12500000000E+03 0.  0.
         25    1    1    2    0    0 -0.71898777829E+02 -0.47862855922E+02 -0.50949069354E+03  0.53166347819E+03  0.12500000000E+03 0.  0.
</event>
<event>
 4    0  0.2270578E-002  0.2365609E+03  0.7546771E-02  0.1122105E+00
         21   -1    0    0  502  501  0.00000000000E+00  0.00000000000E+00  0.27578114049E+03  0.27578114049E+03  0.00000000000E+00 0.  1.
         21   -1    0    0  501  502 -0.00000000000E+00 -0.00000000000E+00 -0.20291833085E+03  0.20291833085E+03  0.00000000000E+00 0.  1.
         25    1    1    2    0    0  0.64522224876E+02 -0.79797103214E+02  0.21110898566E+03  0.26593739679E+03  0.12500000000E+03 0.  0.
         25    1    1    2    0    0 -0.64522224876E+02  0.79797103214E+02 -0.13824617601E+03  0.21276207455E+03  0.12500000000E+03 0.  0.
</event>
<event>
 4    0  0.2270578E-002  0.1498871E+03  0.7546771E-02  0.1200612E+00
         21   -1    0    0  502  501  0.00000000000E+00  0.00000000000E+00  0.22595300389E+04  0.22595300389E+04  0.00000000000E+00 0.  1.
         21   -1    0    0  501  502 -0.00000000000E+00 -0.00000000000E+00 -0.99428394770E+01  0.99428394770E+01  0.00000000000E+00 0.  1.
         25    1    1    2    0    0  0.70661620626E+02  0.41525300552E+02  0.10405829677E+04  0.10512636815E+04  0.12500000000E+03 0.  0.
         25    1    1    2    0    0 -0.70661620626E+02 -0.41525300552E+02  0.12090042317E+04  0.12182091969E+04  0.12500000000E+03 0.  0.
</event>
<event>
 4    0  0.2270578E-002  0.1915188E+03  0.7546771E-02  0.1157099E+00
         21   -1    0    0  502  501  0.00000000000E+00  0.00000000000E+00  0.21908835903E+02  0.21908835903E+02  0.00000000000E+00 0. -1.
         21   -1    0    0  501  502 -0.00000000000E+00 -0.00000000000E+00 -0.16741850281E+04  0.16741850281E+04  0.00000000000E+00 0. -1.
         25    1    1    2    0    0  0.14499246905E+03  0.46708991072E+01 -0.84000820945E+03  0.86155871845E+03  0.12500000000E+03 0.  0.
         25    1    1    2    0    0 -0.14499246905E+03 -0.46708991072E+01 -0.81226798271E+03  0.83453514552E+03  0.12500000000E+03 0.  0.
</event>
<event>
 4    0  0.2270578E-002  0.2788778E+03  0.7546771E-02  0.1096303E+00
         21   -1    0    0  502  501  0.00000000000E+00  0.00000000000E+00  0.52215004751E+03  0.52215004751E+03  0.00000000000E+00 0. -1.
         21   -1    0    0  501  502 -0.00000000000E+00 -0.00000000000E+00 -0.14894729293E+03  0.14894729293E+03  0.00000000000E+00 0. -1.
         25    1    1    2    0    0 -0.23783434955E+03  0.13465823883E+02  0.98172949524E+02  0.28637289372E+03  0.12500000000E+03 0.  0.
         25    1    1    2    0    0  0.23783434955E+03 -0.13465823883E+02  0.27502980505E+03  0.38472444672E+03  0.12500000000E+03 0.  0.
</event>
<event>
 4    0  0.2270578E-002  0.2323894E+03  0.7546771E-02  0.1124969E+00
         21   -1    0    0  502  501  0.00000000000E+00  0.00000000000E+00  0.24994316448E+02  0.24994316448E+02  0.00000000000E+00 0.  1.
         21   -1    0    0  501  502 -0.00000000000E+00 -0.00000000000E+00 -0.21606839283E+04  0.21606839283E+04  0.00000000000E+00 0.  1.
         25    1    1    2    0    0 -0.12293418598E+03 -0.14451183628E+03 -0.83826571139E+03  0.86851072981E+03  0.12500000000E+03 0.  0.
         25    1    1    2    0    0  0.12293418598E+03  0.14451183628E+03 -0.12974239004E+04  0.13171675149E+04  0.12500000000E+03 0.  0.
</event>
<event>
 4    0  0.2270578E-002  0.1982597E+03  0.7546771E-02  0.1151216E+00
         21   -1    0    0  502  501  0.00000000000E+00  0.00000000000E+00  0.59213892183E+02  0.59213892183E+02  0.00000000000E+00 0. -1.
         21   -1    0    0  501  502 -0.00000000000E+00 -0.00000000000E+00 -0.66381206796E+03  0.66381206796E+03  0.00000000000E+00 0. -1.
         25    1    1    2    0    0  0.19952499560E+02  0.25802852867E+02 -0.57653017416E+03  0.59082648144E+03  0.12500000000E+03 0.  0.
         25    1    1    2    0    0 -0.19952499560E+02 -0.25802852867E+02 -0.28068001620E+02  0.13219947870E+03  0.12500000000E+03 0.  0.
</event>
<event>
 4    0  0.2270578E-002  0.2469800E+03  0.7546771E-02  0.1115228E+00
         21   -1    0    0  502  501  0.00000000000E+00  0.00000000000E+00  0.55932634192E+02  0.55932634192E+02  0.00000000000E+00 0. -1.
         21   -1    0    0  501  502 -0.00000000000E+00 -0.00000000000E+00 -0.10905815436E+04  0.10905815436E+04  0.00000000000E+00 0. -1.
         25    1    1    2    0    0 -0.17442387495E+03 -0.10844569138E+03 -0.38623156215E+03  0.45495491616E+03  0.12500000000E+03 0.  0.
         25    1    1    2    0    0  0.17442387495E+03  0.10844569138E+03 -0.64841734725E+03  0.69155926163E+03  0.12500000000E+03 0.  0.
</event>
<event>
 4    0  0.2270578E-002  0.3267765E+03  0.7546771E-02  0.1072572E+00
         21   -1    0    0  502  501  0.00000000000E+00  0.00000000000E+00  0.92898621210E+02  0.92898621210E+02  0.00000000000E+00 0.  1.
         21   -1    0    0  501  502 -0.00000000000E+00 -0.00000000000E+00 -0.11494562186E+04  0.11494562186E+04  0.00000000000E+00 0.  1.
         25    1    1    2    0    0  0.11477801207E+03  0.73452473876E+02 -0.10404311121E+04  0.10567360867E+04  0.12500000000E+03 0.  0.
         25    1    1    2    0    0 -0.11477801207E+03 -0.73452473876E+02 -0.16126485313E+02  0.18561875310E+03  0.12500000000E+03 0.  0.
</event>
<event>
 4    0  0.2270578E-002  0.1823816E+03  0.7546771E-02  0.1165518E+00
         21   -1    0    0  502  501  0.00000000000E+00  0.00000000000E+00  0.39652744261E+03  0.39652744261E+03  0.00000000000E+00 0.  1.
         21   -1    0    0  501  502 -0.00000000000E+00 -0.00000000000E+00 -0.83885823032E+02  0.83885823032E+02  0.00000000000E+00 0.  1.
         25    1    1    2    0    0 -0.73944579922E+02  0.92855064196E+02  0.23477318813E+03  0.29126158983E+03  0.12500000000E+03 0.  0.
         25    1    1    2    0    0  0.73944579922E+02 -0.92855064196E+02  0.77868431453E+02  0.18915167581E+03  0.12500000000E+03 0.  0.
</event>
<event>
 4    0  0.2270578E-002  0.2924155E+03  0.7546771E-02  0.1089095E+00
         21   -1    0    0  502  501  0.00000000000E+00  0.00000000000E+00  0.47158967985E+03  0.47158967985E+03  0.00000000000E+00 0. -1.
         21   -1    0    0  501  502 -0.00000000000E+00 -0.00000000000E+00 -0.18131616293E+03  0.18131616293E+03  0.00000000000E+00 0. -1.
         25    1    1    2    0    0  0.10094806373E+03  0.94994099031E+02 -0.10615869870E+03  0.21473020219E+03  0.12500000000E+03 0.  0.
         25    1    1    2    0    0 -0.10094806373E+03 -0.94994099031E+02  0.39643221562E+03  0.43817564059E+03  0.12500000000E+03 0.  0.
</event>
<event>
 4    0  0.2270578E-002  0.2698112E+03  0.7546771E-02  0.1101388E+00
         21   -1    0    0  502  501  0.00000000000E+00  0.00000000000E+00  0.28499226090E+03  0.28499226090E+03  0.00000000000E+00 0.  1.
         21   -1    0    0  501  502 -0.00000000000E+00 -0.00000000000E+00 -0.25543883424E+03  0.25543883424E+03  0.00000000000E+00 0.  1.
         25    1    1    2    0    0  0.31739831009E+02  0.20725939576E+03 -0.10032687800E+03  0.26392111785E+03  0.12500000000E+03 0.  0.
         25    1    1    2    0    0 -0.31739831009E+02 -0.20725939576E+03  0.12988030466E+03  0.27650997729E+03  0.12500000000E+03 0.  0.
</event>
<event>
 4    0  0.2270578E-002  0.2698966E+03  0.7546771E-02  0.1101339E+00
         21   -1    0    0  502  501  0.00000000000E+00  0.00000000000E+00  0.16703680631E+03  0.16703680631E+03  0.00000000000E+00 0.  1.
         21   -1    0    0  501  502 -0.00000000000E+00 -0.00000000000E+00 -0.43609650106E+03  0.43609650106E+03  0.00000000000E+00 0.  1.
         25    1    1    2    0    0 -0.21594944191E+03  0.76535748235E+02 -0.21135294238E+03  0.33583768173E+03  0.12500000000E+03 0.  0.
         25    1    1    2    0    0  0.21594944191E+03 -0.76535748235E+02 -0.57706752370E+02  0.26729562564E+03  0.12500000000E+03 0.  0.
</event>
<event>
 4    0  0.2270578E-002  0.2486741E+03  0.7546771E-02  0.1114146E+00
         21   -1    0    0  502  501  0.00000000000E+00  0.00000000000E+00  0.21711753408E+02  0.21711753408E+02  0.00000000000E+00 0.  1.
         21   -1    0    0  501  502 -0.00000000000E+00 -0.00000000000E+00 -0.28481711584E+04  0.28481711584E+04  0.00000000000E+00 0.  1.
         25    1    1    2    0    0  0.99895226054E+02 -0.91669393177E+02 -0.23758868845E+04  0.23830329040E+04  0.12500000000E+03 0.  0.
         25    1    1    2    0    0 -0.99895226054E+02  0.91669393177E+02 -0.45057252049E+03  0.48685000776E+03  0.12500000000E+03 0.  0.
</event>
<event>
 4    0  0.2270578E-002  0.2391942E+03  0.7546771E-02  0.1120331E+00
         21   -1    0    0  502  501  0.00000000000E+00  0.00000000000E+00  0.14900310084E+03  0.14900310084E+03  0.00000000000E+00 0. -1.
         21   -1    0    0  501  502 -0.00000000000E+00 -0.00000000000E+00 -0.38397753859E+03  0.38397753859E+03  0.00000000000E+00 0. -1.
         25    1    1    2    0    0 -0.84788979888E+02 -0.18369875481E+03 -0.88985839195E+02  0.25392495585E+03  0.12500000000E+03 0.  0.
         25    1    1    2    0    0  0.84788979888E+02  0.18369875481E+03 -0.14598859855E+03  0.27905568358E+03  0.12500000000E+03 0.  0.
</event>
<event>
 4    0  0.2270578E-002  0.2117937E+03  0.7546771E-02  0.1140153E+00
         21   -1    0    0  502  501  0.00000000000E+00  0.00000000000E+00  0.24206144056E+03  0.24206144056E+03  0.00000000000E+00 0. -1.
         21   -1    0    0  501  502 -0.00000000000E+00 -0.00000000000E+00 -0.18531061086E+03  0.18531061086E+03  0.00000000000E+00 0. -1.
         25    1    1    2    0    0 -0.16482020731E+03 -0.26698015729E+02 -0.87373307160E+01  0.20875781598E+03  0.12500000000E+03 0.  0.
         25    1    1    2    0    0  0.16482020731E+03  0.26698015729E+02  0.65488160420E+02  0.21861423544E+03  0.12500000000E+03 0.  0.
</event>
<event>
 4    0  0.2270578E-002  0.2526888E+03  0.7546771E-02  0.1111617E+00
         21   -1    0    0  502  501  0.00000000000E+00  0.00000000000E+00  0.50331424817E+03  0.50331424817E+03  0.00000000000E+00 0. -1.
         21   -1    0    0  501  502 -0.00000000000E+00 -0.00000000000E+00 -0.12686236165E+03  0.12686236165E+03  0.00000000000E+00 0. -1.
         25    1    1    2    0    0  0.10750143256E+03  0.19149193760E+03  0.18703381813E+03  0.31437615891E+03  0.12500000000E+03 0.  0.
         25    1    1    2    0    0 -0.10750143256E+03 -0.19149193760E+03  0.18941806838E+03  0.31580045091E+03  0.12500000000E+03 0.  0.
</event>
<event>
 4    0  0.2270578E-002  0.2628659E+03  0.7546771E-02  0.1105433E+00
         21   -1    0    0  502  501  0.00000000000E+00  0.00000000000E+00  0.53313326598E+03  0.53313326598E+03  0.00000000000E+00 0.  1.
         21   -1    0    0  501  502 -0.00000000000E+00 -0.00000000000E+00 -0.12960828484E+03  0.12960828484E+03  0.00000000000E+00 0. -1.
         25    1    1    2    0    0 -0.17452225285E+03 -0.24312649563E+02  0.12989427447E+02  0.21643208379E+03  0.12500000000E+03 0.  0.
         25    1    1    2    0    0  0.17452225285E+03  0.24312649563E+02  0.39053555369E+03  0.44630946703E+03  0.12500000000E+03 0.  0.
</event>
<event>
 4    0  0.2270578E-002  0.2431955E+03  0.7546771E-02  0.1117682E+00
         21   -1    0    0  502  501  0.00000000000E+00  0.00000000000E+00  0.63363229869E+02  0.63363229869E+02  0.00000000000E+00 0.  1.
         21   -1    0    0  501  502 -0.00000000000E+00 -0.00000000000E+00 -0.93341300306E+03  0.93341300306E+03  0.00000000000E+00 0.  1.
         25    1    1    2    0    0  0.70252044967E+02  0.76639775141E+02 -0.64384485639E+02  0.17486957124E+03  0.12500000000E+03 0.  0.
         25    1    1    2    0    0 -0.70252044967E+02 -0.76639775141E+02 -0.80566528755E+03  0.82190666169E+03  0.12500000000E+03 0.  0.
</event>
<event>
 4    0  0.2270578E-002  0.2192848E+03  0.7546771E-02  0.1134417E+00
         21   -1    0    0  502  501  0.00000000000E+00  0.00000000000E+00  0.50721259146E+02  0.50721259146E+02  0.00000000000E+00 0.  1.
         21   -1    0    0  501  502 -0.00000000000E+00 -0.00000000000E+00 -0.94804085445E+03  0.94804085445E+03  0.00000000000E+00 0.  1.
         25    1    1    2    0    0  0.14220745625E+03 -0.68679106846E+02 -0.64615776638E+03  0.67681950281E+03  0.12500000000E+03 0.  0.
         25    1    1    2    0    0 -0.14220745625E+03  0.68679106846E+02 -0.25116182892E+03  0.32194261079E+03  0.12500000000E+03 0.  0.
</event>
<event>
 4    0  0.2270578E-002  0.2693406E+03  0.7546771E-02  0.1101658E+00
         21   -1    0    0  502  501  0.00000000000E+00  0.00000000000E+00  0.16005180974E+03  0.16005180974E+03  0.00000000000E+00 0. -1.
         21   -1    0    0  501  502 -0.00000000000E+00 -0.00000000000E+00 -0.45325559242E+03  0.45325559242E+03  0.00000000000E+00 0. -1.
         25    1    1    2    0    0 -0.66468766203E+02  0.20393358572E+03 -0.27667913870E+02  0.24979495136E+03  0.12500000000E+03 0.  0.
         25    1    1    2    0    0  0.66468766203E+02 -0.20393358572E+03 -0.26553586881E+03  0.36351245081E+03  0.12500000000E+03 0.  0.
</event>
<event>
 4    0  0.2270578E-002  0.2453530E+03  0.7546771E-02  0.1116277E+00
         21   -1    0    0  502  501  0.00000000000E+00  0.00000000000E+00  0.17250848698E+03  0.17250848698E+03  0.00000000000E+00 0.  1.
         21   -1    0    0  501  502 -0.00000000000E+00 -0.00000000000E+00 -0.34895738935E+03  0.34895738935E+03  0.00000000000E+00 0.  1.
         25    1    1    2    0    0  0.97782737346E+02 -0.17871120877E+03 -0.14714312517E+03  0.28066930567E+03  0.12500000000E+03 0.  0.
         25    1    1    2    0    0 -0.97782737346E+02  0.17871120877E+03 -0.29305777196E+02  0.24079657065E+03  0.12500000000E+03 0.  0.
</event>
<event>
 4    0  0.2270578E-002  0.1843300E+03  0.7546771E-02  0.1163677E+00
         21   -1    0    0  502  501  0.00000000000E+00  0.00000000000E+00  0.64572983846E+03  0.64572983846E+03  0.00000000000E+00 0.  1.
         21   -1    0    0  501  502 -0.00000000000E+00 -0.00000000000E+00 -0.52618804975E+02  0.52618804975E+02  0.00000000000E+00 0.  1.
         25    1    1    2    0    0  0.10915731162E+03 -0.19952761734E+02  0.14934713829E+03  0.22414950166E+03  0.12500000000E+03 0.  0.
         25    1    1    2    0    0 -0.10915731162E+03  0.19952761734E+02  0.44376389519E+03  0.47419914177E+03  0.12500000000E+03 0.  0.
</event>
<event>
 4    0  0.2270578E-002  0.2179948E+03  0.7546771E-02  0.1135387E+00
         21   -1    0    0  502  501  0.00000000000E+00  0.00000000000E+00  0.46412320941E+03  0.46412320941E+03  0.00000000000E+00 0. -1.
         21   -1    0    0  501  502 -0.00000000000E+00 -0.00000000000E+00 -0.10239034468E+03  0.10239034468E+03  0.00000000000E+00 0. -1.
         25    1    1    2    0    0  0.29179434471E+02 -0.31461452529E+02  0.40613258774E+03  0.42709476843E+03  0.12500000000E+03 0.  0.
         25    1    1    2    0    0 -0.29179434471E+02  0.31461452529E+02 -0.44399723010E+02  0.13941878566E+03  0.12500000000E+03 0.  0.
</event>
<event>
 4    0  0.2270578E-002  0.2158474E+03  0.7546771E-02  0.1137017E+00
         21   -1    0    0  502  501  0.00000000000E+00  0.00000000000E+00  0.21016659114E+03  0.21016659114E+03  0.00000000000E+00 0.  1.
         21   -1    0    0  501  502 -0.00000000000E+00 -0.00000000000E+00 -0.22168174827E+03  0.22168174827E+03  0.00000000000E+00 0.  1.
         25    1    1    2    0    0  0.41181607368E+02  0.35165913484E+02 -0.17324631478E+03  0.22039022628E+03  0.12500000000E+03 0.  0.
         25    1    1    2    0    0 -0.41181607368E+02 -0.35165913484E+02  0.16173115764E+03  0.21145811313E+03  0.12500000000E+03 0.  0.
</event>
<event>
 4    0  0.2270578E-002  0.1949875E+03  0.7546771E-02  0.1154038E+00
         21   -1    0    0  502  501  0.00000000000E+00  0.00000000000E+00  0.45672190358E+02  0.45672190358E+02  0.00000000000E+00 0. -1.
         21   -1    0    0  501  502 -0.00000000000E+00 -0.00000000000E+00 -0.83245670611E+03  0.83245670611E+03  0.00000000000E+00 0. -1.
         25    1    1    2    0    0  0.98722064569E+02 -0.53950118255E+02 -0.17118068986E+03  0.23996768506E+03  0.12500000000E+03 0.  0.
         25    1    1    2    0    0 -0.98722064569E+02  0.53950118255E+02 -0.61560382589E+03  0.63816121141E+03  0.12500000000E+03 0.  0.
</event>
<event>
 4    0  0.2270578E-002  0.2204077E+03  0.7546771E-02  0.1133579E+00
         21   -1    0    0  502  501  0.00000000000E+00  0.00000000000E+00  0.13493119281E+03  0.13493119281E+03  0.00000000000E+00 0. -1.
         21   -1    0    0  501  502 -0.00000000000E+00 -0.00000000000E+00 -0.36003220980E+03  0.36003220980E+03  0.00000000000E+00 0. -1.
         25    1    1    2    0    0  0.33174826054E+02  0.14253378711E+03  0.80596458119E+01  0.19263023501E+03  0.12500000000E+03 0.  0.
         25    1    1    2    0    0 -0.33174826054E+02 -0.14253378711E+03 -0.23316066281E+03  0.30233316760E+03  0.12500000000E+03 0.  0.
</event>
<event>
 4    0  0.2270578E-002  0.1914062E+03  0.7546771E-02  0.1157199E+00
         21   -1    0    0  502  501  0.00000000000E+00  0.00000000000E+00  0.45962426618E+03  0.45962426618E+03  0.00000000000E+00 0. -1.
         21   -1    0    0  501  502 -0.00000000000E+00 -0.00000000000E+00 -0.79709313673E+02  0.79709313673E+02  0.00000000000E+00 0. -1.
         25    1    1    2    0    0 -0.97624813840E+02 -0.10348238206E+03  0.22910604258E+03  0.29724364824E+03  0.12500000000E+03 0.  0.
         25    1    1    2    0    0  0.97624813840E+02  0.10348238206E+03  0.15080890993E+03  0.24208993161E+03  0.12500000000E+03 0.  0.
</event>
<event>
 4    0  0.2270578E-002  0.1983611E+03  0.7546771E-02  0.1151129E+00
         21   -1    0    0  502  501  0.00000000000E+00  0.00000000000E+00  0.83636641273E+02  0.83636641273E+02  0.00000000000E+00 0. -1.
         21   -1    0    0  501  502 -0.00000000000E+00 -0.00000000000E+00 -0.47045301477E+03  0.47045301477E+03  0.00000000000E+00 0. -1.
         25    1    1    2    0    0  0.14773957497E+02 -0.46812569911E+02 -0.39730481586E+03  0.41938741424E+03  0.12500000000E+03 0.  0.
         25    1    1    2    0    0 -0.14773957497E+02  0.46812569911E+02  0.10488442364E+02  0.13470224180E+03  0.12500000000E+03 0.  0.
</event>
<event>
 4    0  0.2270578E-002  0.1845461E+03  0.7546771E-02  0.1163474E+00
         21   -1    0    0  502  501  0.00000000000E+00  0.00000000000E+00  0.98797480650E+02  0.98797480650E+02  0.00000000000E+00 0. -1.
         21   -1    0    0  501  502 -0.00000000000E+00 -0.00000000000E+00 -0.34471794543E+03  0.34471794543E+03  0.00000000000E+00 0. -1.
         25    1    1    2    0    0  0.10716733241E+03  0.83348879211E+02 -0.12220813563E+03  0.22134069037E+03  0.12500000000E+03 0.  0.
         25    1    1    2    0    0 -0.10716733241E+03 -0.83348879211E+02 -0.12371232915E+03  0.22217473570E+03  0.12500000000E+03 0.  0.
</event>
<event>
 4    0  0.2270578E-002  0.2543797E+03  0.7546771E-02  0.1110568E+00
         21   -1    0    0  502  501  0.00000000000E+00  0.00000000000E+00  0.14810538449E+03  0.14810538449E+03  0.00000000000E+00 0. -1.
         21   -1    0    0  501  502 -0.00000000000E+00 -0.00000000000E+00 -0.43691219178E+03  0.43691219178E+03  0.00000000000E+00 0. -1.
         25    1    1    2    0    0 -0.20692322068E+03  0.47766946371E+02 -0.21699370937E+03  0.32834459083E+03  0.12500000000E+03 0.  0.
         25    1    1    2    0    0  0.20692322068E+03 -0.47766946371E+02 -0.71813097925E+02  0.25667298544E+03  0.12500000000E+03 0.  0.
</event>
<event>
 4    0  0.2270578E-002  0.1787860E+03  0.7546771E-02  0.1168983E+00
         21   -1    0    0  502  501  0.00000000000E+00  0.00000000000E+00  0.16721142707E+03  0.16721142707E+03  0.00000000000E+00 0.  1.
         21   -1    0    0  501  502 -0.00000000000E+00 -0.00000000000E+00 -0.19116177299E+03  0.19116177299E+03  0.00000000000E+00 0.  1.
         25    1    1    2    0    0  0.67319685167E+02  0.10718568441E+03  0.59176137728E+01  0.17799081186E+03  0.12500000000E+03 0.  0.
         25    1    1    2    0    0 -0.67319685167E+02 -0.10718568441E+03 -0.29867959697E+02  0.18038238819E+03  0.12500000000E+03 0.  0.
</event>
<event>
 4    0  0.2270578E-002  0.4528937E+03  0.7546771E-02  0.1026863E+00
         21   -1    0    0  502  501  0.00000000000E+00  0.00000000000E+00  0.27616755891E+03  0.27616755891E+03  0.00000000000E+00 0. -1.
         21   -1    0    0  501  502 -0.00000000000E+00 -0.00000000000E+00 -0.74271107792E+03  0.74271107792E+03  0.00000000000E+00 0.  1.
         25    1    1    2    0    0  0.26560275400E+03 -0.28664769031E+03 -0.44898575876E+03  0.60821454510E+03  0.12500000000E+03 0.  0.
         25    1    1    2    0    0 -0.26560275400E+03  0.28664769031E+03 -0.17557760251E+02  0.41066409174E+03  0.12500000000E+03 0.  0.
</event>
<event>
 4    0  0.2270578E-002  0.4832428E+03  0.7546771E-02  0.1018248E+00
         21   -1    0    0  502  501  0.00000000000E+00  0.00000000000E+00  0.40144742669E+03  0.40144742669E+03  0.00000000000E+00 0. -1.
         21   -1    0    0  501  502 -0.00000000000E+00 -0.00000000000E+00 -0.58170400630E+03  0.58170400630E+03  0.00000000000E+00 0. -1.
         25    1    1    2    0    0 -0.19583202661E+03 -0.15468666670E+03 -0.49141830906E+03  0.56515051268E+03  0.12500000000E+03 0.  0.
         25    1    1    2    0    0  0.19583202661E+03  0.15468666670E+03  0.31116172946E+03  0.41800092031E+03  0.12500000000E+03 0.  0.
</event>
<event>
 4    0  0.2270578E-002  0.1745704E+03  0.7546771E-02  0.1173164E+00
         21   -1    0    0  502  501  0.00000000000E+00  0.00000000000E+00  0.11169485490E+04  0.11169485490E+04  0.00000000000E+00 0. -1.
         21   -1    0    0  501  502 -0.00000000000E+00 -0.00000000000E+00 -0.27284008117E+02  0.27284008117E+02  0.00000000000E+00 0. -1.
         25    1    1    2    0    0 -0.20032187834E+02  0.85327201967E+02  0.82229648528E+03  0.83634833033E+03  0.12500000000E+03 0.  0.
         25    1    1    2    0    0  0.20032187834E+02 -0.85327201967E+02  0.26736805558E+03  0.30788422677E+03  0.12500000000E+03 0.  0.
</event>
<event>
 4    0  0.2270578E-002  0.1708846E+03  0.7546771E-02  0.1176928E+00
         21   -1    0    0  502  501  0.00000000000E+00  0.00000000000E+00  0.64099346688E+03  0.64099346688E+03  0.00000000000E+00 0. -1.
         21   -1    0    0  501  502 -0.00000000000E+00 -0.00000000000E+00 -0.45556710349E+02  0.45556710349E+02  0.00000000000E+00 0. -1.
         25    1    1    2    0    0  0.49405079934E+02  0.89151131444E+02  0.18430020958E+03  0.24490886757E+03  0.12500000000E+03 0.  0.
         25    1    1    2    0    0 -0.49405079934E+02 -0.89151131444E+02  0.41113654695E+03  0.44164130966E+03  0.12500000000E+03 0.  0.
</event>
<event>
 4    0  0.2270578E-002  0.3105973E+03  0.7546771E-02  0.1080060E+00
         21   -1    0    0  502  501  0.00000000000E+00  0.00000000000E+00  0.17478075029E+03  0.17478075029E+03  0.00000000000E+00 0. -1.
         21   -1    0    0  501  502 -0.00000000000E+00 -0.00000000000E+00 -0.55195240072E+03  0.55195240072E+03  0.00000000000E+00 0. -1.
         25    1    1    2    0    0 -0.17752656573E+03 -0.27297588527E+02  0.69282285834E+02  0.22953403889E+03  0.12500000000E+03 0.  0.
         25    1    1    2    0    0  0.17752656573E+03  0.27297588527E+02 -0.44645393626E+03  0.49719911211E+03  0.12500000000E+03 0.  0.
</event>
<event>
 4    0  0.2270578E-002  0.2177005E+03  0.7546771E-02  0.1135609E+00
         21   -1    0    0  502  501  0.00000000000E+00  0.00000000000E+00  0.10965577505E+03  0.10965577505E+03  0.00000000000E+00 0. -1.
         21   -1    0    0  501  502 -0.00000000000E+00 -0.00000000000E+00 -0.43220251854E+03  0.43220251854E+03  0.00000000000E+00 0. -1.
         25    1    1    2    0    0  0.17117201499E+03  0.68280677988E+01 -0.10002630788E+03  0.23447119971E+03  0.12500000000E+03 0.  0.
         25    1    1    2    0    0 -0.17117201499E+03 -0.68280677988E+01 -0.22252043561E+03  0.30738709389E+03  0.12500000000E+03 0.  0.
</event>
<event>
 4    0  0.2270578E-002  0.1818916E+03  0.7546771E-02  0.1165985E+00
         21   -1    0    0  502  501  0.00000000000E+00  0.00000000000E+00  0.45955155064E+03  0.45955155064E+03  0.00000000000E+00 0. -1.
         21   -1    0    0  501  502 -0.00000000000E+00 -0.00000000000E+00 -0.71993161777E+02  0.71993161777E+02  0.00000000000E+00 0. -1.
         25    1    1    2    0    0  0.56936092362E+02  0.36383122529E+02  0.35969696392E+03  0.38674585463E+03  0.12500000000E+03 0.  0.
         25    1    1    2    0    0 -0.56936092362E+02 -0.36383122529E+02  0.27861424946E+02  0.14479885779E+03  0.12500000000E+03 0.  0.
</event>
<event>
 4    0  0.2270578E-002  0.2356546E+03  0.7546771E-02  0.1122722E+00
         21   -1    0    0  502  501  0.00000000000E+00  0.00000000000E+00  0.89158253554E+02  0.89158253554E+02  0.00000000000E+00 0. -1.
         21   -1    0    0  501  502 -0.00000000000E+00 -0.00000000000E+00 -0.62285970057E+03  0.62285970057E+03  0.00000000000E+00 0. -1.
         25    1    1    2    0    0 -0.10516530383E+03 -0.12909662831E+03 -0.10010621908E+03  0.23102366907E+03  0.12500000000E+03 0.  0.
         25    1    1    2    0    0  0.10516530383E+03  0.12909662831E+03 -0.43359522793E+03  0.48099428506E+03  0.12500000000E+03 0.  0.
</event>
<event>
 4    0  0.2270578E-002  0.1805611E+03  0.7546771E-02  0.1167261E+00
         21   -1    0    0  502  501  0.00000000000E+00  0.00000000000E+00  0.14369414207E+04  0.14369414207E+04  0.00000000000E+00 0.  1.
         21   -1    0    0  501  502 -0.00000000000E+00 -0.00000000000E+00 -0.22688697004E+02  0.22688697004E+02  0.00000000000E+00 0.  1.
         25    1    1    2    0    0 -0.10916692093E+03  0.68944274790E+02  0.77790036746E+03  0.79838882216E+03  0.12500000000E+03 0.  0.
         25    1    1    2    0    0  0.10916692093E+03 -0.68944274790E+02  0.63635235626E+03  0.66124129557E+03  0.12500000000E+03 0.  0.
</event>
<event>
 4    0  0.2270578E-002  0.1919611E+03  0.7546771E-02  0.1156704E+00
         21   -1    0    0  502  501  0.00000000000E+00  0.00000000000E+00  0.81253350385E+03  0.81253350385E+03  0.00000000000E+00 0. -1.
         21   -1    0    0  501  502 -0.00000000000E+00 -0.00000000000E+00 -0.45350837138E+02  0.45350837138E+02  0.00000000000E+00 0. -1.
         25    1    1    2    0    0  0.75855027011E+02 -0.11015283088E+03  0.25452073351E+03  0.31351783850E+03  0.12500000000E+03 0.  0.
         25    1    1    2    0    0 -0.75855027011E+02  0.11015283088E+03  0.51266193320E+03  0.54436650248E+03  0.12500000000E+03 0.  0.
</event>
<event>
 4    0  0.2270578E-002  0.3004540E+03  0.7546771E-02  0.1085014E+00
         21   -1    0    0  502  501  0.00000000000E+00  0.00000000000E+00  0.98709440383E+02  0.98709440383E+02  0.00000000000E+00 0. -1.
         21   -1    0    0  501  502 -0.00000000000E+00 -0.00000000000E+00 -0.91452830356E+03  0.91452830356E+03  0.00000000000E+00 0. -1.
         25    1    1    2    0    0 -0.15224869722E+03 -0.21295868875E+03 -0.53978223001E+03  0.61279762137E+03  0.12500000000E+03 0.  0.
         25    1    1    2    0    0  0.15224869722E+03  0.21295868875E+03 -0.27603663317E+03  0.40044012258E+03  0.12500000000E+03 0.  0.
</event>
<event>
 4    0  0.2270578E-002  0.2428871E+03  0.7546771E-02  0.1117884E+00
         21   -1    0    0  502  501  0.00000000000E+00  0.00000000000E+00  0.10465983382E+04  0.10465983382E+04  0.00000000000E+00 0. -1.
         21   -1    0    0  501  502 -0.00000000000E+00 -0.00000000000E+00 -0.56367516354E+02  0.56367516354E+02  0.00000000000E+00 0. -1.
         25    1    1    2    0    0 -0.37627451542E+00  0.14835684224E+02  0.96675745820E+03  0.97491805916E+03  0.12500000000E+03 0.  0.
         25    1    1    2    0    0  0.37627451542E+00 -0.14835684224E+02  0.23473363678E+02  0.12804779542E+03  0.12500000000E+03 0.  0.
</event>
<event>
 4    0  0.2270578E-002  0.3073902E+03  0.7546771E-02  0.1081604E+00
         21   -1    0    0  502  501  0.00000000000E+00  0.00000000000E+00  0.21321881300E+03  0.21321881300E+03  0.00000000000E+00 0. -1.
         21   -1    0    0  501  502 -0.00000000000E+00 -0.00000000000E+00 -0.44315392828E+03  0.44315392828E+03  0.00000000000E+00 0. -1.
         25    1    1    2    0    0 -0.33171040395E+02 -0.19433562199E+03  0.98555482940E+02  0.25338673034E+03  0.12500000000E+03 0.  0.
         25    1    1    2    0    0  0.33171040395E+02  0.19433562199E+03 -0.32849059822E+03  0.40298601094E+03  0.12500000000E+03 0.  0.
</event>
<event>
 4    0  0.2270578E-002  0.2273531E+03  0.7546771E-02  0.1128517E+00
         21   -1    0    0  502  501  0.00000000000E+00  0.00000000000E+00  0.10916578164E+03  0.10916578164E+03  0.00000000000E+00 0. -1.
         21   -1    0    0  501  502 -0.00000000000E+00 -0.00000000000E+00 -0.47349491890E+03  0.47349491890E+03  0.00000000000E+00 0. -1.
         25    1    1    2    0    0  0.17482542679E+03 -0.34243338545E+02 -0.26646382761E+03  0.34404143284E+03  0.12500000000E+03 0.  0.
         25    1    1    2    0    0 -0.17482542679E+03  0.34243338545E+02 -0.97865309651E+02  0.23861926771E+03  0.12500000000E+03 0.  0.
</event>
<event>
 4    0  0.2270578E-002  0.1766450E+03  0.7546771E-02  0.1171090E+00
         21   -1    0    0  502  501  0.00000000000E+00  0.00000000000E+00  0.45669312091E+03  0.45669312091E+03  0.00000000000E+00 0. -1.
         21   -1    0    0  501  502 -0.00000000000E+00 -0.00000000000E+00 -0.68324815066E+02  0.68324815066E+02  0.00000000000E+00 0. -1.
         25    1    1    2    0    0  0.80970135358E+02  0.91914916729E+02  0.15858146035E+03  0.23617280602E+03  0.12500000000E+03 0.  0.
         25    1    1    2    0    0 -0.80970135358E+02 -0.91914916729E+02  0.22978684549E+03  0.28884512995E+03  0.12500000000E+03 0.  0.
</event>
<event>
 4    0  0.2270578E-002  0.2011306E+03  0.7546771E-02  0.1148789E+00
         21   -1    0    0  502  501  0.00000000000E+00  0.00000000000E+00  0.41535109607E+03  0.41535109607E+03  0.00000000000E+00 0.  1.
         21   -1    0    0  501  502 -0.00000000000E+00 -0.00000000000E+00 -0.97395979932E+02  0.97395979932E+02  0.00000000000E+00 0.  1.
         25    1    1    2    0    0 -0.24891106678E+02 -0.13754192309E+03  0.66258024864E+02  0.19887803714E+03  0.12500000000E+03 0.  0.
         25    1    1    2    0    0  0.24891106678E+02  0.13754192309E+03  0.25169709127E+03  0.31386903886E+03  0.12500000000E+03 0.  0.
</event>
<event>
 4    0  0.2270578E-002  0.1534409E+03  0.7546771E-02  0.1196308E+00
         21   -1    0    0  502  501  0.00000000000E+00  0.00000000000E+00  0.22737423268E+03  0.22737423268E+03  0.00000000000E+00 0. -1.
         21   -1    0    0  501  502 -0.00000000000E+00 -0.00000000000E+00 -0.10354777051E+03  0.10354777051E+03  0.00000000000E+00 0. -1.
         25    1    1    2    0    0  0.81658450178E+02 -0.33770993350E+02  0.50577223372E+02  0.16121922342E+03  0.12500000000E+03 0.  0.
         25    1    1    2    0    0 -0.81658450178E+02  0.33770993350E+02  0.73249238789E+02  0.16970277977E+03  0.12500000000E+03 0.  0.
</event>
<event>
 4    0  0.2270578E-002  0.2384826E+03  0.7546771E-02  0.1120808E+00
         21   -1    0    0  502  501  0.00000000000E+00  0.00000000000E+00  0.49497954032E+02  0.49497954032E+02  0.00000000000E+00 0.  1.
         21   -1    0    0  501  502 -0.00000000000E+00 -0.00000000000E+00 -0.11490163470E+04  0.11490163470E+04  0.00000000000E+00 0.  1.
         25    1    1    2    0    0  0.64196437460E+01  0.21232670061E+02 -0.42468173854E+02  0.13386778512E+03  0.12500000000E+03 0.  0.
         25    1    1    2    0    0 -0.64196437460E+01 -0.21232670061E+02 -0.10570502192E+04  0.10646465160E+04  0.12500000000E+03 0.  0.
</event>
<event>
 4    0  0.2270578E-002  0.2585599E+03  0.7546771E-02  0.1108012E+00
         21   -1    0    0  502  501  0.00000000000E+00  0.00000000000E+00  0.13053009871E+03  0.13053009871E+03  0.00000000000E+00 0.  1.
         21   -1    0    0  501  502 -0.00000000000E+00 -0.00000000000E+00 -0.51216718335E+03  0.51216718335E+03  0.00000000000E+00 0.  1.
         25    1    1    2    0    0 -0.18799576158E+02 -0.57584007302E+02 -0.46185712653E+03  0.48229280244E+03  0.12500000000E+03 0.  0.
         25    1    1    2    0    0  0.18799576158E+02  0.57584007302E+02  0.80220041894E+02  0.16040447962E+03  0.12500000000E+03 0.  0.
</event>
<event>
 4    0  0.2270578E-002  0.1842047E+03  0.7546771E-02  0.1163795E+00
         21   -1    0    0  502  501  0.00000000000E+00  0.00000000000E+00  0.55318446644E+02  0.55318446644E+02  0.00000000000E+00 0. -1.
         21   -1    0    0  501  502 -0.00000000000E+00 -0.00000000000E+00 -0.61338277490E+03  0.61338277490E+03  0.00000000000E+00 0. -1.
         25    1    1    2    0    0  0.64550989246E+02 -0.82878137723E+02 -0.43380382386E+03  0.46351523548E+03  0.12500000000E+03 0.  0.
         25    1    1    2    0    0 -0.64550989246E+02  0.82878137723E+02 -0.12426050440E+03  0.20518598607E+03  0.12500000000E+03 0.  0.
</event>
<event>
 4    0  0.2270578E-002  0.2421035E+03  0.7546771E-02  0.1118399E+00
         21   -1    0    0  502  501  0.00000000000E+00  0.00000000000E+00  0.30402273974E+03  0.30402273974E+03  0.00000000000E+00 0.  1.
         21   -1    0    0  501  502 -0.00000000000E+00 -0.00000000000E+00 -0.19279518940E+03  0.19279518940E+03  0.00000000000E+00 0.  1.
         25    1    1    2    0    0 -0.41614973397E+02 -0.27857477602E+02 -0.15082593171E+03  0.20219126278E+03  0.12500000000E+03 0.  0.
         25    1    1    2    0    0  0.41614973397E+02  0.27857477602E+02  0.26205348206E+03  0.29462666635E+03  0.12500000000E+03 0.  0.
</event>
<event>
 4    0  0.2270578E-002  0.2179490E+03  0.7546771E-02  0.1135421E+00
         21   -1    0    0  502  501  0.00000000000E+00  0.00000000000E+00  0.41548179174E+03  0.41548179174E+03  0.00000000000E+00 0.  1.
         21   -1    0    0  501  502 -0.00000000000E+00 -0.00000000000E+00 -0.11432931000E+03  0.11432931000E+03  0.00000000000E+00 0. -1.
         25    1    1    2    0    0  0.44810078257E+02 -0.16927782785E+03  0.10823013345E+03  0.24083539587E+03  0.12500000000E+03 0.  0.
         25    1    1    2    0    0 -0.44810078257E+02  0.16927782785E+03  0.19292234828E+03  0.28897570587E+03  0.12500000000E+03 0.  0.
</event>
<event>
 4    0  0.2270578E-002  0.2402653E+03  0.7546771E-02  0.1119616E+00
         21   -1    0    0  502  501  0.00000000000E+00  0.00000000000E+00  0.45466885499E+03  0.45466885499E+03  0.00000000000E+00 0. -1.
         21   -1    0    0  501  502 -0.00000000000E+00 -0.00000000000E+00 -0.12696583985E+03  0.12696583985E+03  0.00000000000E+00 0. -1.
         25    1    1    2    0    0  0.69898699714E+02  0.14304000774E+03  0.71705330629E+01  0.20254058502E+03  0.12500000000E+03 0.  0.
         25    1    1    2    0    0 -0.69898699714E+02 -0.14304000774E+03  0.32053248208E+03  0.37909410983E+03  0.12500000000E+03 0.  0.
</event>
<event>
 4    0  0.2270578E-002  0.2055520E+03  0.7546771E-02  0.1145138E+00
         21   -1    0    0  502  501  0.00000000000E+00  0.00000000000E+00  0.10909260333E+04  0.10909260333E+04  0.00000000000E+00 0.  1.
         21   -1    0    0  501  502 -0.00000000000E+00 -0.00000000000E+00 -0.38730067914E+02  0.38730067914E+02  0.00000000000E+00 0.  1.
         25    1    1    2    0    0  0.15967393034E+03  0.16270819134E+02  0.60696798621E+03  0.64015282541E+03  0.12500000000E+03 0.  0.
         25    1    1    2    0    0 -0.15967393034E+03 -0.16270819134E+02  0.44522797915E+03  0.48950327578E+03  0.12500000000E+03 0.  0.
</event>
<event>
 4    0  0.2270578E-002  0.3406563E+03  0.7546771E-02  0.1066517E+00
         21   -1    0    0  502  501  0.00000000000E+00  0.00000000000E+00  0.39765496362E+03  0.39765496362E+03  0.00000000000E+00 0.  1.
         21   -1    0    0  501  502 -0.00000000000E+00 -0.00000000000E+00 -0.29182762674E+03  0.29182762674E+03  0.00000000000E+00 0. -1.
         25    1    1    2    0    0  0.10742395132E+03  0.21706894401E+03 -0.15389659348E+03  0.31299839178E+03  0.12500000000E+03 0.  0.
         25    1    1    2    0    0 -0.10742395132E+03 -0.21706894401E+03  0.25972393036E+03  0.37648419857E+03  0.12500000000E+03 0.  0.
</event>
<event>
 4    0  0.2270578E-002  0.1907152E+03  0.7546771E-02  0.1157818E+00
         21   -1    0    0  502  501  0.00000000000E+00  0.00000000000E+00  0.19378040320E+03  0.19378040320E+03  0.00000000000E+00 0. -1.
         21   -1    0    0  501  502 -0.00000000000E+00 -0.00000000000E+00 -0.18769849088E+03  0.18769849088E+03  0.00000000000E+00 0. -1.
         25    1    1    2    0    0  0.32049526137E+01 -0.14397875401E+03  0.57126094305E+01  0.19078204117E+03  0.12500000000E+03 0.  0.
         25    1    1    2    0    0 -0.32049526137E+01  0.14397875401E+03  0.36930289120E+00  0.19069685291E+03  0.12500000000E+03 0.  0.
</event>
<event>
 4    0  0.2270578E-002  0.2184013E+03  0.7546771E-02  0.1135081E+00
         21   -1    0    0  502  501  0.00000000000E+00  0.00000000000E+00  0.71645831673E+03  0.71645831673E+03  0.00000000000E+00 0.  1.
         21   -1    0    0  501  502 -0.00000000000E+00 -0.00000000000E+00 -0.66576274976E+02  0.66576274976E+02  0.00000000000E+00 0. -1.
         25    1    1    2    0    0  0.14852149345E+03 -0.13288717744E+02  0.14712574962E+03  0.24393894776E+03  0.12500000000E+03 0.  0.
         25    1    1    2    0    0 -0.14852149345E+03  0.13288717744E+02  0.50275629214E+03  0.53909564395E+03  0.12500000000E+03 0.  0.
</event>
<event>
 4    0  0.2270578E-002  0.2541881E+03  0.7546771E-02  0.1110686E+00
         21   -1    0    0  502  501  0.00000000000E+00  0.00000000000E+00  0.62579888626E+03  0.62579888626E+03  0.00000000000E+00 0.  1.
         21   -1    0    0  501  502 -0.00000000000E+00 -0.00000000000E+00 -0.10324657127E+03  0.10324657127E+03  0.00000000000E+00 0.  1.
         25    1    1    2    0    0 -0.17626968842E+03 -0.98330757911E+02  0.39150528694E+03  0.45786606197E+03  0.12500000000E+03 0.  0.
         25    1    1    2    0    0  0.17626968842E+03  0.98330757911E+02  0.13104702805E+03  0.27117939555E+03  0.12500000000E+03 0.  0.
</event>
<event>
 4    0  0.2270578E-002  0.2844786E+03  0.7546771E-02  0.1093268E+00
         21   -1    0    0  502  501  0.00000000000E+00  0.00000000000E+00  0.31557886762E+03  0.31557886762E+03  0.00000000000E+00 0. -1.
         21   -1    0    0  501  502 -0.00000000000E+00 -0.00000000000E+00 -0.25644329065E+03  0.25644329065E+03  0.00000000000E+00 0. -1.
         25    1    1    2    0    0  0.10821459880E+02  0.15102791678E+01 -0.22711853407E+03  0.25947488020E+03  0.12500000000E+03 0.  0.
         25    1    1    2    0    0 -0.10821459880E+02 -0.15102791678E+01  0.28625411104E+03  0.31254727806E+03  0.12500000000E+03 0.  0.
</event>
<event>
 4    0  0.2270578E-002  0.2248389E+03  0.7546771E-02  0.1130326E+00
         21   -1    0    0  502  501  0.00000000000E+00  0.00000000000E+00  0.27170543386E+03  0.27170543386E+03  0.00000000000E+00 0. -1.
         21   -1    0    0  501  502 -0.00000000000E+00 -0.00000000000E+00 -0.18605640841E+03  0.18605640841E+03  0.00000000000E+00 0. -1.
         25    1    1    2    0    0 -0.11057183007E+03  0.91485477918E+02 -0.79043213769E+02  0.20607899436E+03  0.12500000000E+03 0.  0.
         25    1    1    2    0    0  0.11057183007E+03 -0.91485477918E+02  0.16469223921E+03  0.25168284791E+03  0.12500000000E+03 0.  0.
</event>
<event>
 4    0  0.2270578E-002  0.1710748E+03  0.7546771E-02  0.1176732E+00
         21   -1    0    0  502  501  0.00000000000E+00  0.00000000000E+00  0.12068894774E+03  0.12068894774E+03  0.00000000000E+00 0. -1.
         21   -1    0    0  501  502 -0.00000000000E+00 -0.00000000000E+00 -0.24249590316E+03  0.24249590316E+03  0.00000000000E+00 0. -1.
         25    1    1    2    0    0 -0.60146485697E+01  0.10153883632E+03  0.30129662547E-01  0.16115617328E+03  0.12500000000E+03 0.  0.
         25    1    1    2    0    0  0.60146485697E+01 -0.10153883632E+03 -0.12183708508E+03  0.20202867762E+03  0.12500000000E+03 0.  0.
</event>
<event>
 4    0  0.2270578E-002  0.2265839E+03  0.7546771E-02  0.1129068E+00
         21   -1    0    0  502  501  0.00000000000E+00  0.00000000000E+00  0.14454976273E+03  0.14454976273E+03  0.00000000000E+00 0. -1.
         21   -1    0    0  501  502 -0.00000000000E+00 -0.00000000000E+00 -0.35517362177E+03  0.35517362177E+03  0.00000000000E+00 0. -1.
         25    1    1    2    0    0  0.13889135892E+03  0.11415657334E+03 -0.16954301758E+03  0.27693386869E+03  0.12500000000E+03 0.  0.
         25    1    1    2    0    0 -0.13889135892E+03 -0.11415657334E+03 -0.41080841464E+02  0.22278951581E+03  0.12500000000E+03 0.  0.
</event>
<event>
 4    0  0.2270578E-002  0.1858737E+03  0.7546771E-02  0.1162236E+00
         21   -1    0    0  502  501  0.00000000000E+00  0.00000000000E+00  0.48504294332E+03  0.48504294332E+03  0.00000000000E+00 0. -1.
         21   -1    0    0  501  502 -0.00000000000E+00 -0.00000000000E+00 -0.71228834564E+02  0.71228834564E+02  0.00000000000E+00 0. -1.
         25    1    1    2    0    0  0.33688969146E+02  0.10752260197E+03  0.88817124451E+02  0.19028804002E+03  0.12500000000E+03 0.  0.
         25    1    1    2    0    0 -0.33688969146E+02 -0.10752260197E+03  0.32499698430E+03  0.36598373787E+03  0.12500000000E+03 0.  0.
</event>
<event>
 4    0  0.2270578E-002  0.1514916E+03  0.7546771E-02  0.1198652E+00
         21   -1    0    0  502  501  0.00000000000E+00  0.00000000000E+00  0.65455856366E+02  0.65455856366E+02  0.00000000000E+00 0.  1.
         21   -1    0    0  501  502 -0.00000000000E+00 -0.00000000000E+00 -0.35061354976E+03  0.35061354976E+03  0.00000000000E+00 0.  1.
         25    1    1    2    0    0 -0.34534278106E+02 -0.78298783901E+02 -0.14095735726E+03  0.20692339764E+03  0.12500000000E+03 0.  0.
         25    1    1    2    0    0  0.34534278106E+02  0.78298783901E+02 -0.14420033613E+03  0.20914600848E+03  0.12500000000E+03 0.  0.
</event>
<event>
 4    0  0.2270578E-002  0.2470873E+03  0.7546771E-02  0.1115160E+00
         21   -1    0    0  502  501  0.00000000000E+00  0.00000000000E+00  0.17667288355E+03  0.17667288355E+03  0.00000000000E+00 0. -1.
         21   -1    0    0  501  502 -0.00000000000E+00 -0.00000000000E+00 -0.34556582435E+03  0.34556582435E+03  0.00000000000E+00 0. -1.
         25    1    1    2    0    0 -0.73904878971E+02  0.15406003437E+03  0.50188273979E+02  0.21757823460E+03  0.12500000000E+03 0.  0.
         25    1    1    2    0    0  0.73904878971E+02 -0.15406003437E+03 -0.21908121478E+03  0.30466047330E+03  0.12500000000E+03 0.  0.
</event>
<event>
 4    0  0.2270578E-002  0.1986679E+03  0.7546771E-02  0.1150868E+00
         21   -1    0    0  502  501  0.00000000000E+00  0.00000000000E+00  0.52490208280E+02  0.52490208280E+02  0.00000000000E+00 0. -1.
         21   -1    0    0  501  502 -0.00000000000E+00 -0.00000000000E+00 -0.75192935594E+03  0.75192935594E+03  0.00000000000E+00 0. -1.
         25    1    1    2    0    0  0.96980864339E+02  0.26015948401E+02 -0.58721910320E+03  0.60871454130E+03  0.12500000000E+03 0.  0.
         25    1    1    2    0    0 -0.96980864339E+02 -0.26015948401E+02 -0.11222004445E+03  0.19570502292E+03  0.12500000000E+03 0.  0.
</event>
<event>
 4    0  0.2270578E-002  0.1857266E+03  0.7546771E-02  0.1162373E+00
         21   -1    0    0  502  501  0.00000000000E+00  0.00000000000E+00  0.80106600982E+03  0.80106600982E+03  0.00000000000E+00 0. -1.
         21   -1    0    0  501  502 -0.00000000000E+00 -0.00000000000E+00 -0.43060586409E+02  0.43060586409E+02  0.00000000000E+00 0. -1.
         25    1    1    2    0    0  0.13421360106E+03 -0.15197734356E+02  0.43582016868E+03  0.47308401080E+03  0.12500000000E+03 0.  0.
         25    1    1    2    0    0 -0.13421360106E+03  0.15197734356E+02  0.32218525473E+03  0.37104258543E+03  0.12500000000E+03 0.  0.
</event>
<event>
 4    0  0.2270578E-002  0.2118849E+03  0.7546771E-02  0.1140082E+00
         21   -1    0    0  502  501  0.00000000000E+00  0.00000000000E+00  0.99238773834E+03  0.99238773834E+03  0.00000000000E+00 0.  1.
         21   -1    0    0  501  502 -0.00000000000E+00 -0.00000000000E+00 -0.45239577251E+02  0.45239577251E+02  0.00000000000E+00 0. -1.
         25    1    1    2    0    0 -0.16434975290E+03  0.47116664883E+02  0.45820841782E+03  0.50478785202E+03  0.12500000000E+03 0.  0.
         25    1    1    2    0    0  0.16434975290E+03 -0.47116664883E+02  0.48893974327E+03  0.53283946357E+03  0.12500000000E+03 0.  0.
</event>
<event>
 4    0  0.2270578E-002  0.1432126E+03  0.7546771E-02  0.1209070E+00
         21   -1    0    0  502  501  0.00000000000E+00  0.00000000000E+00  0.51987743478E+03  0.51987743478E+03  0.00000000000E+00 0.  1.
         21   -1    0    0  501  502 -0.00000000000E+00 -0.00000000000E+00 -0.39451332088E+02  0.39451332088E+02  0.00000000000E+00 0.  1.
         25    1    1    2    0    0  0.17753922889E+02  0.54193362771E+02  0.31911971652E+03  0.34743994563E+03  0.12500000000E+03 0.  0.
         25    1    1    2    0    0 -0.17753922889E+02 -0.54193362771E+02  0.16130638617E+03  0.21188882123E+03  0.12500000000E+03 0.  0.
</event>
<event>
 4    0  0.2270578E-002  0.2119541E+03  0.7546771E-02  0.1140028E+00
         21   -1    0    0  502  501  0.00000000000E+00  0.00000000000E+00  0.10448542804E+04  0.10448542804E+04  0.00000000000E+00 0.  1.
         21   -1    0    0  501  502 -0.00000000000E+00 -0.00000000000E+00 -0.42995977122E+02  0.42995977122E+02  0.00000000000E+00 0.  1.
         25    1    1    2    0    0  0.11432988868E+03 -0.10067292563E+03  0.30061161427E+03  0.35944221237E+03  0.12500000000E+03 0.  0.
         25    1    1    2    0    0 -0.11432988868E+03  0.10067292563E+03  0.70124668901E+03  0.72840804515E+03  0.12500000000E+03 0.  0.
</event>
<event>
 4    0  0.2270578E-002  0.2099081E+03  0.7546771E-02  0.1141639E+00
         21   -1    0    0  502  501  0.00000000000E+00  0.00000000000E+00  0.41272772178E+02  0.41272772178E+02  0.00000000000E+00 0. -1.
         21   -1    0    0  501  502 -0.00000000000E+00 -0.00000000000E+00 -0.10675661184E+04  0.10675661184E+04  0.00000000000E+00 0. -1.
         25    1    1    2    0    0 -0.31733927393E+02 -0.47056957013E+01 -0.75884614576E+02  0.14970858509E+03  0.12500000000E+03 0.  0.
         25    1    1    2    0    0  0.31733927393E+02  0.47056957013E+01 -0.95040873168E+03  0.95913030552E+03  0.12500000000E+03 0.  0.
</event>
<event>
 4    0  0.2270578E-002  0.2026752E+03  0.7546771E-02  0.1147501E+00
         21   -1    0    0  502  501  0.00000000000E+00  0.00000000000E+00  0.82132229296E+02  0.82132229296E+02  0.00000000000E+00 0.  1.
         21   -1    0    0  501  502 -0.00000000000E+00 -0.00000000000E+00 -0.50013553948E+03  0.50013553948E+03  0.00000000000E+00 0.  1.
         25    1    1    2    0    0 -0.37399240235E+02 -0.15509194206E+03 -0.20874013550E+03  0.29094614249E+03  0.12500000000E+03 0.  0.
         25    1    1    2    0    0  0.37399240235E+02  0.15509194206E+03 -0.20926317468E+03  0.29132162628E+03  0.12500000000E+03 0.  0.
</event>
<event>
 4    0  0.2270578E-002  0.2123819E+03  0.7546771E-02  0.1139694E+00
         21   -1    0    0  502  501  0.00000000000E+00  0.00000000000E+00  0.16702899379E+03  0.16702899379E+03  0.00000000000E+00 0. -1.
         21   -1    0    0  501  502 -0.00000000000E+00 -0.00000000000E+00 -0.27004940167E+03  0.27004940167E+03  0.00000000000E+00 0. -1.
         25    1    1    2    0    0 -0.75962073626E+02  0.14592506746E+03 -0.10209555647E+03  0.23046228454E+03  0.12500000000E+03 0.  0.
         25    1    1    2    0    0  0.75962073626E+02 -0.14592506746E+03 -0.92485141666E+00  0.20661611093E+03  0.12500000000E+03 0.  0.
</event>
<event>
 4    0  0.2270578E-002  0.2230599E+03  0.7546771E-02  0.1131622E+00
         21   -1    0    0  502  501  0.00000000000E+00  0.00000000000E+00  0.36925134202E+03  0.36925134202E+03  0.00000000000E+00 0. -1.
         21   -1    0    0  501  502 -0.00000000000E+00 -0.00000000000E+00 -0.13474760921E+03  0.13474760921E+03  0.00000000000E+00 0. -1.
         25    1    1    2    0    0 -0.58493207979E+02 -0.17363171707E+03  0.14401754650E+03  0.26445317592E+03  0.12500000000E+03 0.  0.
         25    1    1    2    0    0  0.58493207979E+02  0.17363171707E+03  0.90486186310E+02  0.23954577530E+03  0.12500000000E+03 0.  0.
</event>
<event>
 4    0  0.2270578E-002  0.1532677E+03  0.7546771E-02  0.1196514E+00
         21   -1    0    0  502  501  0.00000000000E+00  0.00000000000E+00  0.10758004021E+04  0.10758004021E+04  0.00000000000E+00 0. -1.
         21   -1    0    0  501  502 -0.00000000000E+00 -0.00000000000E+00 -0.21835811571E+02  0.21835811571E+02  0.00000000000E+00 0. -1.
         25    1    1    2    0    0  0.22520166276E+02 -0.41888514030E+02  0.25892135453E+03  0.29142249970E+03  0.12500000000E+03 0.  0.
         25    1    1    2    0    0 -0.22520166276E+02  0.41888514030E+02  0.79504323600E+03  0.80621371398E+03  0.12500000000E+03 0.  0.
</event>
<event>
 4    0  0.2270578E-002  0.1557119E+03  0.7546771E-02  0.1193625E+00
         21   -1    0    0  502  501  0.00000000000E+00  0.00000000000E+00  0.65848043307E+02  0.65848043307E+02  0.00000000000E+00 0.  1.
         21   -1    0    0  501  502 -0.00000000000E+00 -0.00000000000E+00 -0.36821416573E+03  0.36821416573E+03  0.00000000000E+00 0.  1.
         25    1    1    2    0    0 -0.35620037997E+01  0.36131026858E+02 -0.32071960829E+02  0.13405875445E+03  0.12500000000E+03 0.  0.
         25    1    1    2    0    0  0.35620037997E+01 -0.36131026858E+02 -0.27029416159E+03  0.30000345458E+03  0.12500000000E+03 0.  0.
</event>
<event>
 4    0  0.2270578E-002  0.1872457E+03  0.7546771E-02  0.1160969E+00
         21   -1    0    0  502  501  0.00000000000E+00  0.00000000000E+00  0.60051174730E+02  0.60051174730E+02  0.00000000000E+00 0.  1.
         21   -1    0    0  501  502 -0.00000000000E+00 -0.00000000000E+00 -0.58385109464E+03  0.58385109464E+03  0.00000000000E+00 0.  1.
         25    1    1    2    0    0 -0.67974901370E+02  0.11953589350E+03 -0.22244619069E+03  0.28985638651E+03  0.12500000000E+03 0.  0.
         25    1    1    2    0    0  0.67974901370E+02 -0.11953589350E+03 -0.30135372922E+03  0.35404588286E+03  0.12500000000E+03 0.  0.
</event>
<event>
 4    0  0.2270578E-002  0.5079266E+03  0.7546771E-02  0.1011730E+00
         21   -1    0    0  502  501  0.00000000000E+00  0.00000000000E+00  0.68685159313E+03  0.68685159313E+03  0.00000000000E+00 0.  1.
         21   -1    0    0  501  502 -0.00000000000E+00 -0.00000000000E+00 -0.37561159134E+03  0.37561159134E+03  0.00000000000E+00 0.  1.
         25    1    1    2    0    0 -0.25928553491E+03 -0.17577128858E+03 -0.24159499043E+03  0.41487067130E+03  0.12500000000E+03 0.  0.
         25    1    1    2    0    0  0.25928553491E+03  0.17577128858E+03  0.55283499222E+03  0.64759251318E+03  0.12500000000E+03 0.  0.
</event>
<event>
 4    0  0.2270578E-002  0.2864904E+03  0.7546771E-02  0.1092196E+00
         21   -1    0    0  502  501  0.00000000000E+00  0.00000000000E+00  0.13947116485E+03  0.13947116485E+03  0.00000000000E+00 0. -1.
         21   -1    0    0  501  502 -0.00000000000E+00 -0.00000000000E+00 -0.58848530256E+03  0.58848530256E+03  0.00000000000E+00 0. -1.
         25    1    1    2    0    0 -0.17586177776E+03  0.16703694458E+03 -0.11358216571E+03  0.29555813997E+03  0.12500000000E+03 0.  0.
         25    1    1    2    0    0  0.17586177776E+03 -0.16703694458E+03 -0.33543197201E+03  0.43239832744E+03  0.12500000000E+03 0.  0.
</event>
<event>
 4    0  0.2270578E-002  0.2288720E+03  0.7546771E-02  0.1127436E+00
         21   -1    0    0  502  501  0.00000000000E+00  0.00000000000E+00  0.58434047277E+03  0.58434047277E+03  0.00000000000E+00 0.  1.
         21   -1    0    0  501  502 -0.00000000000E+00 -0.00000000000E+00 -0.89643653250E+02  0.89643653250E+02  0.00000000000E+00 0.  1.
         25    1    1    2    0    0 -0.13604689369E+01 -0.19094407885E+03  0.22201953020E+03  0.31840094836E+03  0.12500000000E+03 0.  0.
         25    1    1    2    0    0  0.13604689369E+01  0.19094407885E+03  0.27267728932E+03  0.35558317766E+03  0.12500000000E+03 0.  0.
</event>
<event>
 4    0  0.2270578E-002  0.2028080E+03  0.7546771E-02  0.1147391E+00
         21   -1    0    0  502  501  0.00000000000E+00  0.00000000000E+00  0.75992353162E+02  0.75992353162E+02  0.00000000000E+00 0.  1.
         21   -1    0    0  501  502 -0.00000000000E+00 -0.00000000000E+00 -0.54125288326E+03  0.54125288326E+03  0.00000000000E+00 0.  1.
         25    1    1    2    0    0  0.13284190326E+03  0.53130062835E+02 -0.12463648994E+03  0.22722022239E+03  0.12500000000E+03 0.  0.
         25    1    1    2    0    0 -0.13284190326E+03 -0.53130062835E+02 -0.34062404016E+03  0.39002501403E+03  0.12500000000E+03 0.  0.
</event>
<event>
 4    0  0.2270578E-002  0.1859172E+03  0.7546771E-02  0.1162196E+00
         21   -1    0    0  502  501  0.00000000000E+00  0.00000000000E+00  0.12415390748E+03  0.12415390748E+03  0.00000000000E+00 0.  1.
         21   -1    0    0  501  502 -0.00000000000E+00 -0.00000000000E+00 -0.27840624603E+03  0.27840624603E+03  0.00000000000E+00 0.  1.
         25    1    1    2    0    0  0.30952041978E+02 -0.49721545517E+02 -0.21195615149E+03  0.25294400792E+03  0.12500000000E+03 0.  0.
         25    1    1    2    0    0 -0.30952041978E+02  0.49721545517E+02  0.57703812942E+02  0.14961614558E+03  0.12500000000E+03 0.  0.
</event>
<event>
 4    0  0.2270578E-002  0.2192969E+03  0.7546771E-02  0.1134408E+00
         21   -1    0    0  502  501  0.00000000000E+00  0.00000000000E+00  0.38894642311E+03  0.38894642311E+03  0.00000000000E+00 0. -1.
         21   -1    0    0  501  502 -0.00000000000E+00 -0.00000000000E+00 -0.12364455957E+03  0.12364455957E+03  0.00000000000E+00 0. -1.
         25    1    1    2    0    0 -0.80310000504E+02 -0.15273131503E+03  0.72040265292E+02  0.22492521111E+03  0.12500000000E+03 0.  0.
         25    1    1    2    0    0  0.80310000504E+02  0.15273131503E+03  0.19326159825E+03  0.28766577156E+03  0.12500000000E+03 0.  0.
</event>
<event>
 4    0  0.2270578E-002  0.2509068E+03  0.7546771E-02  0.1112733E+00
         21   -1    0    0  502  501  0.00000000000E+00  0.00000000000E+00  0.10204744964E+03  0.10204744964E+03  0.00000000000E+00 0. -1.
         21   -1    0    0  501  502 -0.00000000000E+00 -0.00000000000E+00 -0.61691135202E+03  0.61691135202E+03  0.00000000000E+00 0. -1.
         25    1    1    2    0    0 -0.58394176886E+02 -0.15913838585E+03 -0.45279919607E+03  0.49938664150E+03  0.12500000000E+03 0.  0.
         25    1    1    2    0    0  0.58394176886E+02  0.15913838585E+03 -0.62064706310E+02  0.21957216015E+03  0.12500000000E+03 0.  0.
</event>
<event>
 4    0  0.2270578E-002  0.2064501E+03  0.7546771E-02  0.1144408E+00
         21   -1    0    0  502  501  0.00000000000E+00  0.00000000000E+00  0.33068419894E+03  0.33068419894E+03  0.00000000000E+00 0. -1.
         21   -1    0    0  501  502 -0.00000000000E+00 -0.00000000000E+00 -0.12888927882E+03  0.12888927882E+03  0.00000000000E+00 0. -1.
         25    1    1    2    0    0 -0.13968977622E+03 -0.15554744064E+02  0.19561339255E+03  0.27137572292E+03  0.12500000000E+03 0.  0.
         25    1    1    2    0    0  0.13968977622E+03  0.15554744064E+02  0.61815275665E+01  0.18819775484E+03  0.12500000000E+03 0.  0.
</event>
<event>
 4    0  0.2270578E-002  0.1956658E+03  0.7546771E-02  0.1153448E+00
         21   -1    0    0  502  501  0.00000000000E+00  0.00000000000E+00  0.46252452724E+02  0.46252452724E+02  0.00000000000E+00 0.  1.
         21   -1    0    0  501  502 -0.00000000000E+00 -0.00000000000E+00 -0.82774201520E+03  0.82774201520E+03  0.00000000000E+00 0.  1.
         25    1    1    2    0    0  0.13013629061E+03  0.50531028243E+02 -0.51651554352E+03  0.54945622723E+03  0.12500000000E+03 0.  0.
         25    1    1    2    0    0 -0.13013629061E+03 -0.50531028243E+02 -0.26497401896E+03  0.32453824069E+03  0.12500000000E+03 0.  0.
</event>
<event>
 4    0  0.2270578E-002  0.1845002E+03  0.7546771E-02  0.1163517E+00
         21   -1    0    0  502  501  0.00000000000E+00  0.00000000000E+00  0.27128939702E+03  0.27128939702E+03  0.00000000000E+00 0. -1.
         21   -1    0    0  501  502 -0.00000000000E+00 -0.00000000000E+00 -0.12547608506E+03  0.12547608506E+03  0.00000000000E+00 0. -1.
         25    1    1    2    0    0 -0.69331567943E+02  0.56583736182E+02  0.18259600843E+03  0.23869413024E+03  0.12500000000E+03 0.  0.
         25    1    1    2    0    0  0.69331567943E+02 -0.56583736182E+02 -0.36782696466E+02  0.15807135184E+03  0.12500000000E+03 0.  0.
</event>
<event>
 4    0  0.2270578E-002  0.1681413E+03  0.7546771E-02  0.1179800E+00
         21   -1    0    0  502  501  0.00000000000E+00  0.00000000000E+00  0.25185263854E+02  0.25185263854E+02  0.00000000000E+00 0.  1.
         21   -1    0    0  501  502 -0.00000000000E+00 -0.00000000000E+00 -0.11225412883E+04  0.11225412883E+04  0.00000000000E+00 0.  1.
         25    1    1    2    0    0 -0.60038271881E+02 -0.47582701622E+02 -0.26769626832E+03  0.30521303979E+03  0.12500000000E+03 0.  0.
         25    1    1    2    0    0  0.60038271881E+02  0.47582701622E+02 -0.82965975612E+03  0.84251351236E+03  0.12500000000E+03 0.  0.
</event>
<event>
 4    0  0.2270578E-002  0.2574669E+03  0.7546771E-02  0.1108675E+00
         21   -1    0    0  502  501  0.00000000000E+00  0.00000000000E+00  0.13882155086E+04  0.13882155086E+04  0.00000000000E+00 0. -1.
         21   -1    0    0  501  502 -0.00000000000E+00 -0.00000000000E+00 -0.47751363555E+02  0.47751363555E+02  0.00000000000E+00 0. -1.
         25    1    1    2    0    0  0.16213056709E+03  0.15024966050E+03  0.78863956186E+03  0.82851592610E+03  0.12500000000E+03 0.  0.
         25    1    1    2    0    0 -0.16213056709E+03 -0.15024966050E+03  0.55182458322E+03  0.60745094609E+03  0.12500000000E+03 0.  0.
</event>
<event>
 4    0  0.2270578E-002  0.4681702E+03  0.7546771E-02  0.1022438E+00
         21   -1    0    0  502  501  0.00000000000E+00  0.00000000000E+00  0.43948221589E+03  0.43948221589E+03  0.00000000000E+00 0. -1.
         21   -1    0    0  501  502 -0.00000000000E+00 -0.00000000000E+00 -0.49873091362E+03  0.49873091362E+03  0.00000000000E+00 0. -1.
         25    1    1    2    0    0  0.44760171964E+03  0.53559765177E+02 -0.48165929582E+02  0.47027747622E+03  0.12500000000E+03 0.  0.
         25    1    1    2    0    0 -0.44760171964E+03 -0.53559765177E+02 -0.11082768146E+02  0.46793565329E+03  0.12500000000E+03 0.  0.
</event>
<event>
 4    0  0.2270578E-002  0.1368764E+03  0.7546771E-02  0.1217595E+00
         21   -1    0    0  502  501  0.00000000000E+00  0.00000000000E+00  0.46649179597E+03  0.46649179597E+03  0.00000000000E+00 0. -1.
         21   -1    0    0  501  502 -0.00000000000E+00 -0.00000000000E+00 -0.40161796800E+02  0.40161796800E+02  0.00000000000E+00 0. -1.
         25    1    1    2    0    0  0.22667692934E+02 -0.47898229540E+02  0.24533243492E+03  0.28039448696E+03  0.12500000000E+03 0.  0.
         25    1    1    2    0    0 -0.22667692934E+02  0.47898229540E+02  0.18099756426E+03  0.22625910581E+03  0.12500000000E+03 0.  0.
</event>
<event>
 4    0  0.2270578E-002  0.2586720E+03  0.7546771E-02  0.1107944E+00
         21   -1    0    0  502  501  0.00000000000E+00  0.00000000000E+00  0.77409059878E+03  0.77409059878E+03  0.00000000000E+00 0.  1.
         21   -1    0    0  501  502 -0.00000000000E+00 -0.00000000000E+00 -0.86438462712E+02  0.86438462712E+02  0.00000000000E+00 0.  1.
         25    1    1    2    0    0  0.61765405775E+02 -0.21533416305E+03  0.39905447007E+03  0.47439776265E+03  0.12500000000E+03 0.  0.
         25    1    1    2    0    0 -0.61765405775E+02  0.21533416305E+03  0.28859766600E+03  0.38613129884E+03  0.12500000000E+03 0.  0.
</event>
<event>
 4    0  0.2270578E-002  0.1989689E+03  0.7546771E-02  0.1150612E+00
         21   -1    0    0  502  501  0.00000000000E+00  0.00000000000E+00  0.32037805731E+03  0.32037805731E+03  0.00000000000E+00 0. -1.
         21   -1    0    0  501  502 -0.00000000000E+00 -0.00000000000E+00 -0.12356840467E+03  0.12356840467E+03  0.00000000000E+00 0. -1.
         25    1    1    2    0    0  0.97980196140E+02 -0.44278790422E+02 -0.25839535822E+02  0.16689341428E+03  0.12500000000E+03 0.  0.
         25    1    1    2    0    0 -0.97980196140E+02  0.44278790422E+02  0.22264918846E+03  0.27705304770E+03  0.12500000000E+03 0.  0.
</event>
<event>
 4    0  0.2270578E-002  0.1637748E+03  0.7546771E-02  0.1184500E+00
         21   -1    0    0  502  501  0.00000000000E+00  0.00000000000E+00  0.13877105955E+03  0.13877105955E+03  0.00000000000E+00 0. -1.
         21   -1    0    0  501  502 -0.00000000000E+00 -0.00000000000E+00 -0.19328376964E+03  0.19328376964E+03  0.00000000000E+00 0. -1.
         25    1    1    2    0    0 -0.72518130226E+01 -0.10509869106E+03 -0.17176260637E+02  0.16437258769E+03  0.12500000000E+03 0.  0.
         25    1    1    2    0    0  0.72518130226E+01  0.10509869106E+03 -0.37336449449E+02  0.16768224150E+03  0.12500000000E+03 0.  0.
</event>
<event>
 4    0  0.2270578E-002  0.2232371E+03  0.7546771E-02  0.1131492E+00
         21   -1    0    0  502  501  0.00000000000E+00  0.00000000000E+00  0.73720543211E+03  0.73720543211E+03  0.00000000000E+00 0.  1.
         21   -1    0    0  501  502 -0.00000000000E+00 -0.00000000000E+00 -0.67599584690E+02  0.67599584690E+02  0.00000000000E+00 0.  1.
         25    1    1    2    0    0 -0.81131053761E+02 -0.14926150742E+03  0.46663219332E+03  0.51208578316E+03  0.12500000000E+03 0.  0.
         25    1    1    2    0    0  0.81131053761E+02  0.14926150742E+03  0.20297365411E+03  0.29271923364E+03  0.12500000000E+03 0.  0.
</event>
<event>
 4    0  0.2270578E-002  0.2948104E+03  0.7546771E-02  0.1087864E+00
         21   -1    0    0  502  501  0.00000000000E+00  0.00000000000E+00  0.11981025854E+03  0.11981025854E+03  0.00000000000E+00 0.  1.
         21   -1    0    0  501  502 -0.00000000000E+00 -0.00000000000E+00 -0.72542356154E+03  0.72542356154E+03  0.00000000000E+00 0.  1.
         25    1    1    2    0    0 -0.24827605671E+03 -0.93376286633E+02 -0.34647738430E+03  0.45390715909E+03  0.12500000000E+03 0.  0.
         25    1    1    2    0    0  0.24827605671E+03  0.93376286633E+02 -0.25913591869E+03  0.39132666099E+03  0.12500000000E+03 0.  0.
</event>
<event>
 4    0  0.2270578E-002  0.2238208E+03  0.7546771E-02  0.1131066E+00
         21   -1    0    0  502  501  0.00000000000E+00  0.00000000000E+00  0.40397197819E+03  0.40397197819E+03  0.00000000000E+00 0. -1.
         21   -1    0    0  501  502 -0.00000000000E+00 -0.00000000000E+00 -0.12400793763E+03  0.12400793763E+03  0.00000000000E+00 0. -1.
         25    1    1    2    0    0 -0.16789682739E+03 -0.75902648455E+02  0.11308142686E+03  0.24972578119E+03  0.12500000000E+03 0.  0.
         25    1    1    2    0    0  0.16789682739E+03  0.75902648455E+02  0.16688261370E+03  0.27825413464E+03  0.12500000000E+03 0.  0.
</event>
<event>
 4    0  0.2270578E-002  0.2121459E+03  0.7546771E-02  0.1139878E+00
         21   -1    0    0  502  501  0.00000000000E+00  0.00000000000E+00  0.27184827892E+03  0.27184827892E+03  0.00000000000E+00 0. -1.
         21   -1    0    0  501  502 -0.00000000000E+00 -0.00000000000E+00 -0.16555520374E+03  0.16555520374E+03  0.00000000000E+00 0. -1.
         25    1    1    2    0    0 -0.15363937627E+03 -0.74809335365E+02  0.39338501828E+02  0.21534626146E+03  0.12500000000E+03 0.  0.
         25    1    1    2    0    0  0.15363937627E+03  0.74809335365E+02  0.66954573348E+02  0.22205722121E+03  0.12500000000E+03 0.  0.
</event>
<event>
 4    0  0.2270578E-002  0.2401991E+03  0.7546771E-02  0.1119660E+00
         21   -1    0    0  502  501  0.00000000000E+00  0.00000000000E+00  0.22155431964E+03  0.22155431964E+03  0.00000000000E+00 0. -1.
         21   -1    0    0  501  502 -0.00000000000E+00 -0.00000000000E+00 -0.26041301859E+03  0.26041301859E+03  0.00000000000E+00 0. -1.
         25    1    1    2    0    0  0.15085230760E+03  0.11686932454E+03 -0.94879842255E+02  0.24706687798E+03  0.12500000000E+03 0.  0.
         25    1    1    2    0    0 -0.15085230760E+03 -0.11686932454E+03  0.56021143301E+02  0.23490046025E+03  0.12500000000E+03 0.  0.
</event>
<event>
 4    0  0.2270578E-002  0.3574079E+03  0.7546771E-02  0.1059615E+00
         21   -1    0    0  502  501  0.00000000000E+00  0.00000000000E+00  0.47854972888E+03  0.47854972888E+03  0.00000000000E+00 0.  1.
         21   -1    0    0  501  502 -0.00000000000E+00 -0.00000000000E+00 -0.26693234955E+03  0.26693234955E+03  0.00000000000E+00 0.  1.
         25    1    1    2    0    0  0.30410749823E+03 -0.83991475324E+02  0.22277860005E+03  0.40594487685E+03  0.12500000000E+03 0.  0.
         25    1    1    2    0    0 -0.30410749823E+03  0.83991475324E+02 -0.11161220723E+02  0.33953720158E+03  0.12500000000E+03 0.  0.
</event>
<event>
 4    0  0.2270578E-002  0.2688083E+03  0.7546771E-02  0.1101964E+00
         21   -1    0    0  502  501  0.00000000000E+00  0.00000000000E+00  0.25438284025E+03  0.25438284025E+03  0.00000000000E+00 0.  1.
         21   -1    0    0  501  502 -0.00000000000E+00 -0.00000000000E+00 -0.28405176507E+03  0.28405176507E+03  0.00000000000E+00 0.  1.
         25    1    1    2    0    0  0.26123687082E+02  0.22574454800E+03 -0.85580793509E+02  0.27311558029E+03  0.12500000000E+03 0.  0.
         25    1    1    2    0    0 -0.26123687082E+02 -0.22574454800E+03  0.55911868686E+02  0.26531902502E+03  0.12500000000E+03 0.  0.
</event>
<event>
 4    0  0.2270578E-002  0.2282729E+03  0.7546771E-02  0.1127861E+00
         21   -1    0    0  502  501  0.00000000000E+00  0.00000000000E+00  0.34611712822E+03  0.34611712822E+03  0.00000000000E+00 0. -1.
         21   -1    0    0  501  502 -0.00000000000E+00 -0.00000000000E+00 -0.15055170442E+03  0.15055170442E+03  0.00000000000E+00 0. -1.
         25    1    1    2    0    0  0.26011275114E+02  0.16744330845E+03  0.18903598329E+01  0.21057640285E+03  0.12500000000E+03 0.  0.
         25    1    1    2    0    0 -0.26011275114E+02 -0.16744330845E+03  0.19367506397E+03  0.28609242978E+03  0.12500000000E+03 0.  0.
</event>
<event>
 4    0  0.2270578E-002  0.2069002E+03  0.7546771E-02  0.1144044E+00
         21   -1    0    0  502  501  0.00000000000E+00  0.00000000000E+00  0.38189957459E+02  0.38189957459E+02  0.00000000000E+00 0. -1.
         21   -1    0    0  501  502 -0.00000000000E+00 -0.00000000000E+00 -0.11209145628E+04  0.11209145628E+04  0.00000000000E+00 0. -1.
         25    1    1    2    0    0 -0.13798079585E+03 -0.81471208458E+02 -0.65008119848E+03  0.68110705653E+03  0.12500000000E+03 0.  0.
         25    1    1    2    0    0  0.13798079585E+03  0.81471208458E+02 -0.43264340681E+03  0.47799746368E+03  0.12500000000E+03 0.  0.
</event>
<event>
 4    0  0.2270578E-002  0.2229535E+03  0.7546771E-02  0.1131700E+00
         21   -1    0    0  502  501  0.00000000000E+00  0.00000000000E+00  0.11418658199E+04  0.11418658199E+04  0.00000000000E+00 0. -1.
         21   -1    0    0  501  502 -0.00000000000E+00 -0.00000000000E+00 -0.43532471328E+02  0.43532471328E+02  0.00000000000E+00 0. -1.
         25    1    1    2    0    0 -0.55922315635E+02 -0.11484203679E+03  0.19481856861E+03  0.26437714250E+03  0.12500000000E+03 0.  0.
         25    1    1    2    0    0  0.55922315635E+02  0.11484203679E+03  0.90351478000E+03  0.92102114877E+03  0.12500000000E+03 0.  0.
</event>
<event>
 4    0  0.2270578E-002  0.2670859E+03  0.7546771E-02  0.1102959E+00
         21   -1    0    0  502  501  0.00000000000E+00  0.00000000000E+00  0.45501255434E+03  0.45501255434E+03  0.00000000000E+00 0. -1.
         21   -1    0    0  501  502 -0.00000000000E+00 -0.00000000000E+00 -0.15677566758E+03  0.15677566758E+03  0.00000000000E+00 0. -1.
         25    1    1    2    0    0 -0.98916570290E+02 -0.55972348206E+02 -0.87802772958E+02  0.19039884081E+03  0.12500000000E+03 0.  0.
         25    1    1    2    0    0  0.98916570290E+02  0.55972348206E+02  0.38603965972E+03  0.42138938112E+03  0.12500000000E+03 0.  0.
</event>
<event>
 4    0  0.2270578E-002  0.2362637E+03  0.7546771E-02  0.1122307E+00
         21   -1    0    0  502  501  0.00000000000E+00  0.00000000000E+00  0.23019444094E+03  0.23019444094E+03  0.00000000000E+00 0. -1.
         21   -1    0    0  501  502 -0.00000000000E+00 -0.00000000000E+00 -0.24249304243E+03  0.24249304243E+03  0.00000000000E+00 0. -1.
         25    1    1    2    0    0 -0.79389987042E+02  0.46335268414E+02  0.17208461414E+03  0.23170636928E+03  0.12500000000E+03 0.  0.
         25    1    1    2    0    0  0.79389987042E+02 -0.46335268414E+02 -0.18438321563E+03  0.24098111409E+03  0.12500000000E+03 0.  0.
</event>
<event>
 4    0  0.2270578E-002  0.2343190E+03  0.7546771E-02  0.1123636E+00
         21   -1    0    0  502  501  0.00000000000E+00  0.00000000000E+00  0.51086526817E+02  0.51086526817E+02  0.00000000000E+00 0. -1.
         21   -1    0    0  501  502 -0.00000000000E+00 -0.00000000000E+00 -0.10747525599E+04  0.10747525599E+04  0.00000000000E+00 0. -1.
         25    1    1    2    0    0 -0.54282104288E+02  0.18210493580E+03 -0.37653870562E+03  0.43990357048E+03  0.12500000000E+03 0.  0.
         25    1    1    2    0    0  0.54282104288E+02 -0.18210493580E+03 -0.64712732749E+03  0.68593551627E+03  0.12500000000E+03 0.  0.
</event>
<event>
 4    0  0.2270578E-002  0.1814476E+03  0.7546771E-02  0.1166409E+00
         21   -1    0    0  502  501  0.00000000000E+00  0.00000000000E+00  0.35669877681E+02  0.35669877681E+02  0.00000000000E+00 0. -1.
         21   -1    0    0  501  502 -0.00000000000E+00 -0.00000000000E+00 -0.92299776540E+03  0.92299776540E+03  0.00000000000E+00 0. -1.
         25    1    1    2    0    0 -0.82107065177E+02  0.10157745444E+03 -0.40285230584E+03  0.44155920296E+03  0.12500000000E+03 0.  0.
         25    1    1    2    0    0  0.82107065177E+02 -0.10157745444E+03 -0.48447558188E+03  0.51710844012E+03  0.12500000000E+03 0.  0.
</event>
<event>
 4    0  0.2270578E-002  0.2160431E+03  0.7546771E-02  0.1136868E+00
         21   -1    0    0  502  501  0.00000000000E+00  0.00000000000E+00  0.11520198192E+03  0.11520198192E+03  0.00000000000E+00 0. -1.
         21   -1    0    0  501  502 -0.00000000000E+00 -0.00000000000E+00 -0.40515472578E+03  0.40515472578E+03  0.00000000000E+00 0. -1.
         25    1    1    2    0    0  0.16874726721E+03  0.14800967430E+02 -0.20341751191E+03  0.29274287861E+03  0.12500000000E+03 0.  0.
         25    1    1    2    0    0 -0.16874726721E+03 -0.14800967430E+02 -0.86535231953E+02  0.22761382910E+03  0.12500000000E+03 0.  0.
</event>
<event>
 4    0  0.2270578E-002  0.1791716E+03  0.7546771E-02  0.1168607E+00
         21   -1    0    0  502  501  0.00000000000E+00  0.00000000000E+00  0.17859462672E+03  0.17859462672E+03  0.00000000000E+00 0.  1.
         21   -1    0    0  501  502 -0.00000000000E+00 -0.00000000000E+00 -0.17975041277E+03  0.17975041277E+03  0.00000000000E+00 0.  1.
         25    1    1    2    0    0  0.99617461290E+02 -0.27091248121E+02 -0.76866451129E+02  0.17941857660E+03  0.12500000000E+03 0.  0.
         25    1    1    2    0    0 -0.99617461290E+02  0.27091248121E+02  0.75710665081E+02  0.17892646290E+03  0.12500000000E+03 0.  0.
</event>
<event>
 4    0  0.2270578E-002  0.1578790E+03  0.7546771E-02  0.1191112E+00
         21   -1    0    0  502  501  0.00000000000E+00  0.00000000000E+00  0.77438567849E+02  0.77438567849E+02  0.00000000000E+00 0. -1.
         21   -1    0    0  501  502 -0.00000000000E+00 -0.00000000000E+00 -0.32187817563E+03  0.32187817563E+03  0.00000000000E+00 0. -1.
         25    1    1    2    0    0 -0.51888141206E+02 -0.70486759263E+02 -0.71005885148E+02  0.16830804543E+03  0.12500000000E+03 0.  0.
         25    1    1    2    0    0  0.51888141206E+02  0.70486759263E+02 -0.17343372263E+03  0.23100869805E+03  0.12500000000E+03 0.  0.
</event>
<event>
 4    0  0.2270578E-002  0.2125584E+03  0.7546771E-02  0.1139556E+00
         21   -1    0    0  502  501  0.00000000000E+00  0.00000000000E+00  0.16343894060E+03  0.16343894060E+03  0.00000000000E+00 0. -1.
         21   -1    0    0  501  502 -0.00000000000E+00 -0.00000000000E+00 -0.27644002244E+03  0.27644002244E+03  0.00000000000E+00 0. -1.
         25    1    1    2    0    0  0.70635896918E+02 -0.11768377670E+03  0.50618059444E+02  0.19242164425E+03  0.12500000000E+03 0.  0.
         25    1    1    2    0    0 -0.70635896918E+02  0.11768377670E+03 -0.16361914128E+03  0.24745731880E+03  0.12500000000E+03 0.  0.
</event>
<event>
 4    0  0.2270578E-002  0.2672373E+03  0.7546771E-02  0.1102871E+00
         21   -1    0    0  502  501  0.00000000000E+00  0.00000000000E+00  0.11549914248E+04  0.11549914248E+04  0.00000000000E+00 0. -1.
         21   -1    0    0  501  502 -0.00000000000E+00 -0.00000000000E+00 -0.61832292793E+02  0.61832292793E+02  0.00000000000E+00 0. -1.
         25    1    1    2    0    0  0.61574546047E+02  0.14110383795E+03  0.13874968172E+03  0.24202932050E+03  0.12500000000E+03 0.  0.
         25    1    1    2    0    0 -0.61574546047E+02 -0.14110383795E+03  0.95440945029E+03  0.97479439710E+03  0.12500000000E+03 0.  0.
</event>
<event>
 4    0  0.2270578E-002  0.1604671E+03  0.7546771E-02  0.1188170E+00
         21   -1    0    0  502  501  0.00000000000E+00  0.00000000000E+00  0.30027016967E+03  0.30027016967E+03  0.00000000000E+00 0. -1.
         21   -1    0    0  501  502 -0.00000000000E+00 -0.00000000000E+00 -0.85755050257E+02  0.85755050257E+02  0.00000000000E+00 0. -1.
         25    1    1    2    0    0  0.14759869901E+02 -0.31417699245E+02  0.22085702035E+03  0.25614009648E+03  0.12500000000E+03 0.  0.
         25    1    1    2    0    0 -0.14759869901E+02  0.31417699245E+02 -0.63419009411E+01  0.12988512345E+03  0.12500000000E+03 0.  0.
</event>
<event>
 4    0  0.2270578E-002  0.2928805E+03  0.7546771E-02  0.1088855E+00
         21   -1    0    0  502  501  0.00000000000E+00  0.00000000000E+00  0.26992765137E+03  0.26992765137E+03  0.00000000000E+00 0.  1.
         21   -1    0    0  501  502 -0.00000000000E+00 -0.00000000000E+00 -0.31778508673E+03  0.31778508673E+03  0.00000000000E+00 0.  1.
         25    1    1    2    0    0 -0.15452881227E+03  0.19752257082E+03  0.61558832823E+02  0.28689511969E+03  0.12500000000E+03 0.  0.
         25    1    1    2    0    0  0.15452881227E+03 -0.19752257082E+03 -0.10941626818E+03  0.30081761841E+03  0.12500000000E+03 0.  0.
</event>
<event>
 4    0  0.2270578E-002  0.2562787E+03  0.7546771E-02  0.1109400E+00
         21   -1    0    0  502  501  0.00000000000E+00  0.00000000000E+00  0.21165152489E+04  0.21165152489E+04  0.00000000000E+00 0.  1.
         21   -1    0    0  501  502 -0.00000000000E+00 -0.00000000000E+00 -0.31031562992E+02  0.31031562992E+02  0.00000000000E+00 0.  1.
         25    1    1    2    0    0 -0.18562695477E+03  0.12360458247E+03  0.96798858580E+03  0.10011804839E+04  0.12500000000E+03 0.  0.
         25    1    1    2    0    0  0.18562695477E+03 -0.12360458247E+03  0.11174951001E+04  0.11463663280E+04  0.12500000000E+03 0.  0.
</event>
<event>
 4    0  0.2270578E-002  0.2387918E+03  0.7546771E-02  0.1120600E+00
         21   -1    0    0  502  501  0.00000000000E+00  0.00000000000E+00  0.72712575088E+02  0.72712575088E+02  0.00000000000E+00 0. -1.
         21   -1    0    0  501  502 -0.00000000000E+00 -0.00000000000E+00 -0.78420458392E+03  0.78420458392E+03  0.00000000000E+00 0. -1.
         25    1    1    2    0    0 -0.74009257570E+01 -0.20311840999E+03 -0.33923548964E+03  0.41475002063E+03  0.12500000000E+03 0.  0.
         25    1    1    2    0    0  0.74009257570E+01  0.20311840999E+03 -0.37225651919E+03  0.44216713837E+03  0.12500000000E+03 0.  0.
</event>
<event>
 4    0  0.2270578E-002  0.2094845E+03  0.7546771E-02  0.1141975E+00
         21   -1    0    0  502  501  0.00000000000E+00  0.00000000000E+00  0.45567792920E+03  0.45567792920E+03  0.00000000000E+00 0.  1.
         21   -1    0    0  501  502 -0.00000000000E+00 -0.00000000000E+00 -0.96304294157E+02  0.96304294157E+02  0.00000000000E+00 0.  1.
         25    1    1    2    0    0  0.29919061624E+02 -0.13823183817E+03  0.59980718394E+02  0.19805523954E+03  0.12500000000E+03 0.  0.
         25    1    1    2    0    0 -0.29919061624E+02  0.13823183817E+03  0.29939291665E+03  0.35392698382E+03  0.12500000000E+03 0.  0.
</event>
<event>
 4    0  0.2270578E-002  0.2792472E+03  0.7546771E-02  0.1096101E+00
         21   -1    0    0  502  501  0.00000000000E+00  0.00000000000E+00  0.16613485434E+04  0.16613485434E+04  0.00000000000E+00 0. -1.
         21   -1    0    0  501  502 -0.00000000000E+00 -0.00000000000E+00 -0.46937172614E+02  0.46937172614E+02  0.00000000000E+00 0. -1.
         25    1    1    2    0    0  0.67917582653E+01 -0.24898151733E+03  0.75282561434E+03  0.80275110062E+03  0.12500000000E+03 0.  0.
         25    1    1    2    0    0 -0.67917582653E+01  0.24898151733E+03  0.86158575642E+03  0.90553461537E+03  0.12500000000E+03 0.  0.
</event>
<event>
 4    0  0.2270578E-002  0.2568212E+03  0.7546771E-02  0.1109068E+00
         21   -1    0    0  502  501  0.00000000000E+00  0.00000000000E+00  0.66900312078E+03  0.66900312078E+03  0.00000000000E+00 0. -1.
         21   -1    0    0  501  502 -0.00000000000E+00 -0.00000000000E+00 -0.98590203537E+02  0.98590203537E+02  0.00000000000E+00 0. -1.
         25    1    1    2    0    0 -0.15142603833E+03  0.16541753807E+03  0.27583245157E+03  0.37683066267E+03  0.12500000000E+03 0.  0.
         25    1    1    2    0    0  0.15142603833E+03 -0.16541753807E+03  0.29458046567E+03  0.39076266165E+03  0.12500000000E+03 0.  0.
</event>
<event>
 4    0  0.2270578E-002  0.2285662E+03  0.7546771E-02  0.1127653E+00
         21   -1    0    0  502  501  0.00000000000E+00  0.00000000000E+00  0.73540811733E+03  0.73540811733E+03  0.00000000000E+00 0. -1.
         21   -1    0    0  501  502 -0.00000000000E+00 -0.00000000000E+00 -0.71038779779E+02  0.71038779779E+02  0.00000000000E+00 0. -1.
         25    1    1    2    0    0 -0.15637598113E+03  0.77350163903E+02  0.19348890579E+03  0.28896271731E+03  0.12500000000E+03 0.  0.
         25    1    1    2    0    0  0.15637598113E+03 -0.77350163903E+02  0.47088043175E+03  0.51748417980E+03  0.12500000000E+03 0.  0.
</event>
<event>
 4    0  0.2270578E-002  0.2116751E+03  0.7546771E-02  0.1140246E+00
         21   -1    0    0  502  501  0.00000000000E+00  0.00000000000E+00  0.50651376531E+03  0.50651376531E+03  0.00000000000E+00 0.  1.
         21   -1    0    0  501  502 -0.00000000000E+00 -0.00000000000E+00 -0.88460246089E+02  0.88460246089E+02  0.00000000000E+00 0.  1.
         25    1    1    2    0    0 -0.20982413267E+02  0.14826320447E+03  0.32456945885E+03  0.37867211818E+03  0.12500000000E+03 0.  0.
         25    1    1    2    0    0  0.20982413267E+02 -0.14826320447E+03  0.93484060372E+02  0.21630189322E+03  0.12500000000E+03 0.  0.
</event>
<event>
 4    0  0.2270578E-002  0.1952107E+03  0.7546771E-02  0.1153844E+00
         21   -1    0    0  502  501  0.00000000000E+00  0.00000000000E+00  0.92336723361E+03  0.92336723361E+03  0.00000000000E+00 0.  1.
         21   -1    0    0  501  502 -0.00000000000E+00 -0.00000000000E+00 -0.41269848213E+02  0.41269848213E+02  0.00000000000E+00 0.  1.
         25    1    1    2    0    0  0.67885013429E+02  0.46100956366E+02  0.13098521710E+03  0.19878581520E+03  0.12500000000E+03 0.  0.
         25    1    1    2    0    0 -0.67885013429E+02 -0.46100956366E+02  0.75111216829E+03  0.76585126662E+03  0.12500000000E+03 0.  0.
</event>
<event>
 4    0  0.2270578E-002  0.2984771E+03  0.7546771E-02  0.1086004E+00
         21   -1    0    0  502  501  0.00000000000E+00  0.00000000000E+00  0.14297883446E+03  0.14297883446E+03  0.00000000000E+00 0. -1.
         21   -1    0    0  501  502 -0.00000000000E+00 -0.00000000000E+00 -0.62308929761E+03  0.62308929761E+03  0.00000000000E+00 0. -1.
         25    1    1    2    0    0 -0.14543930382E+03 -0.14689741905E+03 -0.15086183326E+02  0.24204139263E+03  0.12500000000E+03 0.  0.
         25    1    1    2    0    0  0.14543930382E+03  0.14689741905E+03 -0.46502427983E+03  0.52402673944E+03  0.12500000000E+03 0.  0.
</event>
<event>
 4    0  0.2270578E-002  0.4751373E+03  0.7546771E-02  0.1020480E+00
         21   -1    0    0  502  501  0.00000000000E+00  0.00000000000E+00  0.43374047586E+03  0.43374047586E+03  0.00000000000E+00 0. -1.
         21   -1    0    0  501  502 -0.00000000000E+00 -0.00000000000E+00 -0.52048504806E+03  0.52048504806E+03  0.00000000000E+00 0. -1.
         25    1    1    2    0    0 -0.39888819775E+02 -0.13599617428E+03 -0.48112557290E+03  0.51690704606E+03  0.12500000000E+03 0.  0.
         25    1    1    2    0    0  0.39888819775E+02  0.13599617428E+03  0.39438100070E+03  0.43731847786E+03  0.12500000000E+03 0.  0.
</event>
<event>
 4    0  0.2270578E-002  0.2814155E+03  0.7546771E-02  0.1094918E+00
         21   -1    0    0  502  501  0.00000000000E+00  0.00000000000E+00  0.15128964865E+04  0.15128964865E+04  0.00000000000E+00 0.  1.
         21   -1    0    0  501  502 -0.00000000000E+00 -0.00000000000E+00 -0.52346417077E+02  0.52346417077E+02  0.00000000000E+00 0.  1.
         25    1    1    2    0    0 -0.13556673375E+03  0.11401499813E+03  0.23130172960E+03  0.31702247431E+03  0.12500000000E+03 0.  0.
         25    1    1    2    0    0  0.13556673375E+03 -0.11401499813E+03  0.12292483398E+04  0.12482204293E+04  0.12500000000E+03 0.  0.
</event>
<event>
 4    0  0.2270578E-002  0.3645588E+03  0.7546771E-02  0.1056793E+00
         21   -1    0    0  502  501  0.00000000000E+00  0.00000000000E+00  0.33199710763E+03  0.33199710763E+03  0.00000000000E+00 0.  1.
         21   -1    0    0  501  502 -0.00000000000E+00 -0.00000000000E+00 -0.40031397826E+03  0.40031397826E+03  0.00000000000E+00 0.  1.
         25    1    1    2    0    0 -0.39278307388E+02 -0.11795540500E+03 -0.35465140915E+03  0.39605414404E+03  0.12500000000E+03 0.  0.
         25    1    1    2    0    0  0.39278307388E+02  0.11795540500E+03  0.28633453852E+03  0.33625694186E+03  0.12500000000E+03 0.  0.
</event>
<event>
 4    0  0.2270578E-002  0.2267218E+03  0.7546771E-02  0.1128969E+00
         21   -1    0    0  502  501  0.00000000000E+00  0.00000000000E+00  0.69663099086E+02  0.69663099086E+02  0.00000000000E+00 0. -1.
         21   -1    0    0  501  502 -0.00000000000E+00 -0.00000000000E+00 -0.73787693382E+03  0.73787693382E+03  0.00000000000E+00 0. -1.
         25    1    1    2    0    0  0.24077905279E+02  0.16721352087E+03 -0.48561667304E+03  0.52913954702E+03  0.12500000000E+03 0.  0.
         25    1    1    2    0    0 -0.24077905279E+02 -0.16721352087E+03 -0.18259716169E+03  0.27840048589E+03  0.12500000000E+03 0.  0.
</event>
<event>
 4    0  0.2270578E-002  0.1749964E+03  0.7546771E-02  0.1172735E+00
         21   -1    0    0  502  501  0.00000000000E+00  0.00000000000E+00  0.14677042118E+03  0.14677042118E+03  0.00000000000E+00 0.  1.
         21   -1    0    0  501  502 -0.00000000000E+00 -0.00000000000E+00 -0.20865050868E+03  0.20865050868E+03  0.00000000000E+00 0.  1.
         25    1    1    2    0    0 -0.46995823262E+02 -0.56345676408E+02  0.68638319907E+02  0.16037350658E+03  0.12500000000E+03 0.  0.
         25    1    1    2    0    0  0.46995823262E+02  0.56345676408E+02 -0.13051840741E+03  0.19504742327E+03  0.12500000000E+03 0.  0.
</event>
<event>
 4    0  0.2270578E-002  0.2339363E+03  0.7546771E-02  0.1123900E+00
         21   -1    0    0  502  501  0.00000000000E+00  0.00000000000E+00  0.95737384493E+03  0.95737384493E+03  0.00000000000E+00 0. -1.
         21   -1    0    0  501  502 -0.00000000000E+00 -0.00000000000E+00 -0.57162812961E+02  0.57162812961E+02  0.00000000000E+00 0. -1.
         25    1    1    2    0    0  0.57629294224E+02  0.76820836844E+02  0.82492342622E+03  0.83984893621E+03  0.12500000000E+03 0.  0.
         25    1    1    2    0    0 -0.57629294224E+02 -0.76820836844E+02  0.75287605747E+02  0.17468772168E+03  0.12500000000E+03 0.  0.
</event>
