<event>
 5    0  0.6507744E-005  0.3781183E+03  0.7546771E-02  0.1051631E+00
         21   -1    0    0  502  501  0.00000000000E+00  0.00000000000E+00  0.54897270259E+03  0.54897270259E+03  0.00000000000E+00 0. -1.
         21   -1    0    0  501  502 -0.00000000000E+00 -0.00000000000E+00 -0.26043811390E+03  0.26043811390E+03  0.00000000000E+00 0. -1.
         25    1    1    2    0    0 -0.66514194466E+02  0.25013066680E+02 -0.15254301400E+03  0.20962863041E+03  0.12500000000E+03 0.  0.
         25    1    1    2    0    0 -0.87369309002E+02 -0.45095547972E+02  0.34215605947E+03  0.37730991723E+03  0.12500000000E+03 0.  0.
         25    1    1    2    0    0  0.15388350347E+03  0.20082481292E+02  0.98921543217E+02  0.22247226885E+03  0.12500000000E+03 0.  0.
</event>
<event>
 5    0  0.5631475E-005  0.2862105E+03  0.7546771E-02  0.1092344E+00
         21   -1    0    0  502  501  0.00000000000E+00  0.00000000000E+00  0.21734989820E+04  0.21734989820E+04  0.00000000000E+00 0.  1.
         21   -1    0    0  501  502 -0.00000000000E+00 -0.00000000000E+00 -0.37688748391E+02  0.37688748391E+02  0.00000000000E+00 0.  1.
         25    1    1    2    0    0 -0.57303197075E+02 -0.65435326262E+02  0.21319552684E+03  0.26199765454E+03  0.12500000000E+03 0.  0.
         25    1    1    2    0    0 -0.41464398988E+02  0.66660965549E+02  0.64465006127E+03  0.66133326108E+03  0.12500000000E+03 0.  0.
         25    1    1    2    0    0  0.98767596063E+02 -0.12256392875E+01  0.12779646455E+04  0.12878568147E+04  0.12500000000E+03 0.  0.
</event>
<event>
 5    0  0.5631475E-005  0.5884034E+03  0.7546771E-02  0.9929762E-01
         21   -1    0    0  502  501  0.00000000000E+00  0.00000000000E+00  0.12117586724E+04  0.12117586724E+04  0.00000000000E+00 0.  1.
         21   -1    0    0  501  502 -0.00000000000E+00 -0.00000000000E+00 -0.28571576083E+03  0.28571576083E+03  0.00000000000E+00 0.  1.
         25    1    1    2    0    0 -0.27725773236E+03 -0.14066207991E+03  0.91333937417E+02  0.34731046486E+03  0.12500000000E+03 0.  0.
         25    1    1    2    0    0  0.42538231348E+03  0.29864737805E+03  0.63567433571E+03  0.83057042454E+03  0.12500000000E+03 0.  0.
         25    1    1    2    0    0 -0.14812458112E+03 -0.15798529814E+03  0.19903463844E+03  0.31959354383E+03  0.12500000000E+03 0.  0.
</event>
<event>
 5    0  0.5631475E-005  0.2150275E+03  0.7546771E-02  0.1137645E+00
         21   -1    0    0  502  501  0.00000000000E+00  0.00000000000E+00  0.38576429822E+03  0.38576429822E+03  0.00000000000E+00 0.  1.
         21   -1    0    0  501  502 -0.00000000000E+00 -0.00000000000E+00 -0.11985768795E+03  0.11985768795E+03  0.00000000000E+00 0.  1.
         25    1    1    2    0    0 -0.53920406328E+02  0.42667173267E+02  0.92127683866E+02  0.16982463905E+03  0.12500000000E+03 0.  0.
         25    1    1    2    0    0  0.41616137051E+02 -0.79297427484E+02  0.11676672320E+03  0.19307887641E+03  0.12500000000E+03 0.  0.
         25    1    1    2    0    0  0.12304269277E+02  0.36630254217E+02  0.57012203204E+02  0.14271847071E+03  0.12500000000E+03 0.  0.
</event>
<event>
 5    0  0.5631475E-005  0.4367875E+03  0.7546771E-02  0.1031737E+00
         21   -1    0    0  502  501  0.00000000000E+00  0.00000000000E+00  0.11376826660E+04  0.11376826660E+04  0.00000000000E+00 0. -1.
         21   -1    0    0  501  502 -0.00000000000E+00 -0.00000000000E+00 -0.16769470486E+03  0.16769470486E+03  0.00000000000E+00 0. -1.
         25    1    1    2    0    0  0.17068320426E+03  0.30519745052E+02  0.89526689399E+02  0.23174175103E+03  0.12500000000E+03 0.  0.
         25    1    1    2    0    0  0.27114810540E+02 -0.25331363331E+02 -0.29812199177E+02  0.13375596487E+03  0.12500000000E+03 0.  0.
         25    1    1    2    0    0 -0.19779801480E+03 -0.51883817211E+01  0.91027347096E+03  0.93987965501E+03  0.12500000000E+03 0.  0.
</event>
<event>
 5    0  0.5631475E-005  0.2461047E+03  0.7546771E-02  0.1115792E+00
         21   -1    0    0  502  501  0.00000000000E+00  0.00000000000E+00  0.29337874686E+03  0.29337874686E+03  0.00000000000E+00 0.  1.
         21   -1    0    0  501  502 -0.00000000000E+00 -0.00000000000E+00 -0.20644829664E+03  0.20644829664E+03  0.00000000000E+00 0.  1.
         25    1    1    2    0    0 -0.10495074831E+03 -0.24203619144E+02  0.99063757961E+02  0.19245545690E+03  0.12500000000E+03 0.  0.
         25    1    1    2    0    0  0.97752782807E+02  0.45681636311E+02  0.40243786089E+02  0.16996170381E+03  0.12500000000E+03 0.  0.
         25    1    1    2    0    0  0.71979655012E+01 -0.21478017167E+02 -0.52377093837E+02  0.13740988279E+03  0.12500000000E+03 0.  0.
</event>
<event>
 5    0  0.5631475E-005  0.2349481E+03  0.7546771E-02  0.1123205E+00
         21   -1    0    0  502  501  0.00000000000E+00  0.00000000000E+00  0.37620744556E+03  0.37620744556E+03  0.00000000000E+00 0.  1.
         21   -1    0    0  501  502 -0.00000000000E+00 -0.00000000000E+00 -0.14672921262E+03  0.14672921262E+03  0.00000000000E+00 0.  1.
         25    1    1    2    0    0 -0.99429433673E+02 -0.50768811730E+02  0.50721865799E+02  0.17510394683E+03  0.12500000000E+03 0.  0.
         25    1    1    2    0    0  0.56262127186E+02 -0.12590320718E+02  0.34023007035E+02  0.14179741937E+03  0.12500000000E+03 0.  0.
         25    1    1    2    0    0  0.43167306487E+02  0.63359132448E+02  0.14473336011E+03  0.20603529198E+03  0.12500000000E+03 0.  0.
</event>
<event>
 5    0  0.6067526E-005  0.4894781E+03  0.7546771E-02  0.1016562E+00
         21   -1    0    0  502  501  0.00000000000E+00  0.00000000000E+00  0.46434300983E+03  0.46434300983E+03  0.00000000000E+00 0. -1.
         21   -1    0    0  501  502 -0.00000000000E+00 -0.00000000000E+00 -0.51597381252E+03  0.51597381252E+03  0.00000000000E+00 0. -1.
         25    1    1    2    0    0 -0.26799030728E+03  0.14995419930E+02  0.20473428910E+03  0.35997888347E+03  0.12500000000E+03 0.  0.
         25    1    1    2    0    0  0.16813738511E+03 -0.20799246661E+03 -0.21742291353E+03  0.36664529148E+03  0.12500000000E+03 0.  0.
         25    1    1    2    0    0  0.99852922166E+02  0.19299704668E+03 -0.38942178267E+02  0.25369264739E+03  0.12500000000E+03 0.  0.
</event>
<event>
 5    0  0.5631475E-005  0.3602523E+03  0.7546771E-02  0.1058484E+00
         21   -1    0    0  502  501  0.00000000000E+00  0.00000000000E+00  0.11407122130E+04  0.11407122130E+04  0.00000000000E+00 0.  1.
         21   -1    0    0  501  502 -0.00000000000E+00 -0.00000000000E+00 -0.11377256603E+03  0.11377256603E+03  0.00000000000E+00 0.  1.
         25    1    1    2    0    0  0.25356589040E+03  0.28747178534E+02  0.68617723228E+03  0.74268853172E+03  0.12500000000E+03 0.  0.
         25    1    1    2    0    0 -0.70230274280E+02 -0.40585637473E+02  0.19749933991E+03  0.24740750729E+03  0.12500000000E+03 0.  0.
         25    1    1    2    0    0 -0.18333561612E+03  0.11838458939E+02  0.14326307474E+03  0.26438873999E+03  0.12500000000E+03 0.  0.
</event>
<event>
 5    0  0.5631475E-005  0.3962405E+03  0.7546771E-02  0.1045089E+00
         21   -1    0    0  502  501  0.00000000000E+00  0.00000000000E+00  0.36320832439E+03  0.36320832439E+03  0.00000000000E+00 0. -1.
         21   -1    0    0  501  502 -0.00000000000E+00 -0.00000000000E+00 -0.43227673366E+03  0.43227673366E+03  0.00000000000E+00 0. -1.
         25    1    1    2    0    0  0.14484327287E+03  0.11045042433E+03  0.16331433852E+03  0.27472794379E+03  0.12500000000E+03 0.  0.
         25    1    1    2    0    0 -0.89261581933E+02 -0.18774600402E+02 -0.30404875891E+03  0.34116090547E+03  0.12500000000E+03 0.  0.
         25    1    1    2    0    0 -0.55581690940E+02 -0.91675823927E+02  0.71666011118E+02  0.17959620879E+03  0.12500000000E+03 0.  0.
</event>
<event>
 5    0  0.6892998E-005  0.2722906E+03  0.7546771E-02  0.1099976E+00
         21   -1    0    0  502  501  0.00000000000E+00  0.00000000000E+00  0.35262362073E+03  0.35262362073E+03  0.00000000000E+00 0.  1.
         21   -1    0    0  501  502 -0.00000000000E+00 -0.00000000000E+00 -0.21025870779E+03  0.21025870779E+03  0.00000000000E+00 0.  1.
         25    1    1    2    0    0  0.10534126202E+03 -0.24383804016E+02  0.11971263447E+03  0.20407710855E+03  0.12500000000E+03 0.  0.
         25    1    1    2    0    0  0.43206287206E+02  0.36066201651E+02  0.76510875472E+02  0.15699193680E+03  0.12500000000E+03 0.  0.
         25    1    1    2    0    0 -0.14854754923E+03 -0.11682397636E+02 -0.53858596996E+02  0.20181328317E+03  0.12500000000E+03 0.  0.
</event>
<event>
 5    0  0.6149419E-005  0.4072307E+03  0.7546771E-02  0.1041304E+00
         21   -1    0    0  502  501  0.00000000000E+00  0.00000000000E+00  0.20142182199E+03  0.20142182199E+03  0.00000000000E+00 0. -1.
         21   -1    0    0  501  502 -0.00000000000E+00 -0.00000000000E+00 -0.82333121516E+03  0.82333121516E+03  0.00000000000E+00 0. -1.
         25    1    1    2    0    0 -0.13563105841E+03  0.15144923625E+03 -0.13594564089E+03  0.27466137778E+03  0.12500000000E+03 0.  0.
         25    1    1    2    0    0  0.29357451872E+03 -0.43849781246E+02 -0.18212716123E+03  0.37000554619E+03  0.12500000000E+03 0.  0.
         25    1    1    2    0    0 -0.15794346031E+03 -0.10759945501E+03 -0.30383659104E+03  0.38008611317E+03  0.12500000000E+03 0.  0.
</event>
<event>
 5    0  0.5631475E-005  0.3168951E+03  0.7546771E-02  0.1077087E+00
         21   -1    0    0  502  501  0.00000000000E+00  0.00000000000E+00  0.49524401131E+03  0.49524401131E+03  0.00000000000E+00 0. -1.
         21   -1    0    0  501  502 -0.00000000000E+00 -0.00000000000E+00 -0.20277372610E+03  0.20277372610E+03  0.00000000000E+00 0. -1.
         25    1    1    2    0    0 -0.47505949294E+02  0.40632799377E+02  0.20342923641E+03  0.24681226434E+03  0.12500000000E+03 0.  0.
         25    1    1    2    0    0 -0.14594677238E+03  0.17012999225E+02  0.92074304064E+02  0.21375822786E+03  0.12500000000E+03 0.  0.
         25    1    1    2    0    0  0.19345272167E+03 -0.57645798602E+02 -0.30332552622E+01  0.23744724521E+03  0.12500000000E+03 0.  0.
</event>
<event>
 5    0  0.5631475E-005  0.2798486E+03  0.7546771E-02  0.1095772E+00
         21   -1    0    0  502  501  0.00000000000E+00  0.00000000000E+00  0.10280489448E+03  0.10280489448E+03  0.00000000000E+00 0. -1.
         21   -1    0    0  501  502 -0.00000000000E+00 -0.00000000000E+00 -0.76178488061E+03  0.76178488061E+03  0.00000000000E+00 0. -1.
         25    1    1    2    0    0  0.12973319643E+03 -0.13681501327E+02 -0.10370493425E+03  0.20832090419E+03  0.12500000000E+03 0.  0.
         25    1    1    2    0    0 -0.74809877634E+02 -0.65178911196E+02 -0.14083126210E+03  0.21284560752E+03  0.12500000000E+03 0.  0.
         25    1    1    2    0    0 -0.54923318796E+02  0.78860412524E+02 -0.41444378978E+03  0.44342326337E+03  0.12500000000E+03 0.  0.
</event>
<event>
 5    0  0.5631475E-005  0.2807809E+03  0.7546771E-02  0.1095263E+00
         21   -1    0    0  502  501  0.00000000000E+00  0.00000000000E+00  0.11368220268E+03  0.11368220268E+03  0.00000000000E+00 0. -1.
         21   -1    0    0  501  502 -0.00000000000E+00 -0.00000000000E+00 -0.69349408513E+03  0.69349408513E+03  0.00000000000E+00 0. -1.
         25    1    1    2    0    0  0.90742480279E+02  0.25789409299E+02 -0.91957974376E+02  0.18160550765E+03  0.12500000000E+03 0.  0.
         25    1    1    2    0    0 -0.58868516281E+02 -0.77577995636E+02 -0.49966568277E+02  0.16614904622E+03  0.12500000000E+03 0.  0.
         25    1    1    2    0    0 -0.31873963999E+02  0.51788586337E+02 -0.43788733980E+03  0.45942173393E+03  0.12500000000E+03 0.  0.
</event>
<event>
 5    0  0.5631475E-005  0.2958932E+03  0.7546771E-02  0.1087312E+00
         21   -1    0    0  502  501  0.00000000000E+00  0.00000000000E+00  0.12365104825E+04  0.12365104825E+04  0.00000000000E+00 0.  1.
         21   -1    0    0  501  502 -0.00000000000E+00 -0.00000000000E+00 -0.70806344446E+02  0.70806344446E+02  0.00000000000E+00 0.  1.
         25    1    1    2    0    0  0.63274575347E+02 -0.39575053232E+02  0.57820209123E+03  0.59624870233E+03  0.12500000000E+03 0.  0.
         25    1    1    2    0    0 -0.12823115510E+03  0.60371421515E+02  0.12361501061E+03  0.22581764440E+03  0.12500000000E+03 0.  0.
         25    1    1    2    0    0  0.64956579750E+02 -0.20796368283E+02  0.46388703620E+03  0.48525048020E+03  0.12500000000E+03 0.  0.
</event>
<event>
 5    0  0.5631475E-005  0.2276142E+03  0.7546771E-02  0.1128330E+00
         21   -1    0    0  502  501  0.00000000000E+00  0.00000000000E+00  0.14559598632E+03  0.14559598632E+03  0.00000000000E+00 0.  1.
         21   -1    0    0  501  502 -0.00000000000E+00 -0.00000000000E+00 -0.35583558787E+03  0.35583558787E+03  0.00000000000E+00 0.  1.
         25    1    1    2    0    0 -0.23885731782E+02  0.25417467317E+02 -0.55170997916E+02  0.14101565459E+03  0.12500000000E+03 0.  0.
         25    1    1    2    0    0 -0.12748760061E+02  0.35051782649E+02 -0.17193576946E+03  0.21581952453E+03  0.12500000000E+03 0.  0.
         25    1    1    2    0    0  0.36634491843E+02 -0.60469249965E+02  0.16867165821E+02  0.14459639507E+03  0.12500000000E+03 0.  0.
</event>
<event>
 5    0  0.5631475E-005  0.2527717E+03  0.7546771E-02  0.1111566E+00
         21   -1    0    0  502  501  0.00000000000E+00  0.00000000000E+00  0.26187163665E+03  0.26187163665E+03  0.00000000000E+00 0.  1.
         21   -1    0    0  501  502 -0.00000000000E+00 -0.00000000000E+00 -0.24398792200E+03  0.24398792200E+03  0.00000000000E+00 0.  1.
         25    1    1    2    0    0 -0.12460706934E+02 -0.13108509009E+03 -0.59936048148E+02  0.19119597258E+03  0.12500000000E+03 0.  0.
         25    1    1    2    0    0  0.20869327043E+02  0.23747675227E+02  0.76019753276E+02  0.14967793350E+03  0.12500000000E+03 0.  0.
         25    1    1    2    0    0 -0.84086201089E+01  0.10733741486E+03  0.18000095222E+01  0.16498565258E+03  0.12500000000E+03 0.  0.
</event>
<event>
 5    0  0.5631475E-005  0.2682902E+03  0.7546771E-02  0.1102262E+00
         21   -1    0    0  502  501  0.00000000000E+00  0.00000000000E+00  0.22601271988E+03  0.22601271988E+03  0.00000000000E+00 0.  1.
         21   -1    0    0  501  502 -0.00000000000E+00 -0.00000000000E+00 -0.31847600122E+03  0.31847600122E+03  0.00000000000E+00 0.  1.
         25    1    1    2    0    0 -0.34575051443E+02  0.31149978730E+02 -0.54692165006E+02  0.14415959306E+03  0.12500000000E+03 0.  0.
         25    1    1    2    0    0  0.19126500531E+02 -0.12807025088E+03  0.85445892274E+02  0.19923306123E+03  0.12500000000E+03 0.  0.
         25    1    1    2    0    0  0.15448550912E+02  0.96920272147E+02 -0.12321700860E+03  0.20109606681E+03  0.12500000000E+03 0.  0.
</event>
<event>
 5    0  0.5631475E-005  0.3013741E+03  0.7546771E-02  0.1084556E+00
         21   -1    0    0  502  501  0.00000000000E+00  0.00000000000E+00  0.37949642303E+02  0.37949642303E+02  0.00000000000E+00 0. -1.
         21   -1    0    0  501  502 -0.00000000000E+00 -0.00000000000E+00 -0.23933392189E+04  0.23933392189E+04  0.00000000000E+00 0. -1.
         25    1    1    2    0    0 -0.93443506062E+02  0.99768372141E+02 -0.14998524166E+04  0.15112470640E+04  0.12500000000E+03 0.  0.
         25    1    1    2    0    0  0.17477958653E+02 -0.29539593534E+01 -0.16606854240E+03  0.20860960114E+03  0.12500000000E+03 0.  0.
         25    1    1    2    0    0  0.75965547410E+02 -0.96814412788E+02 -0.68946861756E+03  0.71143219601E+03  0.12500000000E+03 0.  0.
</event>
<event>
 5    0  0.5631475E-005  0.4155149E+03  0.7546771E-02  0.1038536E+00
         21   -1    0    0  502  501  0.00000000000E+00  0.00000000000E+00  0.27290971734E+03  0.27290971734E+03  0.00000000000E+00 0.  1.
         21   -1    0    0  501  502 -0.00000000000E+00 -0.00000000000E+00 -0.63263632627E+03  0.63263632627E+03  0.00000000000E+00 0.  1.
         25    1    1    2    0    0 -0.66722032158E+02 -0.30947134197E+02  0.57131635659E+01  0.14514542682E+03  0.12500000000E+03 0.  0.
         25    1    1    2    0    0  0.21143623886E+03  0.14297368590E+03 -0.44237588516E+03  0.52580241701E+03  0.12500000000E+03 0.  0.
         25    1    1    2    0    0 -0.14471420670E+03 -0.11202655170E+03  0.76936112666E+02  0.23459819978E+03  0.12500000000E+03 0.  0.
</event>
<event>
 5    0  0.5653871E-005  0.2752914E+03  0.7546771E-02  0.1098289E+00
         21   -1    0    0  502  501  0.00000000000E+00  0.00000000000E+00  0.94469965840E+02  0.94469965840E+02  0.00000000000E+00 0.  1.
         21   -1    0    0  501  502 -0.00000000000E+00 -0.00000000000E+00 -0.80221640096E+03  0.80221640096E+03  0.00000000000E+00 0.  1.
         25    1    1    2    0    0  0.31884799005E+02 -0.12023322755E+03 -0.56097395411E+02  0.18505293077E+03  0.12500000000E+03 0.  0.
         25    1    1    2    0    0  0.49708732366E+01  0.44357513194E+02 -0.25917078311E+03  0.29118171882E+03  0.12500000000E+03 0.  0.
         25    1    1    2    0    0 -0.36855672241E+02  0.75875714352E+02 -0.39247825660E+03  0.42045171721E+03  0.12500000000E+03 0.  0.
</event>
<event>
 5    0  0.5631475E-005  0.2797605E+03  0.7546771E-02  0.1095820E+00
         21   -1    0    0  502  501  0.00000000000E+00  0.00000000000E+00  0.40537045412E+03  0.40537045412E+03  0.00000000000E+00 0. -1.
         21   -1    0    0  501  502 -0.00000000000E+00 -0.00000000000E+00 -0.19307256346E+03  0.19307256346E+03  0.00000000000E+00 0. -1.
         25    1    1    2    0    0  0.67549655917E+02 -0.74217259052E+02  0.48177968502E+02  0.16738361391E+03  0.12500000000E+03 0.  0.
         25    1    1    2    0    0 -0.16051110070E+03  0.11905679152E+03  0.11036108281E+03  0.26027466579E+03  0.12500000000E+03 0.  0.
         25    1    1    2    0    0  0.92961444780E+02 -0.44839532465E+02  0.53758839347E+02  0.17078473789E+03  0.12500000000E+03 0.  0.
</event>
<event>
 5    0  0.5631475E-005  0.4283388E+03  0.7546771E-02  0.1034386E+00
         21   -1    0    0  502  501  0.00000000000E+00  0.00000000000E+00  0.63957120876E+03  0.63957120876E+03  0.00000000000E+00 0.  1.
         21   -1    0    0  501  502 -0.00000000000E+00 -0.00000000000E+00 -0.28687050000E+03  0.28687050000E+03  0.00000000000E+00 0.  1.
         25    1    1    2    0    0  0.26152533469E+03  0.46789512590E+01  0.16887537564E+03  0.33550154361E+03  0.12500000000E+03 0.  0.
         25    1    1    2    0    0  0.10100098613E+03 -0.46749144498E+02  0.10384043381E+03  0.19696323871E+03  0.12500000000E+03 0.  0.
         25    1    1    2    0    0 -0.36252632082E+03  0.42070193239E+02  0.79984899318E+02  0.39397692644E+03  0.12500000000E+03 0.  0.
</event>
<event>
 5    0  0.5631475E-005  0.3128421E+03  0.7546771E-02  0.1078992E+00
         21   -1    0    0  502  501  0.00000000000E+00  0.00000000000E+00  0.41169443560E+03  0.41169443560E+03  0.00000000000E+00 0. -1.
         21   -1    0    0  501  502 -0.00000000000E+00 -0.00000000000E+00 -0.23772535228E+03  0.23772535228E+03  0.00000000000E+00 0. -1.
         25    1    1    2    0    0  0.14939965458E+03  0.59120193410E+02  0.19236175765E+03  0.28007766756E+03  0.12500000000E+03 0.  0.
         25    1    1    2    0    0 -0.24138183322E+02 -0.18265210633E+01 -0.10417439721E+03  0.16450924931E+03  0.12500000000E+03 0.  0.
         25    1    1    2    0    0 -0.12526147125E+03 -0.57293672347E+02  0.85781722880E+02  0.20483287102E+03  0.12500000000E+03 0.  0.
</event>
<event>
 5    0  0.5631475E-005  0.3964832E+03  0.7546771E-02  0.1045004E+00
         21   -1    0    0  502  501  0.00000000000E+00  0.00000000000E+00  0.38811683241E+03  0.38811683241E+03  0.00000000000E+00 0. -1.
         21   -1    0    0  501  502 -0.00000000000E+00 -0.00000000000E+00 -0.40502985876E+03  0.40502985876E+03  0.00000000000E+00 0. -1.
         25    1    1    2    0    0 -0.10978740643E+03  0.75156756671E+02 -0.56810500063E+02  0.19119164626E+03  0.12500000000E+03 0.  0.
         25    1    1    2    0    0 -0.14776795319E+03 -0.19605274227E+03 -0.46526684428E+02  0.27939537954E+03  0.12500000000E+03 0.  0.
         25    1    1    2    0    0  0.25755535962E+03  0.12089598560E+03  0.86424158143E+02  0.32255966536E+03  0.12500000000E+03 0.  0.
</event>
<event>
 5    0  0.5631475E-005  0.3317139E+03  0.7546771E-02  0.1070381E+00
         21   -1    0    0  502  501  0.00000000000E+00  0.00000000000E+00  0.61908792941E+03  0.61908792941E+03  0.00000000000E+00 0. -1.
         21   -1    0    0  501  502 -0.00000000000E+00 -0.00000000000E+00 -0.17773587789E+03  0.17773587789E+03  0.00000000000E+00 0. -1.
         25    1    1    2    0    0  0.94734590841E+01 -0.84286022899E+02  0.19894884111E+03  0.24979896209E+03  0.12500000000E+03 0.  0.
         25    1    1    2    0    0  0.46474313588E+02 -0.15469251226E+03  0.16022474289E+03  0.25958929756E+03  0.12500000000E+03 0.  0.
         25    1    1    2    0    0 -0.55947772672E+02  0.23897853515E+03  0.82178467508E+02  0.28743554765E+03  0.12500000000E+03 0.  0.
</event>
<event>
 5    0  0.5631475E-005  0.4323777E+03  0.7546771E-02  0.1033111E+00
         21   -1    0    0  502  501  0.00000000000E+00  0.00000000000E+00  0.38606464756E+03  0.38606464756E+03  0.00000000000E+00 0.  1.
         21   -1    0    0  501  502 -0.00000000000E+00 -0.00000000000E+00 -0.48424652058E+03  0.48424652058E+03  0.00000000000E+00 0.  1.
         25    1    1    2    0    0  0.17919394233E+03 -0.23883854317E+03 -0.20285487415E+03  0.38200709239E+03  0.12500000000E+03 0.  0.
         25    1    1    2    0    0 -0.20440283809E+03  0.70748290079E+02  0.11923394217E+03  0.27681685956E+03  0.12500000000E+03 0.  0.
         25    1    1    2    0    0  0.25208895764E+02  0.16809025309E+03 -0.14560941041E+02  0.21148721619E+03  0.12500000000E+03 0.  0.
</event>
<event>
 5    0  0.5631475E-005  0.2487488E+03  0.7546771E-02  0.1114098E+00
         21   -1    0    0  502  501  0.00000000000E+00  0.00000000000E+00  0.11086384033E+03  0.11086384033E+03  0.00000000000E+00 0.  1.
         21   -1    0    0  501  502 -0.00000000000E+00 -0.00000000000E+00 -0.55812559867E+03  0.55812559867E+03  0.00000000000E+00 0.  1.
         25    1    1    2    0    0  0.50148161031E+02  0.60339145276E+02 -0.14902343814E+03  0.20973467911E+03  0.12500000000E+03 0.  0.
         25    1    1    2    0    0 -0.10246468900E+03  0.17273378032E+02 -0.24548895252E+03  0.29442691435E+03  0.12500000000E+03 0.  0.
         25    1    1    2    0    0  0.52316527972E+02 -0.77612523308E+02 -0.52749367681E+02  0.16482784554E+03  0.12500000000E+03 0.  0.
</event>
<event>
 5    0  0.5631475E-005  0.2604512E+03  0.7546771E-02  0.1106872E+00
         21   -1    0    0  502  501  0.00000000000E+00  0.00000000000E+00  0.27927363204E+04  0.27927363204E+04  0.00000000000E+00 0. -1.
         21   -1    0    0  501  502 -0.00000000000E+00 -0.00000000000E+00 -0.24289736407E+02  0.24289736407E+02  0.00000000000E+00 0. -1.
         25    1    1    2    0    0  0.11028053656E+03  0.42711597163E+02  0.14574745104E+04  0.14675977057E+04  0.12500000000E+03 0.  0.
         25    1    1    2    0    0 -0.69078690032E+02 -0.70756323566E+02  0.43703366662E+03  0.46519001333E+03  0.12500000000E+03 0.  0.
         25    1    1    2    0    0 -0.41201846527E+02  0.28044726404E+02  0.87393840699E+03  0.88423833780E+03  0.12500000000E+03 0.  0.
</event>
<event>
 5    0  0.5631475E-005  0.2171299E+03  0.7546771E-02  0.1136041E+00
         21   -1    0    0  502  501  0.00000000000E+00  0.00000000000E+00  0.74388782855E+03  0.74388782855E+03  0.00000000000E+00 0.  1.
         21   -1    0    0  501  502 -0.00000000000E+00 -0.00000000000E+00 -0.63377038669E+02  0.63377038669E+02  0.00000000000E+00 0.  1.
         25    1    1    2    0    0 -0.17825900845E+02 -0.59624366348E+02  0.30584369216E+03  0.33621152841E+03  0.12500000000E+03 0.  0.
         25    1    1    2    0    0  0.50710811282E+02  0.67614926404E+02  0.24538779118E+03  0.28806862501E+03  0.12500000000E+03 0.  0.
         25    1    1    2    0    0 -0.32884910437E+02 -0.79905600561E+01  0.12927930654E+03  0.18298471380E+03  0.12500000000E+03 0.  0.
</event>
<event>
 5    0  0.5858283E-005  0.2942621E+03  0.7546771E-02  0.1088145E+00
         21   -1    0    0  502  501  0.00000000000E+00  0.00000000000E+00  0.54357484711E+03  0.54357484711E+03  0.00000000000E+00 0.  1.
         21   -1    0    0  501  502 -0.00000000000E+00 -0.00000000000E+00 -0.15929767953E+03  0.15929767953E+03  0.00000000000E+00 0.  1.
         25    1    1    2    0    0 -0.11253233290E+03 -0.57617853172E+02  0.15573053886E+03  0.23634792931E+03  0.12500000000E+03 0.  0.
         25    1    1    2    0    0 -0.91002889278E+02  0.20481636399E+01  0.13078567208E+03  0.20252311684E+03  0.12500000000E+03 0.  0.
         25    1    1    2    0    0  0.20353522218E+03  0.55569689532E+02  0.97760956633E+02  0.26400148050E+03  0.12500000000E+03 0.  0.
</event>
<event>
 5    0  0.5631475E-005  0.2524000E+03  0.7546771E-02  0.1111797E+00
         21   -1    0    0  502  501  0.00000000000E+00  0.00000000000E+00  0.12693913822E+03  0.12693913822E+03  0.00000000000E+00 0. -1.
         21   -1    0    0  501  502 -0.00000000000E+00 -0.00000000000E+00 -0.50186072324E+03  0.50186072324E+03  0.00000000000E+00 0. -1.
         25    1    1    2    0    0  0.82879134739E+01 -0.57254621040E+02 -0.15803269144E+01  0.13774715450E+03  0.12500000000E+03 0.  0.
         25    1    1    2    0    0  0.40559929852E+02 -0.52374568437E+02 -0.20791328177E+03  0.25147790373E+03  0.12500000000E+03 0.  0.
         25    1    1    2    0    0 -0.48847843326E+02  0.10962918948E+03 -0.16542797634E+03  0.23957480322E+03  0.12500000000E+03 0.  0.
</event>
<event>
 5    0  0.5631475E-005  0.2787635E+03  0.7546771E-02  0.1096366E+00
         21   -1    0    0  502  501  0.00000000000E+00  0.00000000000E+00  0.66662719053E+02  0.66662719053E+02  0.00000000000E+00 0.  1.
         21   -1    0    0  501  502 -0.00000000000E+00 -0.00000000000E+00 -0.11657055168E+04  0.11657055168E+04  0.00000000000E+00 0.  1.
         25    1    1    2    0    0 -0.15624572731E+03 -0.31560763187E+01 -0.46276167470E+03  0.50417859503E+03  0.12500000000E+03 0.  0.
         25    1    1    2    0    0 -0.30019385676E+02 -0.12054577330E+02 -0.24318258141E+03  0.27533478577E+03  0.12500000000E+03 0.  0.
         25    1    1    2    0    0  0.18626511299E+03  0.15210653648E+02 -0.39309854159E+03  0.45285485500E+03  0.12500000000E+03 0.  0.
</event>
<event>
 5    0  0.5631475E-005  0.6112871E+03  0.7546771E-02  0.9882262E-01
         21   -1    0    0  502  501  0.00000000000E+00  0.00000000000E+00  0.18668271387E+04  0.18668271387E+04  0.00000000000E+00 0. -1.
         21   -1    0    0  501  502 -0.00000000000E+00 -0.00000000000E+00 -0.20016420420E+03  0.20016420420E+03  0.00000000000E+00 0. -1.
         25    1    1    2    0    0 -0.89883852207E+01 -0.71960155535E+02 -0.17710787420E+02  0.14559439222E+03  0.12500000000E+03 0.  0.
         25    1    1    2    0    0  0.25385897565E+03 -0.19171527972E+03  0.21579549552E+03  0.40421754525E+03  0.12500000000E+03 0.  0.
         25    1    1    2    0    0 -0.24487059043E+03  0.26367543526E+03  0.14685782264E+04  0.15171794054E+04  0.12500000000E+03 0.  0.
</event>
<event>
 5    0  0.5631475E-005  0.2965870E+03  0.7546771E-02  0.1086959E+00
         21   -1    0    0  502  501  0.00000000000E+00  0.00000000000E+00  0.23119147149E+03  0.23119147149E+03  0.00000000000E+00 0.  1.
         21   -1    0    0  501  502 -0.00000000000E+00 -0.00000000000E+00 -0.38048042628E+03  0.38048042628E+03  0.00000000000E+00 0.  1.
         25    1    1    2    0    0 -0.81964849298E+02 -0.56586950649E+02 -0.55166873107E+02  0.16908194283E+03  0.12500000000E+03 0.  0.
         25    1    1    2    0    0  0.17007620650E+03  0.13811618527E+03 -0.94264512089E+02  0.26928199882E+03  0.12500000000E+03 0.  0.
         25    1    1    2    0    0 -0.88111357203E+02 -0.81529234619E+02  0.14243039753E+00  0.17330795611E+03  0.12500000000E+03 0.  0.
</event>
<event>
 5    0  0.5631475E-005  0.3702896E+03  0.7546771E-02  0.1054582E+00
         21   -1    0    0  502  501  0.00000000000E+00  0.00000000000E+00  0.16158325173E+04  0.16158325173E+04  0.00000000000E+00 0.  1.
         21   -1    0    0  501  502 -0.00000000000E+00 -0.00000000000E+00 -0.84856825448E+02  0.84856825448E+02  0.00000000000E+00 0.  1.
         25    1    1    2    0    0  0.78001579505E+02 -0.53766891763E+02  0.26754727689E+03  0.31013169852E+03  0.12500000000E+03 0.  0.
         25    1    1    2    0    0  0.14704691947E+03 -0.14155689887E+03  0.37180270190E+03  0.44218028143E+03  0.12500000000E+03 0.  0.
         25    1    1    2    0    0 -0.22504849897E+03  0.19532379063E+03  0.89162571305E+03  0.94837736279E+03  0.12500000000E+03 0.  0.
</event>
<event>
 5    0  0.5631475E-005  0.4769733E+03  0.7546771E-02  0.1019970E+00
         21   -1    0    0  502  501  0.00000000000E+00  0.00000000000E+00  0.76577636608E+03  0.76577636608E+03  0.00000000000E+00 0.  1.
         21   -1    0    0  501  502 -0.00000000000E+00 -0.00000000000E+00 -0.29708866915E+03  0.29708866915E+03  0.00000000000E+00 0.  1.
         25    1    1    2    0    0  0.33767567164E+02 -0.12134685353E+03  0.37060758422E+03  0.41090179962E+03  0.12500000000E+03 0.  0.
         25    1    1    2    0    0  0.83652774018E+02  0.33656683513E+03  0.41087557060E+02  0.37092884554E+03  0.12500000000E+03 0.  0.
         25    1    1    2    0    0 -0.11742034118E+03 -0.21521998160E+03  0.56992555654E+02  0.28103439007E+03  0.12500000000E+03 0.  0.
</event>
<event>
 5    0  0.5631475E-005  0.2453847E+03  0.7546771E-02  0.1116257E+00
         21   -1    0    0  502  501  0.00000000000E+00  0.00000000000E+00  0.56421030813E+02  0.56421030813E+02  0.00000000000E+00 0.  1.
         21   -1    0    0  501  502 -0.00000000000E+00 -0.00000000000E+00 -0.10672199367E+04  0.10672199367E+04  0.00000000000E+00 0.  1.
         25    1    1    2    0    0  0.35193397627E+02 -0.58569248205E+02 -0.97116904204E+02  0.17241120948E+03  0.12500000000E+03 0.  0.
         25    1    1    2    0    0 -0.32374827645E+02  0.21891432330E+02 -0.38251940639E+03  0.40431851373E+03  0.12500000000E+03 0.  0.
         25    1    1    2    0    0 -0.28185699817E+01  0.36677815875E+02 -0.53116259524E+03  0.54691124426E+03  0.12500000000E+03 0.  0.
</event>
<event>
 5    0  0.6206173E-005  0.2799887E+03  0.7546771E-02  0.1095695E+00
         21   -1    0    0  502  501  0.00000000000E+00  0.00000000000E+00  0.67702842217E+02  0.67702842217E+02  0.00000000000E+00 0.  1.
         21   -1    0    0  501  502 -0.00000000000E+00 -0.00000000000E+00 -0.11579077593E+04  0.11579077593E+04  0.00000000000E+00 0.  1.
         25    1    1    2    0    0  0.83966568923E+02 -0.35013828695E+02 -0.28691584054E+03  0.32591724785E+03  0.12500000000E+03 0.  0.
         25    1    1    2    0    0  0.80641890359E+02  0.10219173331E+03 -0.28068238298E+03  0.33369726542E+03  0.12500000000E+03 0.  0.
         25    1    1    2    0    0 -0.16460845928E+03 -0.67177904620E+02 -0.52260669354E+03  0.56599608821E+03  0.12500000000E+03 0.  0.
</event>
<event>
 5    0  0.6363133E-005  0.2763179E+03  0.7546771E-02  0.1097717E+00
         21   -1    0    0  502  501  0.00000000000E+00  0.00000000000E+00  0.42407820397E+03  0.42407820397E+03  0.00000000000E+00 0. -1.
         21   -1    0    0  501  502 -0.00000000000E+00 -0.00000000000E+00 -0.18004128123E+03  0.18004128123E+03  0.00000000000E+00 0. -1.
         25    1    1    2    0    0 -0.89759521187E+02  0.10315941001E+03 -0.36350546604E+02  0.18879882880E+03  0.12500000000E+03 0.  0.
         25    1    1    2    0    0  0.10263088162E+03 -0.57704735776E+02  0.14060943769E+03  0.22194357022E+03  0.12500000000E+03 0.  0.
         25    1    1    2    0    0 -0.12871360433E+02 -0.45454674234E+02  0.13977803165E+03  0.19337708618E+03  0.12500000000E+03 0.  0.
</event>
<event>
 5    0  0.5631475E-005  0.2266575E+03  0.7546771E-02  0.1129015E+00
         21   -1    0    0  502  501  0.00000000000E+00  0.00000000000E+00  0.20335856421E+03  0.20335856421E+03  0.00000000000E+00 0. -1.
         21   -1    0    0  501  502 -0.00000000000E+00 -0.00000000000E+00 -0.25262588471E+03  0.25262588471E+03  0.00000000000E+00 0. -1.
         25    1    1    2    0    0 -0.46360206010E+02  0.51562375630E+02 -0.47008697489E+02  0.15047513057E+03  0.12500000000E+03 0.  0.
         25    1    1    2    0    0 -0.26345952412E+01  0.50596179461E+02  0.15976119091E+02  0.13582028880E+03  0.12500000000E+03 0.  0.
         25    1    1    2    0    0  0.48994801251E+02 -0.10215855509E+03 -0.18234742097E+02  0.16968902954E+03  0.12500000000E+03 0.  0.
</event>
<event>
 5    0  0.5631475E-005  0.2290997E+03  0.7546771E-02  0.1127275E+00
         21   -1    0    0  502  501  0.00000000000E+00  0.00000000000E+00  0.45082692508E+02  0.45082692508E+02  0.00000000000E+00 0. -1.
         21   -1    0    0  501  502 -0.00000000000E+00 -0.00000000000E+00 -0.11642310719E+04  0.11642310719E+04  0.00000000000E+00 0. -1.
         25    1    1    2    0    0 -0.38680277277E+02 -0.46513942594E+02 -0.24778052924E+03  0.28404207677E+03  0.12500000000E+03 0.  0.
         25    1    1    2    0    0  0.28558555044E+01  0.24933431240E+02 -0.17487786182E+03  0.21641880338E+03  0.12500000000E+03 0.  0.
         25    1    1    2    0    0  0.35824421773E+02  0.21580511354E+02 -0.69648998835E+03  0.70885288427E+03  0.12500000000E+03 0.  0.
</event>
<event>
 5    0  0.5631475E-005  0.2553586E+03  0.7546771E-02  0.1109964E+00
         21   -1    0    0  502  501  0.00000000000E+00  0.00000000000E+00  0.92960650225E+03  0.92960650225E+03  0.00000000000E+00 0. -1.
         21   -1    0    0  501  502 -0.00000000000E+00 -0.00000000000E+00 -0.70145841857E+02  0.70145841857E+02  0.00000000000E+00 0. -1.
         25    1    1    2    0    0 -0.27745625675E+01  0.11331486941E+03  0.54655260404E+03  0.57200761080E+03  0.12500000000E+03 0.  0.
         25    1    1    2    0    0 -0.40661116541E+02 -0.84305071948E+02  0.16605497825E+03  0.22794720300E+03  0.12500000000E+03 0.  0.
         25    1    1    2    0    0  0.43435679109E+02 -0.29009797465E+02  0.14685307810E+03  0.19979753031E+03  0.12500000000E+03 0.  0.
</event>
<event>
 5    0  0.5631475E-005  0.2390636E+03  0.7546771E-02  0.1120418E+00
         21   -1    0    0  502  501  0.00000000000E+00  0.00000000000E+00  0.10930796503E+04  0.10930796503E+04  0.00000000000E+00 0. -1.
         21   -1    0    0  501  502 -0.00000000000E+00 -0.00000000000E+00 -0.52284741934E+02  0.52284741934E+02  0.00000000000E+00 0. -1.
         25    1    1    2    0    0  0.41591367412E+02  0.72758739166E+02  0.22051489760E+03  0.26697471047E+03  0.12500000000E+03 0.  0.
         25    1    1    2    0    0  0.11511091652E+02 -0.10689456098E+03  0.33605025302E+03  0.37431767919E+03  0.12500000000E+03 0.  0.
         25    1    1    2    0    0 -0.53102459064E+02  0.34135821818E+02  0.48422975772E+03  0.50407200254E+03  0.12500000000E+03 0.  0.
</event>
<event>
 5    0  0.5631475E-005  0.3013069E+03  0.7546771E-02  0.1084589E+00
         21   -1    0    0  502  501  0.00000000000E+00  0.00000000000E+00  0.99878085836E+03  0.99878085836E+03  0.00000000000E+00 0.  1.
         21   -1    0    0  501  502 -0.00000000000E+00 -0.00000000000E+00 -0.90896649045E+02  0.90896649045E+02  0.00000000000E+00 0.  1.
         25    1    1    2    0    0 -0.63685584131E+02  0.10847913036E+03  0.16544513361E+03  0.24252972516E+03  0.12500000000E+03 0.  0.
         25    1    1    2    0    0  0.56118555214E+02 -0.20726528637E+03  0.44911417547E+03  0.51326088276E+03  0.12500000000E+03 0.  0.
         25    1    1    2    0    0  0.75670289170E+01  0.98786156011E+02  0.29332490024E+03  0.33388689948E+03  0.12500000000E+03 0.  0.
</event>
<event>
 5    0  0.5631475E-005  0.2510913E+03  0.7546771E-02  0.1112617E+00
         21   -1    0    0  502  501  0.00000000000E+00  0.00000000000E+00  0.72432812776E+02  0.72432812776E+02  0.00000000000E+00 0.  1.
         21   -1    0    0  501  502 -0.00000000000E+00 -0.00000000000E+00 -0.87041832535E+03  0.87041832535E+03  0.00000000000E+00 0.  1.
         25    1    1    2    0    0  0.44772708590E+02 -0.54649465415E+02 -0.34569323051E+03  0.37432601983E+03  0.12500000000E+03 0.  0.
         25    1    1    2    0    0 -0.11589952770E+03 -0.29624699612E+02 -0.18320744261E+03  0.25199263953E+03  0.12500000000E+03 0.  0.
         25    1    1    2    0    0  0.71126819115E+02  0.84274165026E+02 -0.26908483946E+03  0.31653247877E+03  0.12500000000E+03 0.  0.
</event>
<event>
 5    0  0.5631475E-005  0.3641192E+03  0.7546771E-02  0.1056965E+00
         21   -1    0    0  502  501  0.00000000000E+00  0.00000000000E+00  0.33154479643E+03  0.33154479643E+03  0.00000000000E+00 0.  1.
         21   -1    0    0  501  502 -0.00000000000E+00 -0.00000000000E+00 -0.39989408841E+03  0.39989408841E+03  0.00000000000E+00 0.  1.
         25    1    1    2    0    0  0.13860776966E+03  0.15658578335E+03 -0.15494956188E+03  0.28873099605E+03  0.12500000000E+03 0.  0.
         25    1    1    2    0    0  0.40447015967E+02 -0.16643740709E+03  0.14528210583E+02  0.21254044435E+03  0.12500000000E+03 0.  0.
         25    1    1    2    0    0 -0.17905478562E+03  0.98516237427E+01  0.72072059318E+02  0.23016744444E+03  0.12500000000E+03 0.  0.
</event>
<event>
 5    0  0.5631475E-005  0.2253685E+03  0.7546771E-02  0.1129943E+00
         21   -1    0    0  502  501  0.00000000000E+00  0.00000000000E+00  0.44302818603E+03  0.44302818603E+03  0.00000000000E+00 0. -1.
         21   -1    0    0  501  502 -0.00000000000E+00 -0.00000000000E+00 -0.11464502604E+03  0.11464502604E+03  0.00000000000E+00 0. -1.
         25    1    1    2    0    0 -0.91576951882E+01 -0.22187536345E+02  0.11038063664E+03  0.16847858943E+03  0.12500000000E+03 0.  0.
         25    1    1    2    0    0  0.10491868308E+03  0.14880032395E+01  0.10095797726E+03  0.19190533444E+03  0.12500000000E+03 0.  0.
         25    1    1    2    0    0 -0.95760987895E+02  0.20699533105E+02  0.11704454608E+03  0.19728928821E+03  0.12500000000E+03 0.  0.
</event>
<event>
 5    0  0.5631475E-005  0.4004068E+03  0.7546771E-02  0.1043639E+00
         21   -1    0    0  502  501  0.00000000000E+00  0.00000000000E+00  0.21061505414E+03  0.21061505414E+03  0.00000000000E+00 0.  1.
         21   -1    0    0  501  502 -0.00000000000E+00 -0.00000000000E+00 -0.76122583674E+03  0.76122583674E+03  0.00000000000E+00 0.  1.
         25    1    1    2    0    0  0.58014491083E+02 -0.29378332919E+02 -0.36029762501E+02  0.14543696712E+03  0.12500000000E+03 0.  0.
         25    1    1    2    0    0 -0.16398631923E+02  0.22848616451E+03 -0.20209968552E+01  0.26096729092E+03  0.12500000000E+03 0.  0.
         25    1    1    2    0    0 -0.41615859160E+02 -0.19910783159E+03 -0.51256002324E+03  0.56543663284E+03  0.12500000000E+03 0.  0.
</event>
<event>
 5    0  0.6062649E-005  0.4313011E+03  0.7546771E-02  0.1033450E+00
         21   -1    0    0  502  501  0.00000000000E+00  0.00000000000E+00  0.17791911418E+03  0.17791911418E+03  0.00000000000E+00 0. -1.
         21   -1    0    0  501  502 -0.00000000000E+00 -0.00000000000E+00 -0.10455348223E+04  0.10455348223E+04  0.00000000000E+00 0. -1.
         25    1    1    2    0    0 -0.13053184456E+03  0.10330731254E+03 -0.59254692820E+02  0.21644186723E+03  0.12500000000E+03 0.  0.
         25    1    1    2    0    0  0.45590681338E+01 -0.26183268709E+03 -0.19634226757E+03  0.35036042466E+03  0.12500000000E+03 0.  0.
         25    1    1    2    0    0  0.12597277643E+03  0.15852537456E+03 -0.61201874772E+03  0.65665164459E+03  0.12500000000E+03 0.  0.
</event>
<event>
 5    0  0.5631475E-005  0.2610006E+03  0.7546771E-02  0.1106544E+00
         21   -1    0    0  502  501  0.00000000000E+00  0.00000000000E+00  0.52428693096E+03  0.52428693096E+03  0.00000000000E+00 0.  1.
         21   -1    0    0  501  502 -0.00000000000E+00 -0.00000000000E+00 -0.12993137762E+03  0.12993137762E+03  0.00000000000E+00 0.  1.
         25    1    1    2    0    0 -0.46851453496E+02 -0.99749655027E+02  0.19085193864E+03  0.25336636489E+03  0.12500000000E+03 0.  0.
         25    1    1    2    0    0  0.11179173913E+03  0.11459124864E+03  0.13146009778E+03  0.24194070453E+03  0.12500000000E+03 0.  0.
         25    1    1    2    0    0 -0.64940285639E+02 -0.14841593612E+02  0.72043516931E+02  0.15891123916E+03  0.12500000000E+03 0.  0.
</event>
<event>
 5    0  0.5631475E-005  0.2153550E+03  0.7546771E-02  0.1137394E+00
         21   -1    0    0  502  501  0.00000000000E+00  0.00000000000E+00  0.30335619977E+03  0.30335619977E+03  0.00000000000E+00 0.  1.
         21   -1    0    0  501  502 -0.00000000000E+00 -0.00000000000E+00 -0.15288227584E+03  0.15288227584E+03  0.00000000000E+00 0.  1.
         25    1    1    2    0    0 -0.49166326395E+02 -0.47506025913E+02  0.21627413242E+02  0.14410723491E+03  0.12500000000E+03 0.  0.
         25    1    1    2    0    0  0.30058438129E+02  0.79964249336E+02  0.49170506992E+02  0.15918709003E+03  0.12500000000E+03 0.  0.
         25    1    1    2    0    0  0.19107888265E+02 -0.32458223422E+02  0.79676003689E+02  0.15294415067E+03  0.12500000000E+03 0.  0.
</event>
<event>
 5    0  0.5631475E-005  0.3299786E+03  0.7546771E-02  0.1071146E+00
         21   -1    0    0  502  501  0.00000000000E+00  0.00000000000E+00  0.11796466750E+04  0.11796466750E+04  0.00000000000E+00 0.  1.
         21   -1    0    0  501  502 -0.00000000000E+00 -0.00000000000E+00 -0.92303832190E+02  0.92303832190E+02  0.00000000000E+00 0.  1.
         25    1    1    2    0    0 -0.28103833765E+02  0.14321290814E+03  0.23773160429E+03  0.30568133442E+03  0.12500000000E+03 0.  0.
         25    1    1    2    0    0 -0.68939376387E+02 -0.68594099018E+02  0.74665266500E+03  0.76326469209E+03  0.12500000000E+03 0.  0.
         25    1    1    2    0    0  0.97043210153E+02 -0.74618809122E+02  0.10295857348E+03  0.20300448065E+03  0.12500000000E+03 0.  0.
</event>
<event>
 5    0  0.5631475E-005  0.3343388E+03  0.7546771E-02  0.1069233E+00
         21   -1    0    0  502  501  0.00000000000E+00  0.00000000000E+00  0.85745638250E+03  0.85745638250E+03  0.00000000000E+00 0.  1.
         21   -1    0    0  501  502 -0.00000000000E+00 -0.00000000000E+00 -0.13036512413E+03  0.13036512413E+03  0.00000000000E+00 0.  1.
         25    1    1    2    0    0  0.58087229765E+02  0.12141227905E+03  0.21313730303E+03  0.28136733589E+03  0.12500000000E+03 0.  0.
         25    1    1    2    0    0  0.15329015013E+03 -0.49948421594E+02  0.34213843126E+03  0.39834209054E+03  0.12500000000E+03 0.  0.
         25    1    1    2    0    0 -0.21137737989E+03 -0.71463857453E+02  0.17181552407E+03  0.30811208020E+03  0.12500000000E+03 0.  0.
</event>
<event>
 5    0  0.6096911E-005  0.2822187E+03  0.7546771E-02  0.1094483E+00
         21   -1    0    0  502  501  0.00000000000E+00  0.00000000000E+00  0.78060950830E+02  0.78060950830E+02  0.00000000000E+00 0.  1.
         21   -1    0    0  501  502 -0.00000000000E+00 -0.00000000000E+00 -0.10203233101E+04  0.10203233101E+04  0.00000000000E+00 0.  1.
         25    1    1    2    0    0  0.13517896197E+02  0.11472632931E+03 -0.91242336709E+02  0.19311920713E+03  0.12500000000E+03 0.  0.
         25    1    1    2    0    0 -0.74107291165E+01 -0.11836155291E+02 -0.54139667956E+03  0.55581505748E+03  0.12500000000E+03 0.  0.
         25    1    1    2    0    0 -0.61071670806E+01 -0.10289017402E+03 -0.30962334303E+03  0.34944999635E+03  0.12500000000E+03 0.  0.
</event>
<event>
 5    0  0.5631475E-005  0.3345666E+03  0.7546771E-02  0.1069134E+00
         21   -1    0    0  502  501  0.00000000000E+00  0.00000000000E+00  0.19296847363E+03  0.19296847363E+03  0.00000000000E+00 0. -1.
         21   -1    0    0  501  502 -0.00000000000E+00 -0.00000000000E+00 -0.58006775335E+03  0.58006775335E+03  0.00000000000E+00 0. -1.
         25    1    1    2    0    0 -0.71873747806E+02  0.23089807629E+03 -0.10371645102E+03  0.29131058936E+03  0.12500000000E+03 0.  0.
         25    1    1    2    0    0 -0.40073034321E+02 -0.13300245717E+03 -0.89271026382E+02  0.20709857036E+03  0.12500000000E+03 0.  0.
         25    1    1    2    0    0  0.11194678213E+03 -0.97895619120E+02 -0.19411180232E+03  0.27462706726E+03  0.12500000000E+03 0.  0.
</event>
<event>
 5    0  0.5631475E-005  0.2073908E+03  0.7546771E-02  0.1143649E+00
         21   -1    0    0  502  501  0.00000000000E+00  0.00000000000E+00  0.31822748660E+03  0.31822748660E+03  0.00000000000E+00 0.  1.
         21   -1    0    0  501  502 -0.00000000000E+00 -0.00000000000E+00 -0.13515779355E+03  0.13515779355E+03  0.00000000000E+00 0.  1.
         25    1    1    2    0    0 -0.13532580472E+02  0.26596741658E+02  0.14019393178E+03  0.19018374250E+03  0.12500000000E+03 0.  0.
         25    1    1    2    0    0 -0.27947896032E+01 -0.39337217526E+02  0.37719053990E+02  0.13639264850E+03  0.12500000000E+03 0.  0.
         25    1    1    2    0    0  0.16327370075E+02  0.12740475868E+02  0.51567072800E+01  0.12680888916E+03  0.12500000000E+03 0.  0.
</event>
<event>
 5    0  0.5631475E-005  0.2391256E+03  0.7546771E-02  0.1120377E+00
         21   -1    0    0  502  501  0.00000000000E+00  0.00000000000E+00  0.11763201921E+04  0.11763201921E+04  0.00000000000E+00 0.  1.
         21   -1    0    0  501  502 -0.00000000000E+00 -0.00000000000E+00 -0.48610110145E+02  0.48610110145E+02  0.00000000000E+00 0.  1.
         25    1    1    2    0    0 -0.51220397792E+02  0.31119056181E+02  0.30537265016E+03  0.33536454832E+03  0.12500000000E+03 0.  0.
         25    1    1    2    0    0  0.12517438298E+03 -0.38695432638E+02  0.57277502345E+03  0.60071806211E+03  0.12500000000E+03 0.  0.
         25    1    1    2    0    0 -0.73953985188E+02  0.75763764566E+01  0.24956240837E+03  0.28884769184E+03  0.12500000000E+03 0.  0.
</event>
<event>
 5    0  0.5631475E-005  0.2500346E+03  0.7546771E-02  0.1113283E+00
         21   -1    0    0  502  501  0.00000000000E+00  0.00000000000E+00  0.15649630177E+03  0.15649630177E+03  0.00000000000E+00 0. -1.
         21   -1    0    0  501  502 -0.00000000000E+00 -0.00000000000E+00 -0.39948090659E+03  0.39948090659E+03  0.00000000000E+00 0. -1.
         25    1    1    2    0    0  0.52874053025E+02  0.15851696904E+02 -0.32242480216E+02  0.14039771832E+03  0.12500000000E+03 0.  0.
         25    1    1    2    0    0  0.58982413298E+01  0.85479191596E+02 -0.18997327802E+03  0.24301507733E+03  0.12500000000E+03 0.  0.
         25    1    1    2    0    0 -0.58772294355E+02 -0.10133088850E+03 -0.20768846583E+02  0.17256441272E+03  0.12500000000E+03 0.  0.
</event>
<event>
 5    0  0.5631475E-005  0.2314081E+03  0.7546771E-02  0.1125653E+00
         21   -1    0    0  502  501  0.00000000000E+00  0.00000000000E+00  0.92132804566E+02  0.92132804566E+02  0.00000000000E+00 0.  1.
         21   -1    0    0  501  502 -0.00000000000E+00 -0.00000000000E+00 -0.58122327566E+03  0.58122327566E+03  0.00000000000E+00 0.  1.
         25    1    1    2    0    0  0.40654247840E+02  0.68258605609E+02 -0.11260171237E+03  0.18605416076E+03  0.12500000000E+03 0.  0.
         25    1    1    2    0    0 -0.78916347375E+02  0.19832594002E+02 -0.15162589864E+03  0.21268882153E+03  0.12500000000E+03 0.  0.
         25    1    1    2    0    0  0.38262099535E+02 -0.88091199611E+02 -0.22486286009E+03  0.27461309793E+03  0.12500000000E+03 0.  0.
</event>
<event>
 5    0  0.5631475E-005  0.3804646E+03  0.7546771E-02  0.1050762E+00
         21   -1    0    0  502  501  0.00000000000E+00  0.00000000000E+00  0.10737430474E+04  0.10737430474E+04  0.00000000000E+00 0. -1.
         21   -1    0    0  501  502 -0.00000000000E+00 -0.00000000000E+00 -0.13481184946E+03  0.13481184946E+03  0.00000000000E+00 0. -1.
         25    1    1    2    0    0 -0.16752893167E+03 -0.12898130346E+03  0.84859776154E+02  0.25986208111E+03  0.12500000000E+03 0.  0.
         25    1    1    2    0    0  0.61686963961E+02  0.16826158807E+03  0.31087249426E+03  0.37997888261E+03  0.12500000000E+03 0.  0.
         25    1    1    2    0    0  0.10584196771E+03 -0.39280284606E+02  0.54319892752E+03  0.56871393314E+03  0.12500000000E+03 0.  0.
</event>
<event>
 5    0  0.5631475E-005  0.3281017E+03  0.7546771E-02  0.1071980E+00
         21   -1    0    0  502  501  0.00000000000E+00  0.00000000000E+00  0.19779084904E+04  0.19779084904E+04  0.00000000000E+00 0. -1.
         21   -1    0    0  501  502 -0.00000000000E+00 -0.00000000000E+00 -0.54426529666E+02  0.54426529666E+02  0.00000000000E+00 0. -1.
         25    1    1    2    0    0 -0.18388661083E+03  0.70892244064E+02  0.74154984072E+03  0.77740669034E+03  0.12500000000E+03 0.  0.
         25    1    1    2    0    0  0.14394681650E+03 -0.15017590964E+03  0.49755139280E+03  0.55358457195E+03  0.12500000000E+03 0.  0.
         25    1    1    2    0    0  0.39939794323E+02  0.79283665581E+02  0.68438072720E+03  0.70134375777E+03  0.12500000000E+03 0.  0.
</event>
<event>
 5    0  0.5631475E-005  0.3016497E+03  0.7546771E-02  0.1084419E+00
         21   -1    0    0  502  501  0.00000000000E+00  0.00000000000E+00  0.37621212302E+03  0.37621212302E+03  0.00000000000E+00 0. -1.
         21   -1    0    0  501  502 -0.00000000000E+00 -0.00000000000E+00 -0.24186495528E+03  0.24186495528E+03  0.00000000000E+00 0. -1.
         25    1    1    2    0    0 -0.11486203179E+03  0.14126307624E+03  0.92619508483E+02  0.23948260147E+03  0.12500000000E+03 0.  0.
         25    1    1    2    0    0 -0.30674570897E+02  0.13927199375E+02  0.10915896738E+02  0.12991940957E+03  0.12500000000E+03 0.  0.
         25    1    1    2    0    0  0.14553660269E+03 -0.15519027561E+03  0.30811762516E+02  0.24867506726E+03  0.12500000000E+03 0.  0.
</event>
<event>
 5    0  0.5631475E-005  0.3056824E+03  0.7546771E-02  0.1082434E+00
         21   -1    0    0  502  501  0.00000000000E+00  0.00000000000E+00  0.48406314811E+02  0.48406314811E+02  0.00000000000E+00 0.  1.
         21   -1    0    0  501  502 -0.00000000000E+00 -0.00000000000E+00 -0.19303626083E+04  0.19303626083E+04  0.00000000000E+00 0.  1.
         25    1    1    2    0    0 -0.39573905016E+02 -0.64035342801E+02 -0.20206474716E+03  0.24924241439E+03  0.12500000000E+03 0.  0.
         25    1    1    2    0    0  0.11019217984E+03  0.12289846325E+03 -0.52660100034E+03  0.56584446832E+03  0.12500000000E+03 0.  0.
         25    1    1    2    0    0 -0.70618274827E+02 -0.58863120447E+02 -0.11532905460E+04  0.11636820404E+04  0.12500000000E+03 0.  0.
</event>
<event>
 5    0  0.5631475E-005  0.2946160E+03  0.7546771E-02  0.1087963E+00
         21   -1    0    0  502  501  0.00000000000E+00  0.00000000000E+00  0.11339000124E+04  0.11339000124E+04  0.00000000000E+00 0. -1.
         21   -1    0    0  501  502 -0.00000000000E+00 -0.00000000000E+00 -0.76548700198E+02  0.76548700198E+02  0.00000000000E+00 0. -1.
         25    1    1    2    0    0 -0.17562106518E+02  0.10050500688E+03  0.50408685222E+03  0.52928086927E+03  0.12500000000E+03 0.  0.
         25    1    1    2    0    0 -0.70671715068E+02 -0.76570200811E+02  0.76379374931E+02  0.17976733818E+03  0.12500000000E+03 0.  0.
         25    1    1    2    0    0  0.88233821586E+02 -0.23934806068E+02  0.47688508503E+03  0.50140050512E+03  0.12500000000E+03 0.  0.
</event>
<event>
 5    0  0.5631475E-005  0.2332725E+03  0.7546771E-02  0.1124357E+00
         21   -1    0    0  502  501  0.00000000000E+00  0.00000000000E+00  0.21206011652E+03  0.21206011652E+03  0.00000000000E+00 0. -1.
         21   -1    0    0  501  502 -0.00000000000E+00 -0.00000000000E+00 -0.25660683722E+03  0.25660683722E+03  0.00000000000E+00 0. -1.
         25    1    1    2    0    0  0.88095355955E+02 -0.17078933192E+02 -0.12277329158E+02  0.15436390288E+03  0.12500000000E+03 0.  0.
         25    1    1    2    0    0  0.15246150601E+02 -0.49200427797E+02  0.45337825627E+01  0.13527262246E+03  0.12500000000E+03 0.  0.
         25    1    1    2    0    0 -0.10334150656E+03  0.66279360989E+02 -0.36803174101E+02  0.17903042840E+03  0.12500000000E+03 0.  0.
</event>
<event>
 5    0  0.5631475E-005  0.3085658E+03  0.7546771E-02  0.1081035E+00
         21   -1    0    0  502  501  0.00000000000E+00  0.00000000000E+00  0.50258707441E+03  0.50258707441E+03  0.00000000000E+00 0.  1.
         21   -1    0    0  501  502 -0.00000000000E+00 -0.00000000000E+00 -0.18944550227E+03  0.18944550227E+03  0.00000000000E+00 0.  1.
         25    1    1    2    0    0 -0.10977496207E+03 -0.12708818119E+02  0.81832272940E+02  0.18583212115E+03  0.12500000000E+03 0.  0.
         25    1    1    2    0    0  0.14231910882E+03 -0.14428688680E+03  0.17419062634E+03  0.29502679326E+03  0.12500000000E+03 0.  0.
         25    1    1    2    0    0 -0.32544146746E+02  0.15699570492E+03  0.57118672861E+02  0.21117366228E+03  0.12500000000E+03 0.  0.
</event>
<event>
 5    0  0.5631475E-005  0.3554388E+03  0.7546771E-02  0.1060405E+00
         21   -1    0    0  502  501  0.00000000000E+00  0.00000000000E+00  0.18078294669E+04  0.18078294669E+04  0.00000000000E+00 0. -1.
         21   -1    0    0  501  502 -0.00000000000E+00 -0.00000000000E+00 -0.69883106993E+02  0.69883106993E+02  0.00000000000E+00 0. -1.
         25    1    1    2    0    0 -0.20164511206E+03 -0.11021674434E+03  0.90917472466E+03  0.94606139437E+03  0.12500000000E+03 0.  0.
         25    1    1    2    0    0  0.18254858740E+03  0.12946277731E+03  0.71820549724E+03  0.76258031297E+03  0.12500000000E+03 0.  0.
         25    1    1    2    0    0  0.19096524662E+02 -0.19246032966E+02  0.11056613798E+03  0.16907086652E+03  0.12500000000E+03 0.  0.
</event>
<event>
 5    0  0.5631475E-005  0.2682396E+03  0.7546771E-02  0.1102291E+00
         21   -1    0    0  502  501  0.00000000000E+00  0.00000000000E+00  0.27326028384E+03  0.27326028384E+03  0.00000000000E+00 0. -1.
         21   -1    0    0  501  502 -0.00000000000E+00 -0.00000000000E+00 -0.26331116946E+03  0.26331116946E+03  0.00000000000E+00 0. -1.
         25    1    1    2    0    0  0.47910029187E+02 -0.69189135490E+02  0.12802475485E+03  0.19773175066E+03  0.12500000000E+03 0.  0.
         25    1    1    2    0    0 -0.88291703519E+00  0.28745930209E+02 -0.14828676933E+03  0.19606395386E+03  0.12500000000E+03 0.  0.
         25    1    1    2    0    0 -0.47027112151E+02  0.40443205280E+02  0.30211128868E+02  0.14277574877E+03  0.12500000000E+03 0.  0.
</event>
<event>
 5    0  0.6230737E-005  0.2739509E+03  0.7546771E-02  0.1099039E+00
         21   -1    0    0  502  501  0.00000000000E+00  0.00000000000E+00  0.77352506918E+03  0.77352506918E+03  0.00000000000E+00 0.  1.
         21   -1    0    0  501  502 -0.00000000000E+00 -0.00000000000E+00 -0.97022155177E+02  0.97022155177E+02  0.00000000000E+00 0.  1.
         25    1    1    2    0    0 -0.73101288006E+02  0.40435988299E+02  0.10424280477E+03  0.18294925473E+03  0.12500000000E+03 0.  0.
         25    1    1    2    0    0 -0.34490656310E+02  0.69565893459E+02  0.10724108226E+03  0.18208423498E+03  0.12500000000E+03 0.  0.
         25    1    1    2    0    0  0.10759194432E+03 -0.11000188176E+03  0.46501902697E+03  0.50551373465E+03  0.12500000000E+03 0.  0.
</event>
<event>
 5    0  0.5631475E-005  0.2586150E+03  0.7546771E-02  0.1107978E+00
         21   -1    0    0  502  501  0.00000000000E+00  0.00000000000E+00  0.35831863182E+03  0.35831863182E+03  0.00000000000E+00 0.  1.
         21   -1    0    0  501  502 -0.00000000000E+00 -0.00000000000E+00 -0.18665425582E+03  0.18665425582E+03  0.00000000000E+00 0.  1.
         25    1    1    2    0    0  0.23540930634E+02  0.13515815842E+03  0.18272429193E+01  0.18560776390E+03  0.12500000000E+03 0.  0.
         25    1    1    2    0    0 -0.17520576935E+02 -0.14179820356E+03  0.11946134484E+03  0.22429827030E+03  0.12500000000E+03 0.  0.
         25    1    1    2    0    0 -0.60203536991E+01  0.66400451405E+01  0.50375788250E+02  0.13506685345E+03  0.12500000000E+03 0.  0.
</event>
<event>
 5    0  0.5631475E-005  0.3534744E+03  0.7546771E-02  0.1061198E+00
         21   -1    0    0  502  501  0.00000000000E+00  0.00000000000E+00  0.42538624928E+03  0.42538624928E+03  0.00000000000E+00 0. -1.
         21   -1    0    0  501  502 -0.00000000000E+00 -0.00000000000E+00 -0.29371933729E+03  0.29371933729E+03  0.00000000000E+00 0.  1.
         25    1    1    2    0    0 -0.22338209794E+03  0.52821809220E+02  0.21505667727E+02  0.26225407328E+03  0.12500000000E+03 0.  0.
         25    1    1    2    0    0  0.20934373708E+03 -0.14789820404E+03  0.60285207461E+02  0.29147553113E+03  0.12500000000E+03 0.  0.
         25    1    1    2    0    0  0.14038360859E+02  0.95076394819E+02  0.49876036795E+02  0.16537598216E+03  0.12500000000E+03 0.  0.
</event>
<event>
 5    0  0.5631475E-005  0.3656387E+03  0.7546771E-02  0.1056373E+00
         21   -1    0    0  502  501  0.00000000000E+00  0.00000000000E+00  0.24090262096E+03  0.24090262096E+03  0.00000000000E+00 0.  1.
         21   -1    0    0  501  502 -0.00000000000E+00 -0.00000000000E+00 -0.55496138966E+03  0.55496138966E+03  0.00000000000E+00 0.  1.
         25    1    1    2    0    0  0.13475988341E+03 -0.73804418938E+02 -0.37144845401E+02  0.20152433593E+03  0.12500000000E+03 0.  0.
         25    1    1    2    0    0  0.90135490322E+02  0.94952141833E+02 -0.28318820841E+03  0.33609652964E+03  0.12500000000E+03 0.  0.
         25    1    1    2    0    0 -0.22489537373E+03 -0.21147722896E+02  0.62742851152E+01  0.25824314504E+03  0.12500000000E+03 0.  0.
</event>
<event>
 5    0  0.5631475E-005  0.2711134E+03  0.7546771E-02  0.1100644E+00
         21   -1    0    0  502  501  0.00000000000E+00  0.00000000000E+00  0.47622409320E+03  0.47622409320E+03  0.00000000000E+00 0. -1.
         21   -1    0    0  501  502 -0.00000000000E+00 -0.00000000000E+00 -0.15434424763E+03  0.15434424763E+03  0.00000000000E+00 0. -1.
         25    1    1    2    0    0  0.11182573215E+03 -0.36597037583E+02  0.13032084227E+03  0.21552925430E+03  0.12500000000E+03 0.  0.
         25    1    1    2    0    0 -0.65059492572E+02  0.25802329535E+02  0.23417740720E+03  0.27452241407E+03  0.12500000000E+03 0.  0.
         25    1    1    2    0    0 -0.46766239582E+02  0.10794708048E+02 -0.42618403903E+02  0.14051667245E+03  0.12500000000E+03 0.  0.
</event>
<event>
 5    0  0.5631475E-005  0.3705135E+03  0.7546771E-02  0.1054497E+00
         21   -1    0    0  502  501  0.00000000000E+00  0.00000000000E+00  0.19866301433E+03  0.19866301433E+03  0.00000000000E+00 0. -1.
         21   -1    0    0  501  502 -0.00000000000E+00 -0.00000000000E+00 -0.69102082261E+03  0.69102082261E+03  0.00000000000E+00 0. -1.
         25    1    1    2    0    0 -0.13121127890E+03  0.39257752653E+02 -0.39319772740E+03  0.43472637795E+03  0.12500000000E+03 0.  0.
         25    1    1    2    0    0  0.11839384544E+03 -0.18310711302E+03 -0.75879620081E+02  0.26254149048E+03  0.12500000000E+03 0.  0.
         25    1    1    2    0    0  0.12817433465E+02  0.14384936037E+03 -0.23280460797E+02  0.19241596850E+03  0.12500000000E+03 0.  0.
</event>
<event>
 5    0  0.5631475E-005  0.3403403E+03  0.7546771E-02  0.1066651E+00
         21   -1    0    0  502  501  0.00000000000E+00  0.00000000000E+00  0.73064395885E+03  0.73064395885E+03  0.00000000000E+00 0. -1.
         21   -1    0    0  501  502 -0.00000000000E+00 -0.00000000000E+00 -0.15853343882E+03  0.15853343882E+03  0.00000000000E+00 0. -1.
         25    1    1    2    0    0  0.16653004868E+03  0.19046844425E+03  0.35836123104E+03  0.45613403434E+03  0.12500000000E+03 0.  0.
         25    1    1    2    0    0 -0.40842082545E+02 -0.13726079685E+03  0.89323582628E+02  0.21002929432E+03  0.12500000000E+03 0.  0.
         25    1    1    2    0    0 -0.12568796614E+03 -0.53207647400E+02  0.12442570636E+03  0.22301406901E+03  0.12500000000E+03 0.  0.
</event>
<event>
 5    0  0.5631475E-005  0.3875092E+03  0.7546771E-02  0.1048193E+00
         21   -1    0    0  502  501  0.00000000000E+00  0.00000000000E+00  0.38321860699E+03  0.38321860699E+03  0.00000000000E+00 0.  1.
         21   -1    0    0  501  502 -0.00000000000E+00 -0.00000000000E+00 -0.39184786944E+03  0.39184786944E+03  0.00000000000E+00 0.  1.
         25    1    1    2    0    0  0.64345189067E+02 -0.32128257688E+03  0.39569238484E+02  0.35292141080E+03  0.12500000000E+03 0.  0.
         25    1    1    2    0    0  0.70862588306E+00  0.17888406445E+03 -0.38285388355E+02  0.22156439611E+03  0.12500000000E+03 0.  0.
         25    1    1    2    0    0 -0.65053814950E+02  0.14239851244E+03 -0.99131125813E+01  0.20058066952E+03  0.12500000000E+03 0.  0.
</event>
<event>
 5    0  0.5631475E-005  0.2902874E+03  0.7546771E-02  0.1090199E+00
         21   -1    0    0  502  501  0.00000000000E+00  0.00000000000E+00  0.13024372722E+04  0.13024372722E+04  0.00000000000E+00 0. -1.
         21   -1    0    0  501  502 -0.00000000000E+00 -0.00000000000E+00 -0.64699305948E+02  0.64699305948E+02  0.00000000000E+00 0. -1.
         25    1    1    2    0    0  0.28610520852E+02 -0.92851980008E+02  0.23225067642E+03  0.28107904367E+03  0.12500000000E+03 0.  0.
         25    1    1    2    0    0 -0.64391741495E+02 -0.83059445528E+02  0.63637582719E+03  0.65699646978E+03  0.12500000000E+03 0.  0.
         25    1    1    2    0    0  0.35781220643E+02  0.17591142554E+03  0.36911146261E+03  0.42906106467E+03  0.12500000000E+03 0.  0.
</event>
<event>
 5    0  0.5631475E-005  0.3415214E+03  0.7546771E-02  0.1066150E+00
         21   -1    0    0  502  501  0.00000000000E+00  0.00000000000E+00  0.10831939631E+03  0.10831939631E+03  0.00000000000E+00 0.  1.
         21   -1    0    0  501  502 -0.00000000000E+00 -0.00000000000E+00 -0.10767864803E+04  0.10767864803E+04  0.00000000000E+00 0.  1.
         25    1    1    2    0    0 -0.15658443323E+02 -0.10300623773E+03 -0.63448538399E+03  0.65502074345E+03  0.12500000000E+03 0.  0.
         25    1    1    2    0    0  0.84544425722E+02  0.32386186553E+02  0.62111127340E+01  0.15446748176E+03  0.12500000000E+03 0.  0.
         25    1    1    2    0    0 -0.68885982399E+02  0.70620051174E+02 -0.34019281270E+03  0.37561765136E+03  0.12500000000E+03 0.  0.
</event>
<event>
 5    0  0.5631475E-005  0.2235255E+03  0.7546771E-02  0.1131282E+00
         21   -1    0    0  502  501  0.00000000000E+00  0.00000000000E+00  0.19219915551E+03  0.19219915551E+03  0.00000000000E+00 0.  1.
         21   -1    0    0  501  502 -0.00000000000E+00 -0.00000000000E+00 -0.25995761780E+03  0.25995761780E+03  0.00000000000E+00 0.  1.
         25    1    1    2    0    0 -0.19467490142E+01  0.45270932986E+02  0.47956620616E+02  0.14134385259E+03  0.12500000000E+03 0.  0.
         25    1    1    2    0    0 -0.50612128170E+02  0.13908326533E+02 -0.26791696594E+02  0.13819487715E+03  0.12500000000E+03 0.  0.
         25    1    1    2    0    0  0.52558877184E+02 -0.59179259519E+02 -0.88923386314E+02  0.17261804356E+03  0.12500000000E+03 0.  0.
</event>
<event>
 5    0  0.5631475E-005  0.3205391E+03  0.7546771E-02  0.1075401E+00
         21   -1    0    0  502  501  0.00000000000E+00  0.00000000000E+00  0.42082297888E+03  0.42082297888E+03  0.00000000000E+00 0. -1.
         21   -1    0    0  501  502 -0.00000000000E+00 -0.00000000000E+00 -0.24415332091E+03  0.24415332091E+03  0.00000000000E+00 0. -1.
         25    1    1    2    0    0  0.21547577687E+03 -0.38164982395E+02  0.31787257575E+02  0.25401142896E+03  0.12500000000E+03 0.  0.
         25    1    1    2    0    0 -0.21299418687E+03  0.33236841236E+02  0.13982760077E+03  0.28574108768E+03  0.12500000000E+03 0.  0.
         25    1    1    2    0    0 -0.24815900056E+01  0.49281411588E+01  0.50547996283E+01  0.12522378314E+03  0.12500000000E+03 0.  0.
</event>
<event>
 5    0  0.5631475E-005  0.3462206E+03  0.7546771E-02  0.1064177E+00
         21   -1    0    0  502  501  0.00000000000E+00  0.00000000000E+00  0.24752273677E+04  0.24752273677E+04  0.00000000000E+00 0.  1.
         21   -1    0    0  501  502 -0.00000000000E+00 -0.00000000000E+00 -0.48427345633E+02  0.48427345633E+02  0.00000000000E+00 0.  1.
         25    1    1    2    0    0  0.21024728120E+03 -0.48865166444E+02  0.10203927441E+04  0.10504370880E+04  0.12500000000E+03 0.  0.
         25    1    1    2    0    0 -0.23497571974E+03  0.19150676488E+02  0.11963119997E+04  0.12257111152E+04  0.12500000000E+03 0.  0.
         25    1    1    2    0    0  0.24728438540E+02  0.29714489955E+02  0.21009527825E+03  0.24750651008E+03  0.12500000000E+03 0.  0.
</event>
<event>
 5    0  0.5631475E-005  0.4525606E+03  0.7546771E-02  0.1026961E+00
         21   -1    0    0  502  501  0.00000000000E+00  0.00000000000E+00  0.94310352786E+03  0.94310352786E+03  0.00000000000E+00 0.  1.
         21   -1    0    0  501  502 -0.00000000000E+00 -0.00000000000E+00 -0.21716710945E+03  0.21716710945E+03  0.00000000000E+00 0.  1.
         25    1    1    2    0    0  0.51665097906E+02 -0.17717530582E+03  0.41183161656E+03  0.46828479768E+03  0.12500000000E+03 0.  0.
         25    1    1    2    0    0 -0.20855187371E+02 -0.65599362615E+02  0.38296870598E+03  0.40869089172E+03  0.12500000000E+03 0.  0.
         25    1    1    2    0    0 -0.30809910534E+02  0.24277466844E+03 -0.68863904125E+02  0.28329494791E+03  0.12500000000E+03 0.  0.
</event>
<event>
 5    0  0.5631475E-005  0.4386591E+03  0.7546771E-02  0.1031159E+00
         21   -1    0    0  502  501  0.00000000000E+00  0.00000000000E+00  0.24364365961E+03  0.24364365961E+03  0.00000000000E+00 0. -1.
         21   -1    0    0  501  502 -0.00000000000E+00 -0.00000000000E+00 -0.78976747931E+03  0.78976747931E+03  0.00000000000E+00 0. -1.
         25    1    1    2    0    0 -0.68585815053E+02  0.21091252807E+03 -0.38740355301E+03  0.46356727819E+03  0.12500000000E+03 0.  0.
         25    1    1    2    0    0  0.18605827598E+03  0.37565434569E+00 -0.19267793228E+03  0.29558012241E+03  0.12500000000E+03 0.  0.
         25    1    1    2    0    0 -0.11747246093E+03 -0.21128818242E+03  0.33957665590E+02  0.27426373832E+03  0.12500000000E+03 0.  0.
</event>
<event>
 5    0  0.5631475E-005  0.3115831E+03  0.7546771E-02  0.1079590E+00
         21   -1    0    0  502  501  0.00000000000E+00  0.00000000000E+00  0.16423568381E+03  0.16423568381E+03  0.00000000000E+00 0.  1.
         21   -1    0    0  501  502 -0.00000000000E+00 -0.00000000000E+00 -0.59112613421E+03  0.59112613421E+03  0.00000000000E+00 0.  1.
         25    1    1    2    0    0  0.23995238252E+02 -0.50662512714E+02 -0.13036948687E+03  0.18911283605E+03  0.12500000000E+03 0.  0.
         25    1    1    2    0    0  0.37820983625E+02 -0.12585782293E+03 -0.28895998456E+03  0.34116490304E+03  0.12500000000E+03 0.  0.
         25    1    1    2    0    0 -0.61816221877E+02  0.17652033564E+03 -0.75609789641E+01  0.22508407892E+03  0.12500000000E+03 0.  0.
</event>
<event>
 5    0  0.5631475E-005  0.2558101E+03  0.7546771E-02  0.1109687E+00
         21   -1    0    0  502  501  0.00000000000E+00  0.00000000000E+00  0.15104246038E+03  0.15104246038E+03  0.00000000000E+00 0. -1.
         21   -1    0    0  501  502 -0.00000000000E+00 -0.00000000000E+00 -0.43324767285E+03  0.43324767285E+03  0.00000000000E+00 0. -1.
         25    1    1    2    0    0 -0.11734629060E+03  0.87681229730E+02 -0.59285976813E+02  0.20148939677E+03  0.12500000000E+03 0.  0.
         25    1    1    2    0    0  0.97555735156E+02 -0.77088320576E+01 -0.14000023761E+03  0.21166391776E+03  0.12500000000E+03 0.  0.
         25    1    1    2    0    0  0.19790555442E+02 -0.79972397672E+02 -0.82918998050E+02  0.17113681869E+03  0.12500000000E+03 0.  0.
</event>
<event>
 5    0  0.6229194E-005  0.4958808E+03  0.7546771E-02  0.1014860E+00
         21   -1    0    0  502  501  0.00000000000E+00  0.00000000000E+00  0.81902434659E+03  0.81902434659E+03  0.00000000000E+00 0.  1.
         21   -1    0    0  501  502 -0.00000000000E+00 -0.00000000000E+00 -0.30023255085E+03  0.30023255085E+03  0.00000000000E+00 0.  1.
         25    1    1    2    0    0  0.13907784332E+03  0.30538413168E+03  0.16417727025E+03  0.39393056552E+03  0.12500000000E+03 0.  0.
         25    1    1    2    0    0  0.27418358147E+02 -0.28928846732E+03  0.29588197039E+01  0.31634370280E+03  0.12500000000E+03 0.  0.
         25    1    1    2    0    0 -0.16649620147E+03 -0.16095664359E+02  0.35165570579E+03  0.40898262913E+03  0.12500000000E+03 0.  0.
</event>
<event>
 5    0  0.5631475E-005  0.3407675E+03  0.7546771E-02  0.1066470E+00
         21   -1    0    0  502  501  0.00000000000E+00  0.00000000000E+00  0.94215761424E+02  0.94215761424E+02  0.00000000000E+00 0.  1.
         21   -1    0    0  501  502 -0.00000000000E+00 -0.00000000000E+00 -0.12325162602E+04  0.12325162602E+04  0.00000000000E+00 0.  1.
         25    1    1    2    0    0  0.11071000569E+03  0.22081562707E+03 -0.29545650211E+03  0.40488985065E+03  0.12500000000E+03 0.  0.
         25    1    1    2    0    0 -0.97082357835E+01 -0.55368767577E+02 -0.39482326840E+03  0.41793583663E+03  0.12500000000E+03 0.  0.
         25    1    1    2    0    0 -0.10100176991E+03 -0.16544685949E+03 -0.44802072826E+03  0.50390633434E+03  0.12500000000E+03 0.  0.
</event>
<event>
 5    0  0.7641968E-005  0.2836280E+03  0.7546771E-02  0.1093724E+00
         21   -1    0    0  502  501  0.00000000000E+00  0.00000000000E+00  0.27131106068E+03  0.27131106068E+03  0.00000000000E+00 0.  1.
         21   -1    0    0  501  502 -0.00000000000E+00 -0.00000000000E+00 -0.29650418917E+03  0.29650418917E+03  0.00000000000E+00 0.  1.
         25    1    1    2    0    0 -0.45339002212E+02 -0.10259205070E+03  0.37346160851E+01  0.16798720590E+03  0.12500000000E+03 0.  0.
         25    1    1    2    0    0 -0.22606302410E+02  0.15766472542E+03  0.74247999599E+02  0.21565476113E+03  0.12500000000E+03 0.  0.
         25    1    1    2    0    0  0.67945304622E+02 -0.55072674725E+02 -0.10317574417E+03  0.18417328283E+03  0.12500000000E+03 0.  0.
</event>
<event>
 5    0  0.5631475E-005  0.2661940E+03  0.7546771E-02  0.1103478E+00
         21   -1    0    0  502  501  0.00000000000E+00  0.00000000000E+00  0.86627588605E+02  0.86627588605E+02  0.00000000000E+00 0.  1.
         21   -1    0    0  501  502 -0.00000000000E+00 -0.00000000000E+00 -0.81797566001E+03  0.81797566001E+03  0.00000000000E+00 0.  1.
         25    1    1    2    0    0  0.43027661574E+02  0.10063945776E+01 -0.11877405524E+03  0.17772076043E+03  0.12500000000E+03 0.  0.
         25    1    1    2    0    0 -0.44504797607E+02 -0.94617215412E+02 -0.52088448647E+03  0.54578268817E+03  0.12500000000E+03 0.  0.
         25    1    1    2    0    0  0.14771360335E+01  0.93610820834E+02 -0.91689529691E+02  0.18109980001E+03  0.12500000000E+03 0.  0.
</event>
<event>
 5    0  0.5631475E-005  0.2492744E+03  0.7546771E-02  0.1113764E+00
         21   -1    0    0  502  501  0.00000000000E+00  0.00000000000E+00  0.29730208341E+03  0.29730208341E+03  0.00000000000E+00 0. -1.
         21   -1    0    0  501  502 -0.00000000000E+00 -0.00000000000E+00 -0.20900538047E+03  0.20900538047E+03  0.00000000000E+00 0. -1.
         25    1    1    2    0    0 -0.84206885840E+02 -0.99145236534E+01  0.14663252243E+03  0.21051174323E+03  0.12500000000E+03 0.  0.
         25    1    1    2    0    0  0.32966326902E+02 -0.54517857040E+02 -0.29640038134E+02  0.14339632947E+03  0.12500000000E+03 0.  0.
         25    1    1    2    0    0  0.51240558938E+02  0.64432380693E+02 -0.28695781354E+02  0.15239939117E+03  0.12500000000E+03 0.  0.
</event>
<event>
 5    0  0.5631475E-005  0.3979887E+03  0.7546771E-02  0.1044478E+00
         21   -1    0    0  502  501  0.00000000000E+00  0.00000000000E+00  0.44061589167E+03  0.44061589167E+03  0.00000000000E+00 0. -1.
         21   -1    0    0  501  502 -0.00000000000E+00 -0.00000000000E+00 -0.35948546810E+03  0.35948546810E+03  0.00000000000E+00 0. -1.
         25    1    1    2    0    0 -0.18338313227E+03 -0.73587953153E+02 -0.23394962753E+03  0.33075971380E+03  0.12500000000E+03 0.  0.
         25    1    1    2    0    0  0.12263914844E+03 -0.10198783681E+02  0.10703323376E+03  0.20548841585E+03  0.12500000000E+03 0.  0.
         25    1    1    2    0    0  0.60743983822E+02  0.83786736834E+02  0.20804681734E+03  0.26385323012E+03  0.12500000000E+03 0.  0.
</event>
<event>
 5    0  0.7561274E-005  0.3753998E+03  0.7546771E-02  0.1052647E+00
         21   -1    0    0  502  501  0.00000000000E+00  0.00000000000E+00  0.22210619942E+03  0.22210619942E+03  0.00000000000E+00 0. -1.
         21   -1    0    0  501  502 -0.00000000000E+00 -0.00000000000E+00 -0.63449387557E+03  0.63449387557E+03  0.00000000000E+00 0. -1.
         25    1    1    2    0    0 -0.30620133893E+02  0.10610951957E+03  0.84040708281E+02  0.18677436492E+03  0.12500000000E+03 0.  0.
         25    1    1    2    0    0  0.38191095197E+02  0.85944784107E+02 -0.38364715212E+03  0.41431292883E+03  0.12500000000E+03 0.  0.
         25    1    1    2    0    0 -0.75709613038E+01 -0.19205430368E+03 -0.11278123232E+03  0.25551278125E+03  0.12500000000E+03 0.  0.
</event>
<event>
 5    0  0.5631475E-005  0.3350672E+03  0.7546771E-02  0.1068917E+00
         21   -1    0    0  502  501  0.00000000000E+00  0.00000000000E+00  0.23526521985E+03  0.23526521985E+03  0.00000000000E+00 0. -1.
         21   -1    0    0  501  502 -0.00000000000E+00 -0.00000000000E+00 -0.47720622095E+03  0.47720622095E+03  0.00000000000E+00 0. -1.
         25    1    1    2    0    0  0.32023621646E+02  0.23611452224E+03 -0.32728990847E+01  0.26909346299E+03  0.12500000000E+03 0.  0.
         25    1    1    2    0    0 -0.27922494773E+01 -0.44561976750E+02 -0.38976192963E+02  0.13833911250E+03  0.12500000000E+03 0.  0.
         25    1    1    2    0    0 -0.29231372169E+02 -0.19155254549E+03 -0.19969190905E+03  0.30503886530E+03  0.12500000000E+03 0.  0.
</event>
<event>
 5    0  0.5631475E-005  0.3108821E+03  0.7546771E-02  0.1079924E+00
         21   -1    0    0  502  501  0.00000000000E+00  0.00000000000E+00  0.44552504356E+03  0.44552504356E+03  0.00000000000E+00 0.  1.
         21   -1    0    0  501  502 -0.00000000000E+00 -0.00000000000E+00 -0.21692985314E+03  0.21692985314E+03  0.00000000000E+00 0.  1.
         25    1    1    2    0    0  0.34242453764E+02  0.12698205965E+03  0.40896607676E+02  0.18599602585E+03  0.12500000000E+03 0.  0.
         25    1    1    2    0    0 -0.21252835691E+02  0.83644162381E+02  0.17376038763E+03  0.23079363344E+03  0.12500000000E+03 0.  0.
         25    1    1    2    0    0 -0.12989618074E+02 -0.21062622203E+03  0.13938195109E+02  0.24566523740E+03  0.12500000000E+03 0.  0.
</event>
<event>
 5    0  0.5631475E-005  0.2804562E+03  0.7546771E-02  0.1095440E+00
         21   -1    0    0  502  501  0.00000000000E+00  0.00000000000E+00  0.96347677248E+03  0.96347677248E+03  0.00000000000E+00 0.  1.
         21   -1    0    0  501  502 -0.00000000000E+00 -0.00000000000E+00 -0.81637361940E+02  0.81637361940E+02  0.00000000000E+00 0.  1.
         25    1    1    2    0    0  0.97686120868E+02  0.61316193390E+02  0.18273132282E+03  0.24963571484E+03  0.12500000000E+03 0.  0.
         25    1    1    2    0    0  0.70943276666E+02  0.16361256251E+02  0.37191556340E+03  0.39905742132E+03  0.12500000000E+03 0.  0.
         25    1    1    2    0    0 -0.16862939753E+03 -0.77677449641E+02  0.32719252432E+03  0.39642099826E+03  0.12500000000E+03 0.  0.
</event>
<event>
 5    0  0.5631475E-005  0.2484311E+03  0.7546771E-02  0.1114300E+00
         21   -1    0    0  502  501  0.00000000000E+00  0.00000000000E+00  0.23231406350E+03  0.23231406350E+03  0.00000000000E+00 0.  1.
         21   -1    0    0  501  502 -0.00000000000E+00 -0.00000000000E+00 -0.26566637536E+03  0.26566637536E+03  0.00000000000E+00 0.  1.
         25    1    1    2    0    0 -0.56497813304E+02  0.12342060891E+03 -0.73593823157E+01  0.18467216932E+03  0.12500000000E+03 0.  0.
         25    1    1    2    0    0  0.62795210499E+02 -0.11787571441E+03 -0.39985874631E+02  0.18724794439E+03  0.12500000000E+03 0.  0.
         25    1    1    2    0    0 -0.62973971948E+01 -0.55448945049E+01  0.13992945083E+02  0.12606032516E+03  0.12500000000E+03 0.  0.
</event>
<event>
 5    0  0.7374360E-005  0.2597065E+03  0.7546771E-02  0.1107320E+00
         21   -1    0    0  502  501  0.00000000000E+00  0.00000000000E+00  0.42225439939E+03  0.42225439939E+03  0.00000000000E+00 0.  1.
         21   -1    0    0  501  502 -0.00000000000E+00 -0.00000000000E+00 -0.15973181939E+03  0.15973181939E+03  0.00000000000E+00 0.  1.
         25    1    1    2    0    0 -0.40052397147E+01  0.12282827549E+03  0.23297726688E+03  0.29155828592E+03  0.12500000000E+03 0.  0.
         25    1    1    2    0    0 -0.33666090664E+02 -0.74367317930E+02  0.22619778761E+02  0.15099853651E+03  0.12500000000E+03 0.  0.
         25    1    1    2    0    0  0.37671330378E+02 -0.48460957555E+02  0.69255343541E+01  0.13942939635E+03  0.12500000000E+03 0.  0.
</event>
<event>
 5    0  0.5666401E-005  0.3946045E+03  0.7546771E-02  0.1045664E+00
         21   -1    0    0  502  501  0.00000000000E+00  0.00000000000E+00  0.22873461802E+03  0.22873461802E+03  0.00000000000E+00 0.  1.
         21   -1    0    0  501  502 -0.00000000000E+00 -0.00000000000E+00 -0.68075705276E+03  0.68075705276E+03  0.00000000000E+00 0.  1.
         25    1    1    2    0    0  0.84086512310E+02 -0.68123934413E+02 -0.11283518561E+02  0.16572184462E+03  0.12500000000E+03 0.  0.
         25    1    1    2    0    0 -0.12894189307E+03 -0.21856365798E+03 -0.21965323266E+03  0.35814609728E+03  0.12500000000E+03 0.  0.
         25    1    1    2    0    0  0.44855380759E+02  0.28668759240E+03 -0.22108568352E+03  0.38562372888E+03  0.12500000000E+03 0.  0.
</event>
<event>
 5    0  0.5631475E-005  0.3075097E+03  0.7546771E-02  0.1081546E+00
         21   -1    0    0  502  501  0.00000000000E+00  0.00000000000E+00  0.19837506640E+03  0.19837506640E+03  0.00000000000E+00 0.  1.
         21   -1    0    0  501  502 -0.00000000000E+00 -0.00000000000E+00 -0.47668385937E+03  0.47668385937E+03  0.00000000000E+00 0.  1.
         25    1    1    2    0    0 -0.43261534129E+02 -0.13139656500E+03  0.51094705744E+02  0.19331913145E+03  0.12500000000E+03 0.  0.
         25    1    1    2    0    0 -0.24904695847E+02  0.11368105256E+03 -0.28373440575E+03  0.33117040718E+03  0.12500000000E+03 0.  0.
         25    1    1    2    0    0  0.68166229975E+02  0.17715512436E+02 -0.45669092963E+02  0.15056938713E+03  0.12500000000E+03 0.  0.
</event>
<event>
 5    0  0.5631475E-005  0.3047691E+03  0.7546771E-02  0.1082881E+00
         21   -1    0    0  502  501  0.00000000000E+00  0.00000000000E+00  0.12383557078E+04  0.12383557078E+04  0.00000000000E+00 0.  1.
         21   -1    0    0  501  502 -0.00000000000E+00 -0.00000000000E+00 -0.75006054574E+02  0.75006054574E+02  0.00000000000E+00 0.  1.
         25    1    1    2    0    0 -0.24532603982E+02  0.10627207299E+03  0.36808290343E+03  0.40373955213E+03  0.12500000000E+03 0.  0.
         25    1    1    2    0    0 -0.15497898030E+02  0.11981254748E+03  0.24494177439E+03  0.30036095655E+03  0.12500000000E+03 0.  0.
         25    1    1    2    0    0  0.40030502011E+02 -0.22608462047E+03  0.55032497541E+03  0.60926125371E+03  0.12500000000E+03 0.  0.
</event>
<event>
 5    0  0.5631475E-005  0.2679999E+03  0.7546771E-02  0.1102430E+00
         21   -1    0    0  502  501  0.00000000000E+00  0.00000000000E+00  0.54599261497E+02  0.54599261497E+02  0.00000000000E+00 0.  1.
         21   -1    0    0  501  502 -0.00000000000E+00 -0.00000000000E+00 -0.13154745415E+04  0.13154745415E+04  0.00000000000E+00 0.  1.
         25    1    1    2    0    0  0.38105519466E+02 -0.46971278252E+02 -0.85098886531E+03  0.86224438558E+03  0.12500000000E+03 0.  0.
         25    1    1    2    0    0 -0.59015182960E+02  0.50010625086E+02 -0.32082617065E+03  0.35289982461E+03  0.12500000000E+03 0.  0.
         25    1    1    2    0    0  0.20909663494E+02 -0.30393468342E+01 -0.89060244065E+02  0.15492959281E+03  0.12500000000E+03 0.  0.
</event>
<event>
 5    0  0.5631475E-005  0.3873555E+03  0.7546771E-02  0.1048248E+00
         21   -1    0    0  502  501  0.00000000000E+00  0.00000000000E+00  0.19287254361E+03  0.19287254361E+03  0.00000000000E+00 0. -1.
         21   -1    0    0  501  502 -0.00000000000E+00 -0.00000000000E+00 -0.77794542524E+03  0.77794542524E+03  0.00000000000E+00 0. -1.
         25    1    1    2    0    0  0.25927976548E+03  0.80445483460E+02 -0.16530171874E+03  0.34153642678E+03  0.12500000000E+03 0.  0.
         25    1    1    2    0    0 -0.11154449491E+03  0.92138294606E+02 -0.26675836943E+03  0.32820217449E+03  0.12500000000E+03 0.  0.
         25    1    1    2    0    0 -0.14773527057E+03 -0.17258377807E+03 -0.15301279346E+03  0.30107936758E+03  0.12500000000E+03 0.  0.
</event>
<event>
 5    0  0.5631475E-005  0.2934029E+03  0.7546771E-02  0.1088586E+00
         21   -1    0    0  502  501  0.00000000000E+00  0.00000000000E+00  0.47147451386E+02  0.47147451386E+02  0.00000000000E+00 0. -1.
         21   -1    0    0  501  502 -0.00000000000E+00 -0.00000000000E+00 -0.18258729714E+04  0.18258729714E+04  0.00000000000E+00 0. -1.
         25    1    1    2    0    0 -0.30083175444E+02  0.56859995293E+02 -0.14900805298E+03  0.20485716088E+03  0.12500000000E+03 0.  0.
         25    1    1    2    0    0  0.11649338283E+03  0.40483816905E+02 -0.81073001704E+03  0.82952866629E+03  0.12500000000E+03 0.  0.
         25    1    1    2    0    0 -0.86410207391E+02 -0.97343812198E+02 -0.81898745001E+03  0.83863459563E+03  0.12500000000E+03 0.  0.
</event>
<event>
 5    0  0.5631475E-005  0.3261232E+03  0.7546771E-02  0.1072865E+00
         21   -1    0    0  502  501  0.00000000000E+00  0.00000000000E+00  0.36137926006E+03  0.36137926006E+03  0.00000000000E+00 0. -1.
         21   -1    0    0  501  502 -0.00000000000E+00 -0.00000000000E+00 -0.29430667318E+03  0.29430667318E+03  0.00000000000E+00 0. -1.
         25    1    1    2    0    0 -0.17816733504E+03  0.59597672460E+02  0.53167220569E+02  0.23183449955E+03  0.12500000000E+03 0.  0.
         25    1    1    2    0    0  0.30742565771E+02  0.58005457878E+02 -0.97575077893E+02  0.17162643829E+03  0.12500000000E+03 0.  0.
         25    1    1    2    0    0  0.14742476927E+03 -0.11760313034E+03  0.11148044420E+03  0.25222499539E+03  0.12500000000E+03 0.  0.
</event>
<event>
 5    0  0.5631475E-005  0.2370775E+03  0.7546771E-02  0.1121755E+00
         21   -1    0    0  502  501  0.00000000000E+00  0.00000000000E+00  0.68088636776E+03  0.68088636776E+03  0.00000000000E+00 0. -1.
         21   -1    0    0  501  502 -0.00000000000E+00 -0.00000000000E+00 -0.82547879261E+02  0.82547879261E+02  0.00000000000E+00 0. -1.
         25    1    1    2    0    0  0.65633829989E+02 -0.99641347046E+02  0.24658217321E+03  0.30110457622E+03  0.12500000000E+03 0.  0.
         25    1    1    2    0    0 -0.66448262907E+02  0.82753009884E+02  0.13887001638E+03  0.21487976577E+03  0.12500000000E+03 0.  0.
         25    1    1    2    0    0  0.81443291798E+00  0.16888337162E+02  0.21288629891E+03  0.24744990503E+03  0.12500000000E+03 0.  0.
</event>
<event>
 5    0  0.5631475E-005  0.3346354E+03  0.7546771E-02  0.1069104E+00
         21   -1    0    0  502  501  0.00000000000E+00  0.00000000000E+00  0.13001213260E+04  0.13001213260E+04  0.00000000000E+00 0. -1.
         21   -1    0    0  501  502 -0.00000000000E+00 -0.00000000000E+00 -0.86131095354E+02  0.86131095354E+02  0.00000000000E+00 0. -1.
         25    1    1    2    0    0  0.11509863375E+03 -0.14550261876E+03  0.68636590190E+03  0.72190155759E+03  0.12500000000E+03 0.  0.
         25    1    1    2    0    0 -0.16379738925E+03  0.21351162954E+02  0.36504568934E+03  0.41972468618E+03  0.12500000000E+03 0.  0.
         25    1    1    2    0    0  0.48698755508E+02  0.12415145581E+03  0.16257863941E+03  0.24462617759E+03  0.12500000000E+03 0.  0.
</event>
<event>
 5    0  0.5631475E-005  0.3254696E+03  0.7546771E-02  0.1073159E+00
         21   -1    0    0  502  501  0.00000000000E+00  0.00000000000E+00  0.32449329812E+03  0.32449329812E+03  0.00000000000E+00 0.  1.
         21   -1    0    0  501  502 -0.00000000000E+00 -0.00000000000E+00 -0.32644889962E+03  0.32644889962E+03  0.00000000000E+00 0.  1.
         25    1    1    2    0    0  0.51305456057E+02  0.12623252990E+03 -0.14556159394E+03  0.23532972413E+03  0.12500000000E+03 0.  0.
         25    1    1    2    0    0  0.10812985671E+03 -0.48141835352E+02  0.50803301610E+02  0.17948726327E+03  0.12500000000E+03 0.  0.
         25    1    1    2    0    0 -0.15943531277E+03 -0.78090694551E+02  0.92802690830E+02  0.23612521034E+03  0.12500000000E+03 0.  0.
</event>
<event>
 5    0  0.5631475E-005  0.3168262E+03  0.7546771E-02  0.1077119E+00
         21   -1    0    0  502  501  0.00000000000E+00  0.00000000000E+00  0.18430861736E+03  0.18430861736E+03  0.00000000000E+00 0. -1.
         21   -1    0    0  501  502 -0.00000000000E+00 -0.00000000000E+00 -0.54462385440E+03  0.54462385440E+03  0.00000000000E+00 0. -1.
         25    1    1    2    0    0 -0.43569524452E+02  0.15884633959E+03 -0.12323098112E+03  0.24071006994E+03  0.12500000000E+03 0.  0.
         25    1    1    2    0    0  0.10981247119E+02  0.80918642807E+02 -0.12092428305E+03  0.19213562078E+03  0.12500000000E+03 0.  0.
         25    1    1    2    0    0  0.32588277333E+02 -0.23976498240E+03 -0.11615997287E+03  0.29608678103E+03  0.12500000000E+03 0.  0.
</event>
<event>
 5    0  0.5631475E-005  0.3506570E+03  0.7546771E-02  0.1062346E+00
         21   -1    0    0  502  501  0.00000000000E+00  0.00000000000E+00  0.74503189018E+02  0.74503189018E+02  0.00000000000E+00 0.  1.
         21   -1    0    0  501  502 -0.00000000000E+00 -0.00000000000E+00 -0.16504032311E+04  0.16504032311E+04  0.00000000000E+00 0.  1.
         25    1    1    2    0    0  0.17511085680E+03  0.53947764305E+02 -0.70548510195E+03  0.73953255676E+03  0.12500000000E+03 0.  0.
         25    1    1    2    0    0 -0.10890299118E+03  0.10931141850E+03 -0.63748064171E+03  0.66769410381E+03  0.12500000000E+03 0.  0.
         25    1    1    2    0    0 -0.66207865611E+02 -0.16325918280E+03 -0.23293429838E+03  0.31767975951E+03  0.12500000000E+03 0.  0.
</event>
<event>
 5    0  0.5631475E-005  0.2233385E+03  0.7546771E-02  0.1131418E+00
         21   -1    0    0  502  501  0.00000000000E+00  0.00000000000E+00  0.56878996015E+03  0.56878996015E+03  0.00000000000E+00 0.  1.
         21   -1    0    0  501  502 -0.00000000000E+00 -0.00000000000E+00 -0.87695070593E+02  0.87695070593E+02  0.00000000000E+00 0.  1.
         25    1    1    2    0    0  0.28437552137E+02  0.21842232668E+02  0.24845541551E+03  0.28042979691E+03  0.12500000000E+03 0.  0.
         25    1    1    2    0    0 -0.66941990286E+02 -0.61791208930E+02  0.92407443280E+02  0.18017635566E+03  0.12500000000E+03 0.  0.
         25    1    1    2    0    0  0.38504438149E+02  0.39948976262E+02  0.14023203077E+03  0.19587887817E+03  0.12500000000E+03 0.  0.
</event>
<event>
 5    0  0.5899764E-005  0.2763224E+03  0.7546771E-02  0.1097715E+00
         21   -1    0    0  502  501  0.00000000000E+00  0.00000000000E+00  0.19106822577E+03  0.19106822577E+03  0.00000000000E+00 0.  1.
         21   -1    0    0  501  502 -0.00000000000E+00 -0.00000000000E+00 -0.39961674797E+03  0.39961674797E+03  0.00000000000E+00 0.  1.
         25    1    1    2    0    0 -0.66168777799E+02  0.99107941253E+01 -0.43684270094E+02  0.14835715840E+03  0.12500000000E+03 0.  0.
         25    1    1    2    0    0  0.19315168762E+03  0.14879029593E+02 -0.93511754740E+02  0.24879390713E+03  0.12500000000E+03 0.  0.
         25    1    1    2    0    0 -0.12698290982E+03 -0.24789823718E+02 -0.71352497360E+02  0.19353390821E+03  0.12500000000E+03 0.  0.
</event>
<event>
 5    0  0.6906458E-005  0.2619524E+03  0.7546771E-02  0.1105976E+00
         21   -1    0    0  502  501  0.00000000000E+00  0.00000000000E+00  0.19521140318E+03  0.19521140318E+03  0.00000000000E+00 0.  1.
         21   -1    0    0  501  502 -0.00000000000E+00 -0.00000000000E+00 -0.35151150252E+03  0.35151150252E+03  0.00000000000E+00 0.  1.
         25    1    1    2    0    0  0.11242595738E+03  0.16898381823E+02 -0.20047948933E+02  0.17015308242E+03  0.12500000000E+03 0.  0.
         25    1    1    2    0    0  0.35922586949E+02  0.77574452123E+01 -0.12521857430E+03  0.18070777946E+03  0.12500000000E+03 0.  0.
         25    1    1    2    0    0 -0.14834854432E+03 -0.24655827035E+02 -0.11033576108E+02  0.19586204383E+03  0.12500000000E+03 0.  0.
</event>
<event>
 5    0  0.5631475E-005  0.8196462E+03  0.7546771E-02  0.9532007E-01
         21   -1    0    0  502  501  0.00000000000E+00  0.00000000000E+00  0.13219818857E+04  0.13219818857E+04  0.00000000000E+00 0.  1.
         21   -1    0    0  501  502 -0.00000000000E+00 -0.00000000000E+00 -0.50819148972E+03  0.50819148972E+03  0.00000000000E+00 0.  1.
         25    1    1    2    0    0  0.18463805468E+02 -0.49729633460E+03 -0.24782742869E+03  0.56981399679E+03  0.12500000000E+03 0.  0.
         25    1    1    2    0    0  0.80414189363E+02  0.45260276260E+03  0.57695581806E+03  0.74821034379E+03  0.12500000000E+03 0.  0.
         25    1    1    2    0    0 -0.98877994831E+02  0.44693572004E+02  0.48466200661E+03  0.51214903484E+03  0.12500000000E+03 0.  0.
</event>
<event>
 5    0  0.5631475E-005  0.2119763E+03  0.7546771E-02  0.1140010E+00
         21   -1    0    0  502  501  0.00000000000E+00  0.00000000000E+00  0.88278734219E+03  0.88278734219E+03  0.00000000000E+00 0.  1.
         21   -1    0    0  501  502 -0.00000000000E+00 -0.00000000000E+00 -0.50900102344E+02  0.50900102344E+02  0.00000000000E+00 0.  1.
         25    1    1    2    0    0  0.19186157727E+02 -0.16218232754E+02  0.23508395938E+03  0.26743337055E+03  0.12500000000E+03 0.  0.
         25    1    1    2    0    0  0.45586737864E+02  0.61274202363E+02  0.33446404827E+03  0.36513542437E+03  0.12500000000E+03 0.  0.
         25    1    1    2    0    0 -0.64772895591E+02 -0.45055969609E+02  0.26233923219E+03  0.30111864962E+03  0.12500000000E+03 0.  0.
</event>
<event>
 5    0  0.5631475E-005  0.2549543E+03  0.7546771E-02  0.1110213E+00
         21   -1    0    0  502  501  0.00000000000E+00  0.00000000000E+00  0.97506542959E+03  0.97506542959E+03  0.00000000000E+00 0. -1.
         21   -1    0    0  501  502 -0.00000000000E+00 -0.00000000000E+00 -0.66663913280E+02  0.66663913280E+02  0.00000000000E+00 0. -1.
         25    1    1    2    0    0  0.21567490170E+02  0.11404388847E+03  0.34062837962E+03  0.38095125427E+03  0.12500000000E+03 0.  0.
         25    1    1    2    0    0 -0.98283075530E+02 -0.10324207382E+03  0.28990291426E+03  0.34639166912E+03  0.12500000000E+03 0.  0.
         25    1    1    2    0    0  0.76715585360E+02 -0.10801814645E+02  0.27787022244E+03  0.31438641949E+03  0.12500000000E+03 0.  0.
</event>
<event>
 5    0  0.5631475E-005  0.4710425E+03  0.7546771E-02  0.1021626E+00
         21   -1    0    0  502  501  0.00000000000E+00  0.00000000000E+00  0.18690377974E+03  0.18690377974E+03  0.00000000000E+00 0. -1.
         21   -1    0    0  501  502 -0.00000000000E+00 -0.00000000000E+00 -0.11871404326E+04  0.11871404326E+04  0.00000000000E+00 0. -1.
         25    1    1    2    0    0  0.27314390832E+03 -0.80051635867E+02 -0.17588460267E+03  0.35717818034E+03  0.12500000000E+03 0.  0.
         25    1    1    2    0    0  0.15598697014E+02 -0.72441064963E+02 -0.55997095013E+03  0.57851835946E+03  0.12500000000E+03 0.  0.
         25    1    1    2    0    0 -0.28874260533E+03  0.15249270083E+03 -0.26438110002E+03  0.43834767250E+03  0.12500000000E+03 0.  0.
</event>
<event>
 5    0  0.5631475E-005  0.3760232E+03  0.7546771E-02  0.1052413E+00
         21   -1    0    0  502  501  0.00000000000E+00  0.00000000000E+00  0.18793596440E+03  0.18793596440E+03  0.00000000000E+00 0. -1.
         21   -1    0    0  501  502 -0.00000000000E+00 -0.00000000000E+00 -0.75234900666E+03  0.75234900666E+03  0.00000000000E+00 0. -1.
         25    1    1    2    0    0 -0.12838012850E+03 -0.23415725371E+02 -0.24166905565E+03  0.30175931808E+03  0.12500000000E+03 0.  0.
         25    1    1    2    0    0  0.19667119603E+03 -0.16484498564E+03 -0.72513112698E+02  0.29451074709E+03  0.12500000000E+03 0.  0.
         25    1    1    2    0    0 -0.68291067521E+02  0.18826071101E+03 -0.25023087392E+03  0.34401490589E+03  0.12500000000E+03 0.  0.
</event>
<event>
 5    0  0.5631475E-005  0.2474431E+03  0.7546771E-02  0.1114931E+00
         21   -1    0    0  502  501  0.00000000000E+00  0.00000000000E+00  0.12503924826E+03  0.12503924826E+03  0.00000000000E+00 0.  1.
         21   -1    0    0  501  502 -0.00000000000E+00 -0.00000000000E+00 -0.48967092105E+03  0.48967092105E+03  0.00000000000E+00 0.  1.
         25    1    1    2    0    0 -0.10076645012E+03 -0.76889026776E+01 -0.27434140239E+03  0.31796415169E+03  0.12500000000E+03 0.  0.
         25    1    1    2    0    0  0.37277454740E+02  0.26731118823E+02 -0.78969022207E+02  0.15480719561E+03  0.12500000000E+03 0.  0.
         25    1    1    2    0    0  0.63488995384E+02 -0.19042216145E+02 -0.11321248197E+02  0.14193882200E+03  0.12500000000E+03 0.  0.
</event>
<event>
 5    0  0.5631475E-005  0.3395967E+03  0.7546771E-02  0.1066968E+00
         21   -1    0    0  502  501  0.00000000000E+00  0.00000000000E+00  0.44343945879E+03  0.44343945879E+03  0.00000000000E+00 0. -1.
         21   -1    0    0  501  502 -0.00000000000E+00 -0.00000000000E+00 -0.26007137250E+03  0.26007137250E+03  0.00000000000E+00 0. -1.
         25    1    1    2    0    0 -0.65515189720E+02 -0.12016965539E+03 -0.25363896399E+02  0.18708637951E+03  0.12500000000E+03 0.  0.
         25    1    1    2    0    0  0.21042094345E+02 -0.64543738168E+02 -0.68471193671E+02  0.15786693205E+03  0.12500000000E+03 0.  0.
         25    1    1    2    0    0  0.44473095375E+02  0.18471339355E+03  0.27720317636E+03  0.35855751973E+03  0.12500000000E+03 0.  0.
</event>
<event>
 5    0  0.5631475E-005  0.3008881E+03  0.7546771E-02  0.1084798E+00
         21   -1    0    0  502  501  0.00000000000E+00  0.00000000000E+00  0.18915214307E+03  0.18915214307E+03  0.00000000000E+00 0. -1.
         21   -1    0    0  501  502 -0.00000000000E+00 -0.00000000000E+00 -0.47862869711E+03  0.47862869711E+03  0.00000000000E+00 0. -1.
         25    1    1    2    0    0  0.25402229593E+02  0.18743609754E+03 -0.41652825834E+02  0.23051577350E+03  0.12500000000E+03 0.  0.
         25    1    1    2    0    0  0.52663982919E+02 -0.34957793220E+02 -0.54474369670E+02  0.15029304493E+03  0.12500000000E+03 0.  0.
         25    1    1    2    0    0 -0.78066212513E+02 -0.15247830432E+03 -0.19334935853E+03  0.28697202175E+03  0.12500000000E+03 0.  0.
</event>
<event>
 5    0  0.5631475E-005  0.3168148E+03  0.7546771E-02  0.1077125E+00
         21   -1    0    0  502  501  0.00000000000E+00  0.00000000000E+00  0.79156341742E+03  0.79156341742E+03  0.00000000000E+00 0.  1.
         21   -1    0    0  501  502 -0.00000000000E+00 -0.00000000000E+00 -0.12680176140E+03  0.12680176140E+03  0.00000000000E+00 0.  1.
         25    1    1    2    0    0 -0.91333044021E+02  0.16989179047E+03  0.24090599144E+03  0.33296492625E+03  0.12500000000E+03 0.  0.
         25    1    1    2    0    0 -0.69060230354E+02 -0.30036946708E+02  0.22628162291E+03  0.26925806664E+03  0.12500000000E+03 0.  0.
         25    1    1    2    0    0  0.16039327438E+03 -0.13985484376E+03  0.19757404166E+03  0.31614218593E+03  0.12500000000E+03 0.  0.
</event>
<event>
 5    0  0.5631475E-005  0.2993288E+03  0.7546771E-02  0.1085577E+00
         21   -1    0    0  502  501  0.00000000000E+00  0.00000000000E+00  0.74869178411E+02  0.74869178411E+02  0.00000000000E+00 0.  1.
         21   -1    0    0  501  502 -0.00000000000E+00 -0.00000000000E+00 -0.11967234771E+04  0.11967234771E+04  0.00000000000E+00 0.  1.
         25    1    1    2    0    0 -0.10802652769E+02 -0.78712820344E+02 -0.49192784555E+03  0.51374157961E+03  0.12500000000E+03 0.  0.
         25    1    1    2    0    0  0.58918014961E+02  0.19613639294E+03 -0.40755708595E+03  0.47293614308E+03  0.12500000000E+03 0.  0.
         25    1    1    2    0    0 -0.48115362192E+02 -0.11742357259E+03 -0.22236936717E+03  0.28491493281E+03  0.12500000000E+03 0.  0.
</event>
<event>
 5    0  0.5631475E-005  0.3156384E+03  0.7546771E-02  0.1077674E+00
         21   -1    0    0  502  501  0.00000000000E+00  0.00000000000E+00  0.30001906709E+03  0.30001906709E+03  0.00000000000E+00 0.  1.
         21   -1    0    0  501  502 -0.00000000000E+00 -0.00000000000E+00 -0.33207082622E+03  0.33207082622E+03  0.00000000000E+00 0. -1.
         25    1    1    2    0    0  0.74766391869E+02 -0.16404881695E+02  0.10281816361E+03  0.17904107982E+03  0.12500000000E+03 0.  0.
         25    1    1    2    0    0  0.11827299722E+03  0.42850041552E+02  0.13883689058E+02  0.17788306483E+03  0.12500000000E+03 0.  0.
         25    1    1    2    0    0 -0.19303938908E+03 -0.26445159857E+02 -0.14875361179E+03  0.27516574867E+03  0.12500000000E+03 0.  0.
</event>
<event>
 5    0  0.5631475E-005  0.3381300E+03  0.7546771E-02  0.1067595E+00
         21   -1    0    0  502  501  0.00000000000E+00  0.00000000000E+00  0.11018008356E+03  0.11018008356E+03  0.00000000000E+00 0. -1.
         21   -1    0    0  501  502 -0.00000000000E+00 -0.00000000000E+00 -0.10376818319E+04  0.10376818319E+04  0.00000000000E+00 0. -1.
         25    1    1    2    0    0  0.41918746971E+02  0.14417393490E+03 -0.49554619550E+03  0.53266719133E+03  0.12500000000E+03 0.  0.
         25    1    1    2    0    0  0.63719636220E+02 -0.21488554909E+03 -0.21825700789E+03  0.33689332546E+03  0.12500000000E+03 0.  0.
         25    1    1    2    0    0 -0.10563838319E+03  0.70711614188E+02 -0.21369854494E+03  0.27830139866E+03  0.12500000000E+03 0.  0.
</event>
<event>
 5    0  0.5631475E-005  0.3035197E+03  0.7546771E-02  0.1083494E+00
         21   -1    0    0  502  501  0.00000000000E+00  0.00000000000E+00  0.24524370095E+03  0.24524370095E+03  0.00000000000E+00 0.  1.
         21   -1    0    0  501  502 -0.00000000000E+00 -0.00000000000E+00 -0.37564359207E+03  0.37564359207E+03  0.00000000000E+00 0.  1.
         25    1    1    2    0    0 -0.25330892274E+02 -0.32393173709E+02  0.82546505389E+02  0.15533801002E+03  0.12500000000E+03 0.  0.
         25    1    1    2    0    0  0.17382985463E+03  0.46880697563E+02 -0.11939756895E+03  0.24959045982E+03  0.12500000000E+03 0.  0.
         25    1    1    2    0    0 -0.14849896235E+03 -0.14487523854E+02 -0.93548827564E+02  0.21595882317E+03  0.12500000000E+03 0.  0.
</event>
<event>
 5    0  0.5631475E-005  0.4274189E+03  0.7546771E-02  0.1034678E+00
         21   -1    0    0  502  501  0.00000000000E+00  0.00000000000E+00  0.70896657407E+03  0.70896657407E+03  0.00000000000E+00 0.  1.
         21   -1    0    0  501  502 -0.00000000000E+00 -0.00000000000E+00 -0.25768053498E+03  0.25768053498E+03  0.00000000000E+00 0.  1.
         25    1    1    2    0    0  0.21910789403E+03  0.89044348628E+02  0.27614920849E+03  0.38447438224E+03  0.12500000000E+03 0.  0.
         25    1    1    2    0    0 -0.58865570606E+02  0.13434889949E+03 -0.57324588081E+02  0.20106190737E+03  0.12500000000E+03 0.  0.
         25    1    1    2    0    0 -0.16024232342E+03 -0.22339324812E+03  0.23246141868E+03  0.38111081944E+03  0.12500000000E+03 0.  0.
</event>
<event>
 5    0  0.5631475E-005  0.3745233E+03  0.7546771E-02  0.1052977E+00
         21   -1    0    0  502  501  0.00000000000E+00  0.00000000000E+00  0.35608359891E+03  0.35608359891E+03  0.00000000000E+00 0.  1.
         21   -1    0    0  501  502 -0.00000000000E+00 -0.00000000000E+00 -0.39391780249E+03  0.39391780249E+03  0.00000000000E+00 0.  1.
         25    1    1    2    0    0 -0.83281713748E+02  0.52277729830E+02  0.22809432788E+03  0.27806622825E+03  0.12500000000E+03 0.  0.
         25    1    1    2    0    0 -0.14588024925E+02 -0.10518239762E+03 -0.25634053929E+03  0.30432157223E+03  0.12500000000E+03 0.  0.
         25    1    1    2    0    0  0.97869738672E+02  0.52904667788E+02 -0.95879921656E+01  0.16761360093E+03  0.12500000000E+03 0.  0.
</event>
<event>
 5    0  0.5631475E-005  0.2892905E+03  0.7546771E-02  0.1090720E+00
         21   -1    0    0  502  501  0.00000000000E+00  0.00000000000E+00  0.65483455562E+03  0.65483455562E+03  0.00000000000E+00 0.  1.
         21   -1    0    0  501  502 -0.00000000000E+00 -0.00000000000E+00 -0.12780173949E+03  0.12780173949E+03  0.00000000000E+00 0.  1.
         25    1    1    2    0    0  0.29248975571E+01 -0.46478349663E+02  0.37011742934E+02  0.13843287589E+03  0.12500000000E+03 0.  0.
         25    1    1    2    0    0  0.13693293019E+03  0.95898792795E+02  0.16660633435E+03  0.26707653674E+03  0.12500000000E+03 0.  0.
         25    1    1    2    0    0 -0.13985782775E+03 -0.49420443132E+02  0.32341473884E+03  0.37712688247E+03  0.12500000000E+03 0.  0.
</event>
<event>
 5    0  0.8829370E-005  0.3891432E+03  0.7546771E-02  0.1047605E+00
         21   -1    0    0  502  501  0.00000000000E+00  0.00000000000E+00  0.28541895568E+03  0.28541895568E+03  0.00000000000E+00 0. -1.
         21   -1    0    0  501  502 -0.00000000000E+00 -0.00000000000E+00 -0.53056193730E+03  0.53056193730E+03  0.00000000000E+00 0. -1.
         25    1    1    2    0    0 -0.62037987975E+02 -0.79542368463E+01  0.13319787901E+03  0.19307681583E+03  0.12500000000E+03 0.  0.
         25    1    1    2    0    0 -0.17579065985E+03 -0.29151244499E+02 -0.21681283542E+03  0.30722134813E+03  0.12500000000E+03 0.  0.
         25    1    1    2    0    0  0.23782864783E+03  0.37105481345E+02 -0.16152802521E+03  0.31568272902E+03  0.12500000000E+03 0.  0.
</event>
<event>
 5    0  0.5631475E-005  0.2286306E+03  0.7546771E-02  0.1127607E+00
         21   -1    0    0  502  501  0.00000000000E+00  0.00000000000E+00  0.62061957842E+02  0.62061957842E+02  0.00000000000E+00 0. -1.
         21   -1    0    0  501  502 -0.00000000000E+00 -0.00000000000E+00 -0.84225429119E+03  0.84225429119E+03  0.00000000000E+00 0. -1.
         25    1    1    2    0    0 -0.28692392362E+02  0.10895061815E+03 -0.32523843482E+03  0.36619466143E+03  0.12500000000E+03 0.  0.
         25    1    1    2    0    0 -0.22315820614E+02 -0.45583127722E+02 -0.25719122757E+03  0.29042752094E+03  0.12500000000E+03 0.  0.
         25    1    1    2    0    0  0.51008212976E+02 -0.63367490430E+02 -0.19776267096E+03  0.24769406667E+03  0.12500000000E+03 0.  0.
</event>
<event>
 5    0  0.5631475E-005  0.3205132E+03  0.7546771E-02  0.1075413E+00
         21   -1    0    0  502  501  0.00000000000E+00  0.00000000000E+00  0.12506380015E+04  0.12506380015E+04  0.00000000000E+00 0.  1.
         21   -1    0    0  501  502 -0.00000000000E+00 -0.00000000000E+00 -0.82141055956E+02  0.82141055956E+02  0.00000000000E+00 0.  1.
         25    1    1    2    0    0  0.23652106756E+03 -0.49443622441E+02  0.65769000240E+03  0.71173592466E+03  0.12500000000E+03 0.  0.
         25    1    1    2    0    0 -0.77137786345E+02  0.16253596840E+02  0.22398409396E+03  0.26834360779E+03  0.12500000000E+03 0.  0.
         25    1    1    2    0    0 -0.15938328122E+03  0.33190025601E+02  0.28682284923E+03  0.35269952505E+03  0.12500000000E+03 0.  0.
</event>
<event>
 5    0  0.5631475E-005  0.2450612E+03  0.7546771E-02  0.1116466E+00
         21   -1    0    0  502  501  0.00000000000E+00  0.00000000000E+00  0.43368909619E+03  0.43368909619E+03  0.00000000000E+00 0.  1.
         21   -1    0    0  501  502 -0.00000000000E+00 -0.00000000000E+00 -0.13847478512E+03  0.13847478512E+03  0.00000000000E+00 0.  1.
         25    1    1    2    0    0  0.27503158192E+02  0.65728555502E+02  0.10159692727E+03  0.17613518203E+03  0.12500000000E+03 0.  0.
         25    1    1    2    0    0  0.28879694243E+02 -0.13788859137E+02 -0.26322617908E+02  0.13168921592E+03  0.12500000000E+03 0.  0.
         25    1    1    2    0    0 -0.56382852436E+02 -0.51939696366E+02  0.21994000171E+03  0.26433948335E+03  0.12500000000E+03 0.  0.
</event>
<event>
 5    0  0.5631475E-005  0.3962596E+03  0.7546771E-02  0.1045083E+00
         21   -1    0    0  502  501  0.00000000000E+00  0.00000000000E+00  0.13004443703E+04  0.13004443703E+04  0.00000000000E+00 0. -1.
         21   -1    0    0  501  502 -0.00000000000E+00 -0.00000000000E+00 -0.12074465098E+03  0.12074465098E+03  0.00000000000E+00 0. -1.
         25    1    1    2    0    0 -0.50122494716E+02 -0.18209700707E+03  0.51783692093E+02  0.23233195051E+03  0.12500000000E+03 0.  0.
         25    1    1    2    0    0  0.12134704797E+03  0.13040000019E+03  0.75742279512E+03  0.78806316794E+03  0.12500000000E+03 0.  0.
         25    1    1    2    0    0 -0.71224553258E+02  0.51697006873E+02  0.37049323209E+03  0.40079390282E+03  0.12500000000E+03 0.  0.
</event>
<event>
 5    0  0.5984861E-005  0.3425711E+03  0.7546771E-02  0.1065706E+00
         21   -1    0    0  502  501  0.00000000000E+00  0.00000000000E+00  0.16351264283E+03  0.16351264283E+03  0.00000000000E+00 0.  1.
         21   -1    0    0  501  502 -0.00000000000E+00 -0.00000000000E+00 -0.71771180544E+03  0.71771180544E+03  0.00000000000E+00 0.  1.
         25    1    1    2    0    0 -0.10060846904E+03 -0.78478984934E+02 -0.25403171741E+03  0.31054488978E+03  0.12500000000E+03 0.  0.
         25    1    1    2    0    0  0.78140448015E+02 -0.26327759536E+01 -0.37462493874E+03  0.40259372307E+03  0.12500000000E+03 0.  0.
         25    1    1    2    0    0  0.22468021026E+02  0.81111760888E+02  0.74457493541E+02  0.16808583542E+03  0.12500000000E+03 0.  0.
</event>
<event>
 5    0  0.5631475E-005  0.3521849E+03  0.7546771E-02  0.1061722E+00
         21   -1    0    0  502  501  0.00000000000E+00  0.00000000000E+00  0.26197679514E+03  0.26197679514E+03  0.00000000000E+00 0.  1.
         21   -1    0    0  501  502 -0.00000000000E+00 -0.00000000000E+00 -0.47345482362E+03  0.47345482362E+03  0.00000000000E+00 0.  1.
         25    1    1    2    0    0  0.11388960100E+03  0.43989937937E+02  0.80874546262E+02  0.19253999088E+03  0.12500000000E+03 0.  0.
         25    1    1    2    0    0  0.11434771169E+02  0.81952029514E+02  0.31254714825E+02  0.15312983489E+03  0.12500000000E+03 0.  0.
         25    1    1    2    0    0 -0.12532437216E+03 -0.12594196745E+03 -0.32360728956E+03  0.38976179300E+03  0.12500000000E+03 0.  0.
</event>
<event>
 5    0  0.5631475E-005  0.2932173E+03  0.7546771E-02  0.1088681E+00
         21   -1    0    0  502  501  0.00000000000E+00  0.00000000000E+00  0.13955526852E+03  0.13955526852E+03  0.00000000000E+00 0.  1.
         21   -1    0    0  501  502 -0.00000000000E+00 -0.00000000000E+00 -0.61607389609E+03  0.61607389609E+03  0.00000000000E+00 0.  1.
         25    1    1    2    0    0 -0.22660300537E+02  0.47659001530E+02 -0.24131278730E+03  0.27684242984E+03  0.12500000000E+03 0.  0.
         25    1    1    2    0    0  0.11234021688E+03 -0.14273202001E+03 -0.19311070859E+03  0.29310322352E+03  0.12500000000E+03 0.  0.
         25    1    1    2    0    0 -0.89679916339E+02  0.95073018484E+02 -0.42095131679E+02  0.18568351125E+03  0.12500000000E+03 0.  0.
</event>
<event>
 5    0  0.5631475E-005  0.2456649E+03  0.7546771E-02  0.1116076E+00
         21   -1    0    0  502  501  0.00000000000E+00  0.00000000000E+00  0.52412115634E+03  0.52412115634E+03  0.00000000000E+00 0. -1.
         21   -1    0    0  501  502 -0.00000000000E+00 -0.00000000000E+00 -0.11514746242E+03  0.11514746242E+03  0.00000000000E+00 0. -1.
         25    1    1    2    0    0  0.11183284234E+03 -0.71424265210E+02  0.14065331649E+03  0.23025283001E+03  0.12500000000E+03 0.  0.
         25    1    1    2    0    0 -0.10064380869E+03  0.15925726864E+02  0.19626984068E+03  0.25402687922E+03  0.12500000000E+03 0.  0.
         25    1    1    2    0    0 -0.11189033651E+02  0.55498538346E+02  0.72050536743E+02  0.15498890953E+03  0.12500000000E+03 0.  0.
</event>
<event>
 5    0  0.6274950E-005  0.2735461E+03  0.7546771E-02  0.1099267E+00
         21   -1    0    0  502  501  0.00000000000E+00  0.00000000000E+00  0.22040566406E+03  0.22040566406E+03  0.00000000000E+00 0. -1.
         21   -1    0    0  501  502 -0.00000000000E+00 -0.00000000000E+00 -0.33949888735E+03  0.33949888735E+03  0.00000000000E+00 0. -1.
         25    1    1    2    0    0  0.54549697069E+02  0.18988643106E+02 -0.40583927533E+01  0.13775960427E+03  0.12500000000E+03 0.  0.
         25    1    1    2    0    0  0.13055900684E+03 -0.52054800638E+01 -0.33091939781E+02  0.18382825617E+03  0.12500000000E+03 0.  0.
         25    1    1    2    0    0 -0.18510870391E+03 -0.13783163042E+02 -0.81942890760E+02  0.23831669096E+03  0.12500000000E+03 0.  0.
</event>
<event>
 5    0  0.5631475E-005  0.3059736E+03  0.7546771E-02  0.1082292E+00
         21   -1    0    0  502  501  0.00000000000E+00  0.00000000000E+00  0.59183101820E+03  0.59183101820E+03  0.00000000000E+00 0.  1.
         21   -1    0    0  501  502 -0.00000000000E+00 -0.00000000000E+00 -0.15818677742E+03  0.15818677742E+03  0.00000000000E+00 0.  1.
         25    1    1    2    0    0  0.77567938625E+01  0.56512425350E+02  0.32953167036E+03  0.35702933190E+03  0.12500000000E+03 0.  0.
         25    1    1    2    0    0 -0.71834947710E+01  0.11252248936E+03  0.54985430875E+02  0.17709124997E+03  0.12500000000E+03 0.  0.
         25    1    1    2    0    0 -0.57329909151E+00 -0.16903491471E+03  0.49127139553E+02  0.21589721374E+03  0.12500000000E+03 0.  0.
</event>
<event>
 5    0  0.5631475E-005  0.3975674E+03  0.7546771E-02  0.1044625E+00
         21   -1    0    0  502  501  0.00000000000E+00  0.00000000000E+00  0.61733884216E+03  0.61733884216E+03  0.00000000000E+00 0. -1.
         21   -1    0    0  501  502 -0.00000000000E+00 -0.00000000000E+00 -0.25603413515E+03  0.25603413515E+03  0.00000000000E+00 0. -1.
         25    1    1    2    0    0  0.66081008923E+02 -0.55285386626E+02  0.17542994335E+03  0.23199965245E+03  0.12500000000E+03 0.  0.
         25    1    1    2    0    0  0.24333552398E+03  0.60102498292E+02  0.86956594027E+02  0.29327621243E+03  0.12500000000E+03 0.  0.
         25    1    1    2    0    0 -0.30941653291E+03 -0.48171116655E+01  0.98918169634E+02  0.34809711243E+03  0.12500000000E+03 0.  0.
</event>
<event>
 5    0  0.5631475E-005  0.2545115E+03  0.7546771E-02  0.1110486E+00
         21   -1    0    0  502  501  0.00000000000E+00  0.00000000000E+00  0.44455818822E+03  0.44455818822E+03  0.00000000000E+00 0.  1.
         21   -1    0    0  501  502 -0.00000000000E+00 -0.00000000000E+00 -0.14570888716E+03  0.14570888716E+03  0.00000000000E+00 0.  1.
         25    1    1    2    0    0 -0.23579356053E+02 -0.10492279774E+03  0.17973921952E+03  0.24391795045E+03  0.12500000000E+03 0.  0.
         25    1    1    2    0    0 -0.71940672604E+00  0.14117345083E+03  0.42177232999E+02  0.19322106445E+03  0.12500000000E+03 0.  0.
         25    1    1    2    0    0  0.24298762779E+02 -0.36250653085E+02  0.76932848533E+02  0.15312806048E+03  0.12500000000E+03 0.  0.
</event>
<event>
 5    0  0.5631475E-005  0.3315478E+03  0.7546771E-02  0.1070454E+00
         21   -1    0    0  502  501  0.00000000000E+00  0.00000000000E+00  0.86378038159E+03  0.86378038159E+03  0.00000000000E+00 0.  1.
         21   -1    0    0  501  502 -0.00000000000E+00 -0.00000000000E+00 -0.12725914561E+03  0.12725914561E+03  0.00000000000E+00 0.  1.
         25    1    1    2    0    0 -0.10793378416E+03 -0.12107141727E+03  0.13452167863E+02  0.20521683816E+03  0.12500000000E+03 0.  0.
         25    1    1    2    0    0  0.73860133225E+02  0.10020231098E+03  0.40613593953E+03  0.44279478744E+03  0.12500000000E+03 0.  0.
         25    1    1    2    0    0  0.34073650933E+02  0.20869106291E+02  0.31693312858E+03  0.34302790160E+03  0.12500000000E+03 0.  0.
</event>
<event>
 5    0  0.5631475E-005  0.3408794E+03  0.7546771E-02  0.1066422E+00
         21   -1    0    0  502  501  0.00000000000E+00  0.00000000000E+00  0.47449180445E+03  0.47449180445E+03  0.00000000000E+00 0.  1.
         21   -1    0    0  501  502 -0.00000000000E+00 -0.00000000000E+00 -0.24489105446E+03  0.24489105446E+03  0.00000000000E+00 0.  1.
         25    1    1    2    0    0  0.20901990292E+02 -0.63243629571E+02  0.10758455997E+02  0.14204715504E+03  0.12500000000E+03 0.  0.
         25    1    1    2    0    0  0.13372735582E+03  0.12569019030E+03 -0.59247281625E+02  0.22981790620E+03  0.12500000000E+03 0.  0.
         25    1    1    2    0    0 -0.15462934611E+03 -0.62446560732E+02  0.27808957562E+03  0.34751779766E+03  0.12500000000E+03 0.  0.
</event>
<event>
 5    0  0.6515391E-005  0.2805727E+03  0.7546771E-02  0.1095377E+00
         21   -1    0    0  502  501  0.00000000000E+00  0.00000000000E+00  0.31170421207E+03  0.31170421207E+03  0.00000000000E+00 0. -1.
         21   -1    0    0  501  502 -0.00000000000E+00 -0.00000000000E+00 -0.25255036388E+03  0.25255036388E+03  0.00000000000E+00 0. -1.
         25    1    1    2    0    0 -0.25968605018E+02 -0.58591813775E+02 -0.83547697866E+02  0.16343985715E+03  0.12500000000E+03 0.  0.
         25    1    1    2    0    0 -0.81639404363E+02  0.42642703687E+02 -0.33599327328E+02  0.15886254222E+03  0.12500000000E+03 0.  0.
         25    1    1    2    0    0  0.10760800938E+03  0.15949110087E+02  0.17630087339E+03  0.24195217658E+03  0.12500000000E+03 0.  0.
</event>
<event>
 5    0  0.5631475E-005  0.5447447E+03  0.7546771E-02  0.1002718E+00
         21   -1    0    0  502  501  0.00000000000E+00  0.00000000000E+00  0.12897934867E+04  0.12897934867E+04  0.00000000000E+00 0. -1.
         21   -1    0    0  501  502 -0.00000000000E+00 -0.00000000000E+00 -0.23007311579E+03  0.23007311579E+03  0.00000000000E+00 0. -1.
         25    1    1    2    0    0 -0.34966986575E+03 -0.54955880012E+01  0.21660992905E+03  0.42993496934E+03  0.12500000000E+03 0.  0.
         25    1    1    2    0    0  0.44928053110E+02  0.20662380064E+03  0.12718773339E+03  0.27661099847E+03  0.12500000000E+03 0.  0.
         25    1    1    2    0    0  0.30474181264E+03 -0.20112821264E+03  0.71592270843E+03  0.81332063465E+03  0.12500000000E+03 0.  0.
</event>
<event>
 5    0  0.5631475E-005  0.2788184E+03  0.7546771E-02  0.1096336E+00
         21   -1    0    0  502  501  0.00000000000E+00  0.00000000000E+00  0.60624975045E+03  0.60624975045E+03  0.00000000000E+00 0. -1.
         21   -1    0    0  501  502 -0.00000000000E+00 -0.00000000000E+00 -0.12823047115E+03  0.12823047115E+03  0.00000000000E+00 0. -1.
         25    1    1    2    0    0 -0.15552166062E+03  0.81744973334E+01  0.23690074310E+03  0.30983991255E+03  0.12500000000E+03 0.  0.
         25    1    1    2    0    0 -0.44063714099E+01  0.45747897835E+02  0.55266408103E+02  0.14419314176E+03  0.12500000000E+03 0.  0.
         25    1    1    2    0    0  0.15992803203E+03 -0.53922395168E+02  0.18585212809E+03  0.28044716730E+03  0.12500000000E+03 0.  0.
</event>
<event>
 5    0  0.5631475E-005  0.2561975E+03  0.7546771E-02  0.1109450E+00
         21   -1    0    0  502  501  0.00000000000E+00  0.00000000000E+00  0.53442210337E+03  0.53442210337E+03  0.00000000000E+00 0.  1.
         21   -1    0    0  501  502 -0.00000000000E+00 -0.00000000000E+00 -0.12281894220E+03  0.12281894220E+03  0.00000000000E+00 0.  1.
         25    1    1    2    0    0  0.77334799639E+02 -0.10387539194E+03  0.17769559381E+03  0.25292586334E+03  0.12500000000E+03 0.  0.
         25    1    1    2    0    0 -0.37240498209E+02 -0.13421071508E+02  0.29214881974E+02  0.13433349990E+03  0.12500000000E+03 0.  0.
         25    1    1    2    0    0 -0.40094301430E+02  0.11729646345E+03  0.20469268539E+03  0.26998168233E+03  0.12500000000E+03 0.  0.
</event>
<event>
 5    0  0.5631475E-005  0.2886851E+03  0.7546771E-02  0.1091038E+00
         21   -1    0    0  502  501  0.00000000000E+00  0.00000000000E+00  0.72110236220E+03  0.72110236220E+03  0.00000000000E+00 0.  1.
         21   -1    0    0  501  502 -0.00000000000E+00 -0.00000000000E+00 -0.11557175619E+03  0.11557175619E+03  0.00000000000E+00 0.  1.
         25    1    1    2    0    0  0.69927897562E+02  0.22592320077E+02  0.26690930726E+03  0.30375302811E+03  0.12500000000E+03 0.  0.
         25    1    1    2    0    0 -0.10128459080E+02  0.14083376464E+03  0.10466931418E+03  0.21567892868E+03  0.12500000000E+03 0.  0.
         25    1    1    2    0    0 -0.59799438482E+02 -0.16342608472E+03  0.23395198457E+03  0.31724216159E+03  0.12500000000E+03 0.  0.
</event>
<event>
 5    0  0.5631475E-005  0.3461607E+03  0.7546771E-02  0.1064202E+00
         21   -1    0    0  502  501  0.00000000000E+00  0.00000000000E+00  0.14834098105E+03  0.14834098105E+03  0.00000000000E+00 0. -1.
         21   -1    0    0  501  502 -0.00000000000E+00 -0.00000000000E+00 -0.80778241258E+03  0.80778241258E+03  0.00000000000E+00 0. -1.
         25    1    1    2    0    0 -0.10438524633E+03  0.18074474310E+02 -0.34587091077E+02  0.16746412494E+03  0.12500000000E+03 0.  0.
         25    1    1    2    0    0  0.76920754018E+02  0.18779627704E+03 -0.29311089752E+03  0.37778729771E+03  0.12500000000E+03 0.  0.
         25    1    1    2    0    0  0.27464492309E+02 -0.20587075135E+03 -0.33174344294E+03  0.41087197097E+03  0.12500000000E+03 0.  0.
</event>
<event>
 5    0  0.5631475E-005  0.2716971E+03  0.7546771E-02  0.1100312E+00
         21   -1    0    0  502  501  0.00000000000E+00  0.00000000000E+00  0.25307883696E+03  0.25307883696E+03  0.00000000000E+00 0.  1.
         21   -1    0    0  501  502 -0.00000000000E+00 -0.00000000000E+00 -0.29168513374E+03  0.29168513374E+03  0.00000000000E+00 0.  1.
         25    1    1    2    0    0  0.44675724957E+02 -0.41513922517E+02 -0.36247545072E+02  0.14372964443E+03  0.12500000000E+03 0.  0.
         25    1    1    2    0    0  0.32766489000E+02  0.13811840658E+03 -0.84142851688E+02  0.20701535336E+03  0.12500000000E+03 0.  0.
         25    1    1    2    0    0 -0.77442213957E+02 -0.96604484059E+02  0.81784099976E+02  0.19401897292E+03  0.12500000000E+03 0.  0.
</event>
<event>
 5    0  0.5631475E-005  0.3724902E+03  0.7546771E-02  0.1053745E+00
         21   -1    0    0  502  501  0.00000000000E+00  0.00000000000E+00  0.19703801508E+03  0.19703801508E+03  0.00000000000E+00 0.  1.
         21   -1    0    0  501  502 -0.00000000000E+00 -0.00000000000E+00 -0.70417333512E+03  0.70417333512E+03  0.00000000000E+00 0.  1.
         25    1    1    2    0    0  0.33472536089E+02 -0.13728062789E+03 -0.46348791324E+03  0.50041225723E+03  0.12500000000E+03 0.  0.
         25    1    1    2    0    0 -0.33662690521E+02  0.78930251762E+02 -0.15993181431E+03  0.22037773618E+03  0.12500000000E+03 0.  0.
         25    1    1    2    0    0  0.19015443219E+00  0.58350376129E+02  0.11628440751E+03  0.18042135678E+03  0.12500000000E+03 0.  0.
</event>
<event>
 5    0  0.5631475E-005  0.4435388E+03  0.7546771E-02  0.1029667E+00
         21   -1    0    0  502  501  0.00000000000E+00  0.00000000000E+00  0.35584431790E+03  0.35584431790E+03  0.00000000000E+00 0. -1.
         21   -1    0    0  501  502 -0.00000000000E+00 -0.00000000000E+00 -0.55284483057E+03  0.55284483057E+03  0.00000000000E+00 0. -1.
         25    1    1    2    0    0 -0.51403096653E+02 -0.10055804289E+03 -0.30735789528E+03  0.35049689603E+03  0.12500000000E+03 0.  0.
         25    1    1    2    0    0  0.16965891512E+03  0.23725334874E+03  0.11731444721E+03  0.33832082185E+03  0.12500000000E+03 0.  0.
         25    1    1    2    0    0 -0.11825581847E+03 -0.13669530585E+03 -0.69570645990E+01  0.21987143060E+03  0.12500000000E+03 0.  0.
</event>
<event>
 5    0  0.5631475E-005  0.2098730E+03  0.7546771E-02  0.1141667E+00
         21   -1    0    0  502  501  0.00000000000E+00  0.00000000000E+00  0.10924206521E+03  0.10924206521E+03  0.00000000000E+00 0.  1.
         21   -1    0    0  501  502 -0.00000000000E+00 -0.00000000000E+00 -0.40320247574E+03  0.40320247574E+03  0.00000000000E+00 0.  1.
         25    1    1    2    0    0  0.51842444328E+02 -0.25415605942E+02 -0.57572588155E+02  0.14924206835E+03  0.12500000000E+03 0.  0.
         25    1    1    2    0    0  0.26705508821E+01 -0.29100251453E+02 -0.12134799809E+03  0.17664736940E+03  0.12500000000E+03 0.  0.
         25    1    1    2    0    0 -0.54512995211E+02  0.54515857395E+02 -0.11503982429E+03  0.18655510319E+03  0.12500000000E+03 0.  0.
</event>
<event>
 5    0  0.5631475E-005  0.2922027E+03  0.7546771E-02  0.1089205E+00
         21   -1    0    0  502  501  0.00000000000E+00  0.00000000000E+00  0.84537579234E+02  0.84537579234E+02  0.00000000000E+00 0. -1.
         21   -1    0    0  501  502 -0.00000000000E+00 -0.00000000000E+00 -0.10099933625E+04  0.10099933625E+04  0.00000000000E+00 0. -1.
         25    1    1    2    0    0  0.10957432803E+03  0.14533496609E+03 -0.31629386409E+03  0.38574031964E+03  0.12500000000E+03 0.  0.
         25    1    1    2    0    0 -0.63417998147E+02 -0.17297683031E+03 -0.42523686346E+03  0.47999397534E+03  0.12500000000E+03 0.  0.
         25    1    1    2    0    0 -0.46156329883E+02  0.27641864217E+02 -0.18392505568E+03  0.22879664672E+03  0.12500000000E+03 0.  0.
</event>
<event>
 5    0  0.5631475E-005  0.2966986E+03  0.7546771E-02  0.1086903E+00
         21   -1    0    0  502  501  0.00000000000E+00  0.00000000000E+00  0.18333997026E+04  0.18333997026E+04  0.00000000000E+00 0. -1.
         21   -1    0    0  501  502 -0.00000000000E+00 -0.00000000000E+00 -0.48014648590E+02  0.48014648590E+02  0.00000000000E+00 0. -1.
         25    1    1    2    0    0  0.36567566540E+02  0.14870093305E+03  0.30976406077E+03  0.36746146432E+03  0.12500000000E+03 0.  0.
         25    1    1    2    0    0 -0.48234647699E+02 -0.38456477609E+02  0.10036099233E+04  0.10132439785E+04  0.12500000000E+03 0.  0.
         25    1    1    2    0    0  0.11667081159E+02 -0.11024445544E+03  0.47201106992E+03  0.50070890831E+03  0.12500000000E+03 0.  0.
</event>
<event>
 5    0  0.5631475E-005  0.2783888E+03  0.7546771E-02  0.1096572E+00
         21   -1    0    0  502  501  0.00000000000E+00  0.00000000000E+00  0.66015871416E+03  0.66015871416E+03  0.00000000000E+00 0. -1.
         21   -1    0    0  501  502 -0.00000000000E+00 -0.00000000000E+00 -0.11739647409E+03  0.11739647409E+03  0.00000000000E+00 0. -1.
         25    1    1    2    0    0  0.79748336871E+02 -0.75880573748E+02  0.25449253592E+03  0.30415310215E+03  0.12500000000E+03 0.  0.
         25    1    1    2    0    0 -0.13967723574E+03  0.33926471373E+02  0.26553671601E+03  0.32679578209E+03  0.12500000000E+03 0.  0.
         25    1    1    2    0    0  0.59928898872E+02  0.41954102375E+02  0.22732988149E+02  0.14660630401E+03  0.12500000000E+03 0.  0.
</event>
<event>
 5    0  0.5631475E-005  0.2530788E+03  0.7546771E-02  0.1111374E+00
         21   -1    0    0  502  501  0.00000000000E+00  0.00000000000E+00  0.46911849531E+03  0.46911849531E+03  0.00000000000E+00 0.  1.
         21   -1    0    0  501  502 -0.00000000000E+00 -0.00000000000E+00 -0.13653025531E+03  0.13653025531E+03  0.00000000000E+00 0.  1.
         25    1    1    2    0    0 -0.84964048790E+02 -0.13828690390E+02  0.17112819820E+03  0.22873561700E+03  0.12500000000E+03 0.  0.
         25    1    1    2    0    0  0.15510467450E+02  0.45929674897E+02 -0.28420914406E+02  0.13705056736E+03  0.12500000000E+03 0.  0.
         25    1    1    2    0    0  0.69453581340E+02 -0.32100984507E+02  0.18988095620E+03  0.23986256626E+03  0.12500000000E+03 0.  0.
</event>
<event>
 5    0  0.5631475E-005  0.9826379E+03  0.7546771E-02  0.9327795E-01
         21   -1    0    0  502  501  0.00000000000E+00  0.00000000000E+00  0.13681743758E+04  0.13681743758E+04  0.00000000000E+00 0.  1.
         21   -1    0    0  501  502 -0.00000000000E+00 -0.00000000000E+00 -0.70574135109E+03  0.70574135109E+03  0.00000000000E+00 0.  1.
         25    1    1    2    0    0 -0.99292568368E+02 -0.14404352800E+03 -0.26808006265E+02  0.21668230498E+03  0.12500000000E+03 0.  0.
         25    1    1    2    0    0 -0.60905229531E+03  0.54426004046E+03  0.61638119914E+03  0.10308804357E+04  0.12500000000E+03 0.  0.
         25    1    1    2    0    0  0.70834486368E+03 -0.40021651246E+03  0.72859831857E+02  0.82635298623E+03  0.12500000000E+03 0.  0.
</event>
<event>
 5    0  0.5631475E-005  0.2604575E+03  0.7546771E-02  0.1106869E+00
         21   -1    0    0  502  501  0.00000000000E+00  0.00000000000E+00  0.40183308149E+03  0.40183308149E+03  0.00000000000E+00 0.  1.
         21   -1    0    0  501  502 -0.00000000000E+00 -0.00000000000E+00 -0.16882163237E+03  0.16882163237E+03  0.00000000000E+00 0.  1.
         25    1    1    2    0    0 -0.35767453350E+02 -0.19546091440E+02  0.80680204022E+02  0.15425840571E+03  0.12500000000E+03 0.  0.
         25    1    1    2    0    0  0.98756325664E+02  0.10744586293E+03  0.16128559827E+03  0.25086942725E+03  0.12500000000E+03 0.  0.
         25    1    1    2    0    0 -0.62988872314E+02 -0.87899771490E+02 -0.89543531645E+01  0.16552688091E+03  0.12500000000E+03 0.  0.
</event>
<event>
 5    0  0.5631475E-005  0.2797427E+03  0.7546771E-02  0.1095830E+00
         21   -1    0    0  502  501  0.00000000000E+00  0.00000000000E+00  0.62168751800E+02  0.62168751800E+02  0.00000000000E+00 0. -1.
         21   -1    0    0  501  502 -0.00000000000E+00 -0.00000000000E+00 -0.12587672951E+04  0.12587672951E+04  0.00000000000E+00 0. -1.
         25    1    1    2    0    0 -0.56298048350E+01 -0.12223922976E+03 -0.16857794026E+03  0.24293547690E+03  0.12500000000E+03 0.  0.
         25    1    1    2    0    0 -0.76243779279E+02  0.47720256804E+02 -0.41520659277E+03  0.44284517777E+03  0.12500000000E+03 0.  0.
         25    1    1    2    0    0  0.81873584114E+02  0.74518972951E+02 -0.61281401027E+03  0.63515539223E+03  0.12500000000E+03 0.  0.
</event>
<event>
 5    0  0.5631475E-005  0.2448414E+03  0.7546771E-02  0.1116609E+00
         21   -1    0    0  502  501  0.00000000000E+00  0.00000000000E+00  0.27249420394E+03  0.27249420394E+03  0.00000000000E+00 0.  1.
         21   -1    0    0  501  502 -0.00000000000E+00 -0.00000000000E+00 -0.21999477945E+03  0.21999477945E+03  0.00000000000E+00 0.  1.
         25    1    1    2    0    0  0.43793894945E+02  0.23304202608E+02 -0.41129763211E+02  0.14063302783E+03  0.12500000000E+03 0.  0.
         25    1    1    2    0    0  0.39139052755E+02 -0.27277614831E+02 -0.51244779011E+02  0.14327233193E+03  0.12500000000E+03 0.  0.
         25    1    1    2    0    0 -0.82932947700E+02  0.39734122221E+01  0.14487396671E+03  0.20858362364E+03  0.12500000000E+03 0.  0.
</event>
<event>
 5    0  0.5631475E-005  0.3632442E+03  0.7546771E-02  0.1057307E+00
         21   -1    0    0  502  501  0.00000000000E+00  0.00000000000E+00  0.17571918120E+03  0.17571918120E+03  0.00000000000E+00 0.  1.
         21   -1    0    0  501  502 -0.00000000000E+00 -0.00000000000E+00 -0.75089327286E+03  0.75089327286E+03  0.00000000000E+00 0.  1.
         25    1    1    2    0    0 -0.38058172269E+02  0.13613211860E+03 -0.31463738819E+03  0.36688153979E+03  0.12500000000E+03 0.  0.
         25    1    1    2    0    0  0.27312077578E+02 -0.23465584604E+01 -0.33740993630E+03  0.36086274542E+03  0.12500000000E+03 0.  0.
         25    1    1    2    0    0  0.10746094691E+02 -0.13378556014E+03  0.76873232839E+02  0.19886816884E+03  0.12500000000E+03 0.  0.
</event>
<event>
 5    0  0.5631475E-005  0.3266356E+03  0.7546771E-02  0.1072635E+00
         21   -1    0    0  502  501  0.00000000000E+00  0.00000000000E+00  0.14412249755E+03  0.14412249755E+03  0.00000000000E+00 0.  1.
         21   -1    0    0  501  502 -0.00000000000E+00 -0.00000000000E+00 -0.74027864469E+03  0.74027864469E+03  0.00000000000E+00 0.  1.
         25    1    1    2    0    0 -0.26544468997E+02 -0.89063929295E+02 -0.18920093522E+03  0.24506934983E+03  0.12500000000E+03 0.  0.
         25    1    1    2    0    0  0.21396113627E+02  0.21990180770E+03 -0.80960067714E+02  0.26644723919E+03  0.12500000000E+03 0.  0.
         25    1    1    2    0    0  0.51483553699E+01 -0.13083787841E+03 -0.32599514420E+03  0.37288455322E+03  0.12500000000E+03 0.  0.
</event>
<event>
 5    0  0.5631475E-005  0.3743092E+03  0.7546771E-02  0.1053057E+00
         21   -1    0    0  502  501  0.00000000000E+00  0.00000000000E+00  0.11425859951E+04  0.11425859951E+04  0.00000000000E+00 0. -1.
         21   -1    0    0  501  502 -0.00000000000E+00 -0.00000000000E+00 -0.12262306861E+03  0.12262306861E+03  0.00000000000E+00 0. -1.
         25    1    1    2    0    0 -0.17841463937E+03  0.52624478238E+02  0.18682868778E+03  0.29177230477E+03  0.12500000000E+03 0.  0.
         25    1    1    2    0    0 -0.23242104838E+02 -0.15077044279E+03  0.16321386812E+03  0.25599939180E+03  0.12500000000E+03 0.  0.
         25    1    1    2    0    0  0.20165674421E+03  0.98145964549E+02  0.66992037056E+03  0.71743736711E+03  0.12500000000E+03 0.  0.
</event>
<event>
 5    0  0.5631475E-005  0.2964928E+03  0.7546771E-02  0.1087007E+00
         21   -1    0    0  502  501  0.00000000000E+00  0.00000000000E+00  0.94305755387E+02  0.94305755387E+02  0.00000000000E+00 0. -1.
         21   -1    0    0  501  502 -0.00000000000E+00 -0.00000000000E+00 -0.93215917435E+03  0.93215917435E+03  0.00000000000E+00 0. -1.
         25    1    1    2    0    0 -0.13255952209E+03 -0.93149467471E+02 -0.13875085170E+03  0.24723601889E+03  0.12500000000E+03 0.  0.
         25    1    1    2    0    0  0.16592289895E+02  0.31241795374E+02 -0.46652244739E+03  0.48427218357E+03  0.12500000000E+03 0.  0.
         25    1    1    2    0    0  0.11596723220E+03  0.61907672097E+02 -0.23258011986E+03  0.29495672727E+03  0.12500000000E+03 0.  0.
</event>
<event>
 5    0  0.5631475E-005  0.2793897E+03  0.7546771E-02  0.1096023E+00
         21   -1    0    0  502  501  0.00000000000E+00  0.00000000000E+00  0.25676553636E+03  0.25676553636E+03  0.00000000000E+00 0.  1.
         21   -1    0    0  501  502 -0.00000000000E+00 -0.00000000000E+00 -0.30400721936E+03  0.30400721936E+03  0.00000000000E+00 0.  1.
         25    1    1    2    0    0 -0.46846199614E+02 -0.31477237755E+02 -0.21383302801E+03  0.25403729408E+03  0.12500000000E+03 0.  0.
         25    1    1    2    0    0  0.24613724808E+02  0.23456555384E+02  0.71987930699E+02  0.14820022809E+03  0.12500000000E+03 0.  0.
         25    1    1    2    0    0  0.22232474806E+02  0.80206823707E+01  0.94603414305E+02  0.15853523356E+03  0.12500000000E+03 0.  0.
</event>
<event>
 5    0  0.5631475E-005  0.2577370E+03  0.7546771E-02  0.1108511E+00
         21   -1    0    0  502  501  0.00000000000E+00  0.00000000000E+00  0.19775757987E+03  0.19775757987E+03  0.00000000000E+00 0.  1.
         21   -1    0    0  501  502 -0.00000000000E+00 -0.00000000000E+00 -0.33590798660E+03  0.33590798660E+03  0.00000000000E+00 0.  1.
         25    1    1    2    0    0 -0.11941733126E+03 -0.21957051228E+02 -0.28781257941E+02  0.17662381468E+03  0.12500000000E+03 0.  0.
         25    1    1    2    0    0  0.10198394198E+03 -0.77522652973E+02 -0.63609490094E+02  0.18995171327E+03  0.12500000000E+03 0.  0.
         25    1    1    2    0    0  0.17433389283E+02  0.99479704201E+02 -0.45759658699E+02  0.16709003852E+03  0.12500000000E+03 0.  0.
</event>
<event>
 5    0  0.7359887E-005  0.4306515E+03  0.7546771E-02  0.1033654E+00
         21   -1    0    0  502  501  0.00000000000E+00  0.00000000000E+00  0.19959725184E+03  0.19959725184E+03  0.00000000000E+00 0.  1.
         21   -1    0    0  501  502 -0.00000000000E+00 -0.00000000000E+00 -0.92917447387E+03  0.92917447387E+03  0.00000000000E+00 0.  1.
         25    1    1    2    0    0 -0.11778501375E+03 -0.16203112282E+03 -0.39117090768E+02  0.23933771332E+03  0.12500000000E+03 0.  0.
         25    1    1    2    0    0  0.25978779516E+03  0.86042832972E+01 -0.23148185007E+03  0.36982776953E+03  0.12500000000E+03 0.  0.
         25    1    1    2    0    0 -0.14200278141E+03  0.15342683953E+03 -0.45897828119E+03  0.51960624286E+03  0.12500000000E+03 0.  0.
</event>
<event>
 5    0  0.5631475E-005  0.2637582E+03  0.7546771E-02  0.1104906E+00
         21   -1    0    0  502  501  0.00000000000E+00  0.00000000000E+00  0.11679825513E+03  0.11679825513E+03  0.00000000000E+00 0. -1.
         21   -1    0    0  501  502 -0.00000000000E+00 -0.00000000000E+00 -0.59562872543E+03  0.59562872543E+03  0.00000000000E+00 0. -1.
         25    1    1    2    0    0  0.28403403292E+02  0.42379705167E+02 -0.37017794357E+02  0.13999324922E+03  0.12500000000E+03 0.  0.
         25    1    1    2    0    0 -0.79872125102E+02  0.90192965456E+02 -0.18984517999E+03  0.25725574775E+03  0.12500000000E+03 0.  0.
         25    1    1    2    0    0  0.51468721811E+02 -0.13257267062E+03 -0.25196749595E+03  0.31517798358E+03  0.12500000000E+03 0.  0.
</event>
<event>
 5    0  0.5631475E-005  0.4268766E+03  0.7546771E-02  0.1034851E+00
         21   -1    0    0  502  501  0.00000000000E+00  0.00000000000E+00  0.44743059610E+03  0.44743059610E+03  0.00000000000E+00 0. -1.
         21   -1    0    0  501  502 -0.00000000000E+00 -0.00000000000E+00 -0.40726672939E+03  0.40726672939E+03  0.00000000000E+00 0. -1.
         25    1    1    2    0    0 -0.19711693254E+03  0.46429947351E+02 -0.10997611059E+03  0.26216515788E+03  0.12500000000E+03 0.  0.
         25    1    1    2    0    0 -0.70284362779E+02  0.85080208884E+01  0.23949279113E+03  0.27927419336E+03  0.12500000000E+03 0.  0.
         25    1    1    2    0    0  0.26740129532E+03 -0.54937968239E+02 -0.89352813841E+02  0.31325797425E+03  0.12500000000E+03 0.  0.
</event>
<event>
 5    0  0.6795337E-005  0.2681447E+03  0.7546771E-02  0.1102346E+00
         21   -1    0    0  502  501  0.00000000000E+00  0.00000000000E+00  0.11334245041E+03  0.11334245041E+03  0.00000000000E+00 0.  1.
         21   -1    0    0  501  502 -0.00000000000E+00 -0.00000000000E+00 -0.63437448728E+03  0.63437448728E+03  0.00000000000E+00 0.  1.
         25    1    1    2    0    0  0.53115171181E+02 -0.11605251772E+03 -0.20968839146E+03  0.27546983463E+03  0.12500000000E+03 0.  0.
         25    1    1    2    0    0 -0.26160867356E+02  0.13131607816E+03 -0.28807603028E+03  0.34138116905E+03  0.12500000000E+03 0.  0.
         25    1    1    2    0    0 -0.26954303825E+02 -0.15263560436E+02 -0.23267615137E+02  0.13086593402E+03  0.12500000000E+03 0.  0.
</event>
<event>
 5    0  0.5631475E-005  0.2260297E+03  0.7546771E-02  0.1129466E+00
         21   -1    0    0  502  501  0.00000000000E+00  0.00000000000E+00  0.22149955823E+03  0.22149955823E+03  0.00000000000E+00 0.  1.
         21   -1    0    0  501  502 -0.00000000000E+00 -0.00000000000E+00 -0.23065253729E+03  0.23065253729E+03  0.00000000000E+00 0.  1.
         25    1    1    2    0    0 -0.49401105778E+02  0.10536204643E+03  0.57950976186E+01  0.17088069884E+03  0.12500000000E+03 0.  0.
         25    1    1    2    0    0  0.16344333395E+02 -0.77660368885E+02 -0.16893659551E+02  0.14902572215E+03  0.12500000000E+03 0.  0.
         25    1    1    2    0    0  0.33056772384E+02 -0.27701677543E+02  0.19455828749E+01  0.13224567453E+03  0.12500000000E+03 0.  0.
</event>
<event>
 5    0  0.5631475E-005  0.3232748E+03  0.7546771E-02  0.1074152E+00
         21   -1    0    0  502  501  0.00000000000E+00  0.00000000000E+00  0.26028104552E+03  0.26028104552E+03  0.00000000000E+00 0. -1.
         21   -1    0    0  501  502 -0.00000000000E+00 -0.00000000000E+00 -0.40151434744E+03  0.40151434744E+03  0.00000000000E+00 0. -1.
         25    1    1    2    0    0 -0.11609994427E+03 -0.15165757022E+03 -0.44201325289E+02  0.23250370496E+03  0.12500000000E+03 0.  0.
         25    1    1    2    0    0 -0.60154436982E+02 -0.22294398902E+02 -0.25193464950E+02  0.14274210026E+03  0.12500000000E+03 0.  0.
         25    1    1    2    0    0  0.17625438125E+03  0.17395196912E+03 -0.71838511688E+02  0.28654958774E+03  0.12500000000E+03 0.  0.
</event>
<event>
 5    0  0.5631475E-005  0.2375261E+03  0.7546771E-02  0.1121452E+00
         21   -1    0    0  502  501  0.00000000000E+00  0.00000000000E+00  0.92003060907E+03  0.92003060907E+03  0.00000000000E+00 0.  1.
         21   -1    0    0  501  502 -0.00000000000E+00 -0.00000000000E+00 -0.61322594451E+02  0.61322594451E+02  0.00000000000E+00 0.  1.
         25    1    1    2    0    0 -0.71846717438E+02  0.69715909728E+02  0.44514248349E+03  0.47307408456E+03  0.12500000000E+03 0.  0.
         25    1    1    2    0    0  0.46303768907E+02 -0.61369659809E+02  0.31271488823E+03  0.34543577620E+03  0.12500000000E+03 0.  0.
         25    1    1    2    0    0  0.25542948531E+02 -0.83462499194E+01  0.10085064290E+03  0.16284334276E+03  0.12500000000E+03 0.  0.
</event>
<event>
 5    0  0.5631475E-005  0.3078860E+03  0.7546771E-02  0.1081364E+00
         21   -1    0    0  502  501  0.00000000000E+00  0.00000000000E+00  0.57348983340E+03  0.57348983340E+03  0.00000000000E+00 0.  1.
         21   -1    0    0  501  502 -0.00000000000E+00 -0.00000000000E+00 -0.16529293049E+03  0.16529293049E+03  0.00000000000E+00 0.  1.
         25    1    1    2    0    0  0.11048766906E+03 -0.81059583898E+01  0.10304033025E+03  0.19625376744E+03  0.12500000000E+03 0.  0.
         25    1    1    2    0    0 -0.15814671950E+03 -0.13949372108E+02 -0.70141345717E+01  0.20218597368E+03  0.12500000000E+03 0.  0.
         25    1    1    2    0    0  0.47659050440E+02  0.22055330498E+02  0.31217070723E+03  0.34034302277E+03  0.12500000000E+03 0.  0.
</event>
<event>
 5    0  0.5631475E-005  0.2852502E+03  0.7546771E-02  0.1092855E+00
         21   -1    0    0  502  501  0.00000000000E+00  0.00000000000E+00  0.19140159816E+03  0.19140159816E+03  0.00000000000E+00 0.  1.
         21   -1    0    0  501  502 -0.00000000000E+00 -0.00000000000E+00 -0.42511486751E+03  0.42511486751E+03  0.00000000000E+00 0.  1.
         25    1    1    2    0    0  0.32443381417E+02  0.40366260844E+02 -0.11585492904E+03  0.17812740551E+03  0.12500000000E+03 0.  0.
         25    1    1    2    0    0  0.13744425232E+03 -0.87515995046E+02 -0.70562611600E+02  0.21714984237E+03  0.12500000000E+03 0.  0.
         25    1    1    2    0    0 -0.16988763373E+03  0.47149734202E+02 -0.47295728716E+02  0.22123921778E+03  0.12500000000E+03 0.  0.
</event>
<event>
 5    0  0.5631475E-005  0.2751884E+03  0.7546771E-02  0.1098346E+00
         21   -1    0    0  502  501  0.00000000000E+00  0.00000000000E+00  0.62705054218E+03  0.62705054218E+03  0.00000000000E+00 0. -1.
         21   -1    0    0  501  502 -0.00000000000E+00 -0.00000000000E+00 -0.12076964841E+03  0.12076964841E+03  0.00000000000E+00 0. -1.
         25    1    1    2    0    0  0.83996655709E+02 -0.94443002875E+01  0.43750399857E+02  0.15711056765E+03  0.12500000000E+03 0.  0.
         25    1    1    2    0    0 -0.13444585846E+03  0.42282708538E+02  0.12582380823E+03  0.22653950432E+03  0.12500000000E+03 0.  0.
         25    1    1    2    0    0  0.50449202750E+02 -0.32838408250E+02  0.33670668569E+03  0.36417011863E+03  0.12500000000E+03 0.  0.
</event>
<event>
 5    0  0.6418980E-005  0.2955123E+03  0.7546771E-02  0.1087506E+00
         21   -1    0    0  502  501  0.00000000000E+00  0.00000000000E+00  0.67739233225E+03  0.67739233225E+03  0.00000000000E+00 0.  1.
         21   -1    0    0  501  502 -0.00000000000E+00 -0.00000000000E+00 -0.12891719728E+03  0.12891719728E+03  0.00000000000E+00 0.  1.
         25    1    1    2    0    0  0.38827101776E+02  0.14679673217E+02  0.34036217696E+03  0.36495814574E+03  0.12500000000E+03 0.  0.
         25    1    1    2    0    0  0.39937508511E+02 -0.12350492249E+03  0.18179591700E+03  0.25597504938E+03  0.12500000000E+03 0.  0.
         25    1    1    2    0    0 -0.78764610287E+02  0.10882524928E+03  0.26317041013E+02  0.18537633442E+03  0.12500000000E+03 0.  0.
</event>
<event>
 5    0  0.5631475E-005  0.2827597E+03  0.7546771E-02  0.1094191E+00
         21   -1    0    0  502  501  0.00000000000E+00  0.00000000000E+00  0.83602259024E+02  0.83602259024E+02  0.00000000000E+00 0.  1.
         21   -1    0    0  501  502 -0.00000000000E+00 -0.00000000000E+00 -0.95635054988E+03  0.95635054988E+03  0.00000000000E+00 0.  1.
         25    1    1    2    0    0  0.10155742745E+03 -0.10457760114E+03 -0.14257579343E+03  0.23917199377E+03  0.12500000000E+03 0.  0.
         25    1    1    2    0    0 -0.84455385408E+02  0.44346912314E+02 -0.21118852703E+03  0.26329632490E+03  0.12500000000E+03 0.  0.
         25    1    1    2    0    0 -0.17102042038E+02  0.60230688828E+02 -0.51898397040E+03  0.53748449024E+03  0.12500000000E+03 0.  0.
</event>
<event>
 5    0  0.5631475E-005  0.4456842E+03  0.7546771E-02  0.1029017E+00
         21   -1    0    0  502  501  0.00000000000E+00  0.00000000000E+00  0.20728648545E+03  0.20728648545E+03  0.00000000000E+00 0. -1.
         21   -1    0    0  501  502 -0.00000000000E+00 -0.00000000000E+00 -0.95826023037E+03  0.95826023037E+03  0.00000000000E+00 0. -1.
         25    1    1    2    0    0 -0.16371292819E+03  0.81248478622E+02 -0.81340265799E+03  0.84300185181E+03  0.12500000000E+03 0.  0.
         25    1    1    2    0    0  0.88867282977E+02 -0.10933687508E+02  0.42654582439E+02  0.15956613961E+03  0.12500000000E+03 0.  0.
         25    1    1    2    0    0  0.74845645212E+02 -0.70314791115E+02  0.19774330635E+02  0.16297872441E+03  0.12500000000E+03 0.  0.
</event>
<event>
 5    0  0.5631475E-005  0.3920899E+03  0.7546771E-02  0.1046554E+00
         21   -1    0    0  502  501  0.00000000000E+00  0.00000000000E+00  0.38458421226E+03  0.38458421226E+03  0.00000000000E+00 0. -1.
         21   -1    0    0  501  502 -0.00000000000E+00 -0.00000000000E+00 -0.39974216041E+03  0.39974216041E+03  0.00000000000E+00 0. -1.
         25    1    1    2    0    0 -0.16162456955E+03 -0.12980539320E+03 -0.56854636486E+02  0.24865516539E+03  0.12500000000E+03 0.  0.
         25    1    1    2    0    0 -0.27007936005E+02 -0.14219891084E+02 -0.15617109772E+03  0.20235129274E+03  0.12500000000E+03 0.  0.
         25    1    1    2    0    0  0.18863250555E+03  0.14402528429E+03  0.19786778606E+03  0.33331991453E+03  0.12500000000E+03 0.  0.
</event>
<event>
 5    0  0.6545705E-005  0.6225551E+03  0.7546771E-02  0.9859686E-01
         21   -1    0    0  502  501  0.00000000000E+00  0.00000000000E+00  0.45886771067E+03  0.45886771067E+03  0.00000000000E+00 0. -1.
         21   -1    0    0  501  502 -0.00000000000E+00 -0.00000000000E+00 -0.84463310091E+03  0.84463310091E+03  0.00000000000E+00 0. -1.
         25    1    1    2    0    0 -0.48426544778E+02 -0.39374442872E+03  0.50446375418E+02  0.41898644630E+03  0.12500000000E+03 0.  0.
         25    1    1    2    0    0 -0.25372905084E+03  0.29729082586E+03 -0.14208234733E+03  0.43424953634E+03  0.12500000000E+03 0.  0.
         25    1    1    2    0    0  0.30215559562E+03  0.96453602856E+02 -0.29412941833E+03  0.45026482896E+03  0.12500000000E+03 0.  0.
</event>
<event>
 5    0  0.5631475E-005  0.5513279E+03  0.7546771E-02  0.1001187E+00
         21   -1    0    0  502  501  0.00000000000E+00  0.00000000000E+00  0.11488679964E+04  0.11488679964E+04  0.00000000000E+00 0.  1.
         21   -1    0    0  501  502 -0.00000000000E+00 -0.00000000000E+00 -0.26457561255E+03  0.26457561255E+03  0.00000000000E+00 0.  1.
         25    1    1    2    0    0 -0.49146591801E+03  0.69596971395E+02  0.28845173766E+03  0.58754735295E+03  0.12500000000E+03 0.  0.
         25    1    1    2    0    0  0.14968789000E+03 -0.37115027162E+02  0.14628851377E+03  0.24659545599E+03  0.12500000000E+03 0.  0.
         25    1    1    2    0    0  0.34177802802E+03 -0.32481944234E+02  0.44955213239E+03  0.57930079999E+03  0.12500000000E+03 0.  0.
</event>
<event>
 5    0  0.5631475E-005  0.2812478E+03  0.7546771E-02  0.1095009E+00
         21   -1    0    0  502  501  0.00000000000E+00  0.00000000000E+00  0.15354901496E+03  0.15354901496E+03  0.00000000000E+00 0.  1.
         21   -1    0    0  501  502 -0.00000000000E+00 -0.00000000000E+00 -0.51514708023E+03  0.51514708023E+03  0.00000000000E+00 0.  1.
         25    1    1    2    0    0  0.28952812135E-01 -0.44263903612E+02 -0.38547851530E+03  0.40764933430E+03  0.12500000000E+03 0.  0.
         25    1    1    2    0    0 -0.60822997797E+01  0.59177428357E+01  0.33844474442E+02  0.12977851325E+03  0.12500000000E+03 0.  0.
         25    1    1    2    0    0  0.60533469676E+01  0.38346160776E+02 -0.99640244050E+01  0.13126824764E+03  0.12500000000E+03 0.  0.
</event>
<event>
 5    0  0.5631475E-005  0.2842190E+03  0.7546771E-02  0.1093407E+00
         21   -1    0    0  502  501  0.00000000000E+00  0.00000000000E+00  0.15468113318E+03  0.15468113318E+03  0.00000000000E+00 0. -1.
         21   -1    0    0  501  502 -0.00000000000E+00 -0.00000000000E+00 -0.52223857553E+03  0.52223857553E+03  0.00000000000E+00 0. -1.
         25    1    1    2    0    0  0.39531451807E+02 -0.15988174735E+03 -0.25779244116E+03  0.33046459952E+03  0.12500000000E+03 0.  0.
         25    1    1    2    0    0  0.28519313286E+02  0.74421849494E+02 -0.10260518899E+03  0.18029084203E+03  0.12500000000E+03 0.  0.
         25    1    1    2    0    0 -0.68050765093E+02  0.85459897851E+02 -0.71598122025E+01  0.16616426716E+03  0.12500000000E+03 0.  0.
</event>
<event>
 5    0  0.5631475E-005  0.4674791E+03  0.7546771E-02  0.1022634E+00
         21   -1    0    0  502  501  0.00000000000E+00  0.00000000000E+00  0.32344445541E+03  0.32344445541E+03  0.00000000000E+00 0. -1.
         21   -1    0    0  501  502 -0.00000000000E+00 -0.00000000000E+00 -0.67565452918E+03  0.67565452918E+03  0.00000000000E+00 0. -1.
         25    1    1    2    0    0  0.22818429647E+03 -0.24564492928E+03 -0.96245647753E+02  0.37053708202E+03  0.12500000000E+03 0.  0.
         25    1    1    2    0    0  0.86553785690E+02  0.28752192379E+02 -0.14336427877E+03  0.21094208402E+03  0.12500000000E+03 0.  0.
         25    1    1    2    0    0 -0.31473808216E+03  0.21689273690E+03 -0.11260014724E+03  0.41761981855E+03  0.12500000000E+03 0.  0.
</event>
<event>
 5    0  0.6115016E-005  0.3981138E+03  0.7546771E-02  0.1044435E+00
         21   -1    0    0  502  501  0.00000000000E+00  0.00000000000E+00  0.12447662578E+04  0.12447662578E+04  0.00000000000E+00 0.  1.
         21   -1    0    0  501  502 -0.00000000000E+00 -0.00000000000E+00 -0.12732880798E+03  0.12732880798E+03  0.00000000000E+00 0.  1.
         25    1    1    2    0    0  0.73564545984E+02  0.18405165955E+03  0.48281847273E+03  0.53668001027E+03  0.12500000000E+03 0.  0.
         25    1    1    2    0    0  0.16395228705E+03 -0.15053595519E+03  0.20347734263E+03  0.32644977439E+03  0.12500000000E+03 0.  0.
         25    1    1    2    0    0 -0.23751683304E+03 -0.33515704357E+02  0.43114163443E+03  0.50896528109E+03  0.12500000000E+03 0.  0.
</event>
<event>
 5    0  0.5631475E-005  0.3608646E+03  0.7546771E-02  0.1058242E+00
         21   -1    0    0  502  501  0.00000000000E+00  0.00000000000E+00  0.26711702807E+03  0.26711702807E+03  0.00000000000E+00 0.  1.
         21   -1    0    0  501  502 -0.00000000000E+00 -0.00000000000E+00 -0.48751386785E+03  0.48751386785E+03  0.00000000000E+00 0.  1.
         25    1    1    2    0    0 -0.64471289739E+02  0.12324409579E+03 -0.76091003023E+02  0.20189228586E+03  0.12500000000E+03 0.  0.
         25    1    1    2    0    0  0.36759746195E+02 -0.21323646546E+02  0.15986768207E+03  0.20733705074E+03  0.12500000000E+03 0.  0.
         25    1    1    2    0    0  0.27711543545E+02 -0.10192044925E+03 -0.30417351882E+03  0.34540155931E+03  0.12500000000E+03 0.  0.
</event>
<event>
 5    0  0.5631475E-005  0.2438264E+03  0.7546771E-02  0.1117270E+00
         21   -1    0    0  502  501  0.00000000000E+00  0.00000000000E+00  0.13600788357E+03  0.13600788357E+03  0.00000000000E+00 0.  1.
         21   -1    0    0  501  502 -0.00000000000E+00 -0.00000000000E+00 -0.43711663977E+03  0.43711663977E+03  0.00000000000E+00 0.  1.
         25    1    1    2    0    0  0.28097051695E+02  0.84972574435E+02 -0.24787093063E+02  0.15572149082E+03  0.12500000000E+03 0.  0.
         25    1    1    2    0    0 -0.46310741202E+02  0.10555316283E+02 -0.53485752269E+02  0.14402022479E+03  0.12500000000E+03 0.  0.
         25    1    1    2    0    0  0.18213689507E+02 -0.95527890718E+02 -0.22283591087E+03  0.27338280773E+03  0.12500000000E+03 0.  0.
</event>
<event>
 5    0  0.5631475E-005  0.3056810E+03  0.7546771E-02  0.1082435E+00
         21   -1    0    0  502  501  0.00000000000E+00  0.00000000000E+00  0.11612094616E+04  0.11612094616E+04  0.00000000000E+00 0. -1.
         21   -1    0    0  501  502 -0.00000000000E+00 -0.00000000000E+00 -0.80468594387E+02  0.80468594387E+02  0.00000000000E+00 0. -1.
         25    1    1    2    0    0  0.10129177441E+03  0.46216871176E+02  0.25814562985E+03  0.30766896001E+03  0.12500000000E+03 0.  0.
         25    1    1    2    0    0  0.18637913193E+02  0.57857963016E+02  0.66043626405E+03  0.67490441884E+03  0.12500000000E+03 0.  0.
         25    1    1    2    0    0 -0.11992968761E+03 -0.10407483419E+03  0.16215897328E+03  0.25910467710E+03  0.12500000000E+03 0.  0.
</event>
<event>
 5    0  0.5631475E-005  0.4982523E+03  0.7546771E-02  0.1014236E+00
         21   -1    0    0  502  501  0.00000000000E+00  0.00000000000E+00  0.30066542484E+03  0.30066542484E+03  0.00000000000E+00 0. -1.
         21   -1    0    0  501  502 -0.00000000000E+00 -0.00000000000E+00 -0.82568656870E+03  0.82568656870E+03  0.00000000000E+00 0. -1.
         25    1    1    2    0    0  0.63676687571E+02 -0.19737867094E+03 -0.27593427506E+02  0.24372003923E+03  0.12500000000E+03 0.  0.
         25    1    1    2    0    0 -0.33106163555E+03  0.20444898844E+03 -0.39964976738E+03  0.57161712008E+03  0.12500000000E+03 0.  0.
         25    1    1    2    0    0  0.26738494798E+03 -0.70703175000E+01 -0.97777948975E+02  0.31101483422E+03  0.12500000000E+03 0.  0.
</event>
<event>
 5    0  0.5631475E-005  0.2996482E+03  0.7546771E-02  0.1085417E+00
         21   -1    0    0  502  501  0.00000000000E+00  0.00000000000E+00  0.18082151395E+04  0.18082151395E+04  0.00000000000E+00 0.  1.
         21   -1    0    0  501  502 -0.00000000000E+00 -0.00000000000E+00 -0.49656161895E+02  0.49656161895E+02  0.00000000000E+00 0.  1.
         25    1    1    2    0    0  0.20174971309E+02 -0.14867760559E+03  0.40141409951E+03  0.44639706446E+03  0.12500000000E+03 0.  0.
         25    1    1    2    0    0  0.10768131335E+03  0.47236343054E+02  0.45720774647E+03  0.48835485129E+03  0.12500000000E+03 0.  0.
         25    1    1    2    0    0 -0.12785628465E+03  0.10144126254E+03  0.89993713159E+03  0.92311938561E+03  0.12500000000E+03 0.  0.
</event>
<event>
 5    0  0.5631475E-005  0.3715158E+03  0.7546771E-02  0.1054115E+00
         21   -1    0    0  502  501  0.00000000000E+00  0.00000000000E+00  0.10898181208E+04  0.10898181208E+04  0.00000000000E+00 0. -1.
         21   -1    0    0  501  502 -0.00000000000E+00 -0.00000000000E+00 -0.12664866896E+03  0.12664866896E+03  0.00000000000E+00 0. -1.
         25    1    1    2    0    0  0.80885879436E+02 -0.17456745553E+03  0.21502341637E+03  0.31444616647E+03  0.12500000000E+03 0.  0.
         25    1    1    2    0    0 -0.10031824044E+03  0.20231470894E+03  0.72614890062E+03  0.77065700327E+03  0.12500000000E+03 0.  0.
         25    1    1    2    0    0  0.19432361008E+02 -0.27747253413E+02  0.21997134861E+02  0.13136362003E+03  0.12500000000E+03 0.  0.
</event>
<event>
 5    0  0.5631475E-005  0.4336231E+03  0.7546771E-02  0.1032722E+00
         21   -1    0    0  502  501  0.00000000000E+00  0.00000000000E+00  0.18972579746E+03  0.18972579746E+03  0.00000000000E+00 0. -1.
         21   -1    0    0  501  502 -0.00000000000E+00 -0.00000000000E+00 -0.99105643818E+03  0.99105643818E+03  0.00000000000E+00 0. -1.
         25    1    1    2    0    0  0.13446379142E+03 -0.11556373120E+03 -0.16760977024E+03  0.27414142746E+03  0.12500000000E+03 0.  0.
         25    1    1    2    0    0 -0.39653878542E+02 -0.12312820391E+03  0.31562567985E+02  0.18263126890E+03  0.12500000000E+03 0.  0.
         25    1    1    2    0    0 -0.94809912875E+02  0.23869193511E+03 -0.66528343847E+03  0.72400953928E+03  0.12500000000E+03 0.  0.
</event>
<event>
 5    0  0.5631475E-005  0.2459108E+03  0.7546771E-02  0.1115917E+00
         21   -1    0    0  502  501  0.00000000000E+00  0.00000000000E+00  0.38533579052E+02  0.38533579052E+02  0.00000000000E+00 0.  1.
         21   -1    0    0  501  502 -0.00000000000E+00 -0.00000000000E+00 -0.15693352494E+04  0.15693352494E+04  0.00000000000E+00 0.  1.
         25    1    1    2    0    0 -0.98400346992E+02  0.28673292732E+01 -0.55487841274E+03  0.57723990055E+03  0.12500000000E+03 0.  0.
         25    1    1    2    0    0  0.11854458957E+03  0.34361277633E+02 -0.35808030447E+03  0.39884836914E+03  0.12500000000E+03 0.  0.
         25    1    1    2    0    0 -0.20144242583E+02 -0.37228606906E+02 -0.61784295312E+03  0.63178055874E+03  0.12500000000E+03 0.  0.
</event>
<event>
 5    0  0.5631475E-005  0.4329481E+03  0.7546771E-02  0.1032933E+00
         21   -1    0    0  502  501  0.00000000000E+00  0.00000000000E+00  0.91643571604E+03  0.91643571604E+03  0.00000000000E+00 0.  1.
         21   -1    0    0  501  502 -0.00000000000E+00 -0.00000000000E+00 -0.20453595676E+03  0.20453595676E+03  0.00000000000E+00 0.  1.
         25    1    1    2    0    0  0.17392101283E+03  0.90209903913E+02  0.12914312572E+03  0.26587458019E+03  0.12500000000E+03 0.  0.
         25    1    1    2    0    0 -0.30688864626E+03 -0.21433184686E+03  0.29639447109E+03  0.49355188610E+03  0.12500000000E+03 0.  0.
         25    1    1    2    0    0  0.13296763343E+03  0.12412194294E+03  0.28636216246E+03  0.36154520651E+03  0.12500000000E+03 0.  0.
</event>
<event>
 5    0  0.5631475E-005  0.2692208E+03  0.7546771E-02  0.1101726E+00
         21   -1    0    0  502  501  0.00000000000E+00  0.00000000000E+00  0.55682751731E+03  0.55682751731E+03  0.00000000000E+00 0. -1.
         21   -1    0    0  501  502 -0.00000000000E+00 -0.00000000000E+00 -0.13016567644E+03  0.13016567644E+03  0.00000000000E+00 0. -1.
         25    1    1    2    0    0 -0.73108087768E+02 -0.26593004770E+01  0.36899178209E+03  0.39639853635E+03  0.12500000000E+03 0.  0.
         25    1    1    2    0    0  0.86373914349E+02  0.32860918211E+02  0.27979185075E+02  0.15794976361E+03  0.12500000000E+03 0.  0.
         25    1    1    2    0    0 -0.13265826582E+02 -0.30201617734E+02  0.29690873705E+02  0.13264489380E+03  0.12500000000E+03 0.  0.
</event>
<event>
 5    0  0.6239545E-005  0.2859053E+03  0.7546771E-02  0.1092507E+00
         21   -1    0    0  502  501  0.00000000000E+00  0.00000000000E+00  0.21158608691E+03  0.21158608691E+03  0.00000000000E+00 0. -1.
         21   -1    0    0  501  502 -0.00000000000E+00 -0.00000000000E+00 -0.38632903176E+03  0.38632903176E+03  0.00000000000E+00 0. -1.
         25    1    1    2    0    0  0.69171393189E+02  0.26621013708E+02  0.11964427398E+03  0.18823685161E+03  0.12500000000E+03 0.  0.
         25    1    1    2    0    0  0.69422019067E+01 -0.48388657385E+02 -0.16841457884E+03  0.21535581417E+03  0.12500000000E+03 0.  0.
         25    1    1    2    0    0 -0.76113595096E+02  0.21767643676E+02 -0.12597263999E+03  0.19432245289E+03  0.12500000000E+03 0.  0.
</event>
<event>
 5    0  0.5631475E-005  0.3683351E+03  0.7546771E-02  0.1055331E+00
         21   -1    0    0  502  501  0.00000000000E+00  0.00000000000E+00  0.12375792302E+04  0.12375792302E+04  0.00000000000E+00 0.  1.
         21   -1    0    0  501  502 -0.00000000000E+00 -0.00000000000E+00 -0.10962592272E+03  0.10962592272E+03  0.00000000000E+00 0.  1.
         25    1    1    2    0    0  0.18509663844E+03  0.49286344586E+02  0.12093126174E+03  0.25872626343E+03  0.12500000000E+03 0.  0.
         25    1    1    2    0    0 -0.30014609548E+02  0.92116668857E+02  0.28077873257E+03  0.32225464176E+03  0.12500000000E+03 0.  0.
         25    1    1    2    0    0 -0.15508202889E+03 -0.14140301344E+03  0.72624331321E+03  0.76622424777E+03  0.12500000000E+03 0.  0.
</event>
<event>
 5    0  0.5631475E-005  0.3450618E+03  0.7546771E-02  0.1064660E+00
         21   -1    0    0  502  501  0.00000000000E+00  0.00000000000E+00  0.55795030125E+03  0.55795030125E+03  0.00000000000E+00 0.  1.
         21   -1    0    0  501  502 -0.00000000000E+00 -0.00000000000E+00 -0.21340183254E+03  0.21340183254E+03  0.00000000000E+00 0.  1.
         25    1    1    2    0    0 -0.10943909477E+02  0.27393901478E+02  0.15148476219E+03  0.19860218571E+03  0.12500000000E+03 0.  0.
         25    1    1    2    0    0 -0.55565573093E+02 -0.22900671948E+03  0.18797755691E+03  0.32633138431E+03  0.12500000000E+03 0.  0.
         25    1    1    2    0    0  0.66509482570E+02  0.20161281800E+03  0.50861496092E+01  0.24641856377E+03  0.12500000000E+03 0.  0.
</event>
<event>
 5    0  0.5631475E-005  0.2354482E+03  0.7546771E-02  0.1122863E+00
         21   -1    0    0  502  501  0.00000000000E+00  0.00000000000E+00  0.70197129726E+02  0.70197129726E+02  0.00000000000E+00 0.  1.
         21   -1    0    0  501  502 -0.00000000000E+00 -0.00000000000E+00 -0.78971706741E+03  0.78971706741E+03  0.00000000000E+00 0.  1.
         25    1    1    2    0    0 -0.20532535232E+02  0.61104762916E+02 -0.14174329871E+03  0.19967859120E+03  0.12500000000E+03 0.  0.
         25    1    1    2    0    0  0.62895242157E+02  0.27487765262E+02 -0.16600692018E+03  0.21884854642E+03  0.12500000000E+03 0.  0.
         25    1    1    2    0    0 -0.42362706926E+02 -0.88592528178E+02 -0.41176971880E+03  0.44138705952E+03  0.12500000000E+03 0.  0.
</event>
<event>
 5    0  0.5631475E-005  0.8052561E+03  0.7546771E-02  0.9552440E-01
         21   -1    0    0  502  501  0.00000000000E+00  0.00000000000E+00  0.26959299439E+03  0.26959299439E+03  0.00000000000E+00 0. -1.
         21   -1    0    0  501  502 -0.00000000000E+00 -0.00000000000E+00 -0.24052454017E+04  0.24052454017E+04  0.00000000000E+00 0. -1.
         25    1    1    2    0    0  0.50934751947E+03  0.12195656387E+03 -0.15878446027E+03  0.56137848542E+03  0.12500000000E+03 0.  0.
         25    1    1    2    0    0 -0.21156544527E+02 -0.72139918475E+02 -0.10244852741E+04  0.10348172998E+04  0.12500000000E+03 0.  0.
         25    1    1    2    0    0 -0.48819097495E+03 -0.49816645392E+02 -0.95238267293E+03  0.10786426108E+04  0.12500000000E+03 0.  0.
</event>
<event>
 5    0  0.5631475E-005  0.2207315E+03  0.7546771E-02  0.1133339E+00
         21   -1    0    0  502  501  0.00000000000E+00  0.00000000000E+00  0.21436048378E+03  0.21436048378E+03  0.00000000000E+00 0. -1.
         21   -1    0    0  501  502 -0.00000000000E+00 -0.00000000000E+00 -0.22729191381E+03  0.22729191381E+03  0.00000000000E+00 0. -1.
         25    1    1    2    0    0  0.23498922182E+02  0.20322655775E+02  0.29278111455E+02  0.13208867284E+03  0.12500000000E+03 0.  0.
         25    1    1    2    0    0  0.62472542646E+02 -0.54966394222E+02 -0.89285660491E+01  0.15042886149E+03  0.12500000000E+03 0.  0.
         25    1    1    2    0    0 -0.85971464829E+02  0.34643738447E+02 -0.33280975444E+02  0.15913486326E+03  0.12500000000E+03 0.  0.
</event>
<event>
 5    0  0.5631475E-005  0.2275732E+03  0.7546771E-02  0.1128360E+00
         21   -1    0    0  502  501  0.00000000000E+00  0.00000000000E+00  0.24997802259E+02  0.24997802259E+02  0.00000000000E+00 0.  1.
         21   -1    0    0  501  502 -0.00000000000E+00 -0.00000000000E+00 -0.20717645891E+04  0.20717645891E+04  0.00000000000E+00 0.  1.
         25    1    1    2    0    0 -0.51385871785E+02  0.33596395175E+02 -0.80612927913E+03  0.81807007051E+03  0.12500000000E+03 0.  0.
         25    1    1    2    0    0  0.35360791276E+02 -0.25317353500E+02 -0.98186924903E+03  0.99074899754E+03  0.12500000000E+03 0.  0.
         25    1    1    2    0    0  0.16025080509E+02 -0.82790416752E+01 -0.25876825869E+03  0.28794332331E+03  0.12500000000E+03 0.  0.
</event>
<event>
 5    0  0.5631475E-005  0.3371911E+03  0.7546771E-02  0.1067999E+00
         21   -1    0    0  502  501  0.00000000000E+00  0.00000000000E+00  0.68376360120E+03  0.68376360120E+03  0.00000000000E+00 0.  1.
         21   -1    0    0  501  502 -0.00000000000E+00 -0.00000000000E+00 -0.16628237193E+03  0.16628237193E+03  0.00000000000E+00 0.  1.
         25    1    1    2    0    0  0.15784270749E+03 -0.83988705694E+02  0.17170240089E+03  0.27762409381E+03  0.12500000000E+03 0.  0.
         25    1    1    2    0    0 -0.20511829937E+03 -0.68110666241E+02  0.22841794173E+03  0.33839671349E+03  0.12500000000E+03 0.  0.
         25    1    1    2    0    0  0.47275591879E+02  0.15209937193E+03  0.11736088664E+03  0.23402516584E+03  0.12500000000E+03 0.  0.
</event>
<event>
 5    0  0.5631475E-005  0.3879677E+03  0.7546771E-02  0.1048028E+00
         21   -1    0    0  502  501  0.00000000000E+00  0.00000000000E+00  0.18136443273E+04  0.18136443273E+04  0.00000000000E+00 0. -1.
         21   -1    0    0  501  502 -0.00000000000E+00 -0.00000000000E+00 -0.82992551870E+02  0.82992551870E+02  0.00000000000E+00 0. -1.
         25    1    1    2    0    0 -0.10052847520E+03  0.14725532471E+03  0.13578655834E+03  0.25661857768E+03  0.12500000000E+03 0.  0.
         25    1    1    2    0    0  0.16223713655E+03 -0.12235360685E+03  0.91755891513E+03  0.94806679950E+03  0.12500000000E+03 0.  0.
         25    1    1    2    0    0 -0.61708661340E+02 -0.24901717861E+02  0.67730630194E+03  0.69195150197E+03  0.12500000000E+03 0.  0.
</event>
<event>
 5    0  0.5803184E-005  0.3042478E+03  0.7546771E-02  0.1083136E+00
         21   -1    0    0  502  501  0.00000000000E+00  0.00000000000E+00  0.16390860491E+03  0.16390860491E+03  0.00000000000E+00 0.  1.
         21   -1    0    0  501  502 -0.00000000000E+00 -0.00000000000E+00 -0.56474582584E+03  0.56474582584E+03  0.00000000000E+00 0.  1.
         25    1    1    2    0    0  0.38370979884E+02 -0.19092559847E+03 -0.84357747598E+02  0.24630498539E+03  0.12500000000E+03 0.  0.
         25    1    1    2    0    0 -0.78598658460E+02  0.11313399865E+03 -0.83663733316E+02  0.20396487696E+03  0.12500000000E+03 0.  0.
         25    1    1    2    0    0  0.40227678576E+02  0.77791599815E+02 -0.23281574001E+03  0.27838456840E+03  0.12500000000E+03 0.  0.
</event>
<event>
 5    0  0.5631475E-005  0.3546627E+03  0.7546771E-02  0.1060717E+00
         21   -1    0    0  502  501  0.00000000000E+00  0.00000000000E+00  0.18173686324E+03  0.18173686324E+03  0.00000000000E+00 0. -1.
         21   -1    0    0  501  502 -0.00000000000E+00 -0.00000000000E+00 -0.69213068186E+03  0.69213068186E+03  0.00000000000E+00 0. -1.
         25    1    1    2    0    0  0.10564500072E+03  0.22118879544E+03 -0.42268588923E+03  0.50435474655E+03  0.12500000000E+03 0.  0.
         25    1    1    2    0    0 -0.79742196663E+02 -0.84768949154E+02 -0.26031977117E+02  0.17276358558E+03  0.12500000000E+03 0.  0.
         25    1    1    2    0    0 -0.25902804058E+02 -0.13641984629E+03 -0.61675952263E+02  0.19674921298E+03  0.12500000000E+03 0.  0.
</event>
<event>
 5    0  0.5631475E-005  0.5914255E+03  0.7546771E-02  0.9923357E-01
         21   -1    0    0  502  501  0.00000000000E+00  0.00000000000E+00  0.93366681041E+03  0.93366681041E+03  0.00000000000E+00 0. -1.
         21   -1    0    0  501  502 -0.00000000000E+00 -0.00000000000E+00 -0.37463489549E+03  0.37463489549E+03  0.00000000000E+00 0. -1.
         25    1    1    2    0    0  0.15535339795E+03 -0.36584593230E+03  0.60403201446E+03  0.73379670136E+03  0.12500000000E+03 0.  0.
         25    1    1    2    0    0  0.58332685380E+02  0.27192933483E+03  0.54512306646E+01  0.30496390154E+03  0.12500000000E+03 0.  0.
         25    1    1    2    0    0 -0.21368608333E+03  0.93916597469E+02 -0.50451330192E+02  0.26954110300E+03  0.12500000000E+03 0.  0.
</event>
<event>
 5    0  0.5631475E-005  0.2574078E+03  0.7546771E-02  0.1108711E+00
         21   -1    0    0  502  501  0.00000000000E+00  0.00000000000E+00  0.38317169348E+03  0.38317169348E+03  0.00000000000E+00 0.  1.
         21   -1    0    0  501  502 -0.00000000000E+00 -0.00000000000E+00 -0.17292195323E+03  0.17292195323E+03  0.00000000000E+00 0.  1.
         25    1    1    2    0    0 -0.94475421647E+02  0.13329788498E+02 -0.85558040695E+01  0.15748488924E+03  0.12500000000E+03 0.  0.
         25    1    1    2    0    0  0.34416740035E+02  0.89982701705E+02  0.80441911968E+02  0.17713638757E+03  0.12500000000E+03 0.  0.
         25    1    1    2    0    0  0.60058681612E+02 -0.10331249020E+03  0.13836363235E+03  0.22147236989E+03  0.12500000000E+03 0.  0.
</event>
<event>
 5    0  0.5631475E-005  0.2316796E+03  0.7546771E-02  0.1125463E+00
         21   -1    0    0  502  501  0.00000000000E+00  0.00000000000E+00  0.15679941075E+03  0.15679941075E+03  0.00000000000E+00 0.  1.
         21   -1    0    0  501  502 -0.00000000000E+00 -0.00000000000E+00 -0.34231919599E+03  0.34231919599E+03  0.00000000000E+00 0.  1.
         25    1    1    2    0    0 -0.36434660882E+02  0.67294981526E+02 -0.23826862171E+02  0.14848844539E+03  0.12500000000E+03 0.  0.
         25    1    1    2    0    0  0.97798824778E+02 -0.63893994157E+02 -0.77071088685E+02  0.18764862197E+03  0.12500000000E+03 0.  0.
         25    1    1    2    0    0 -0.61364163896E+02 -0.34009873687E+01 -0.84621834378E+02  0.16298153938E+03  0.12500000000E+03 0.  0.
</event>
<event>
 5    0  0.5631475E-005  0.3439344E+03  0.7546771E-02  0.1065132E+00
         21   -1    0    0  502  501  0.00000000000E+00  0.00000000000E+00  0.59978077470E+02  0.59978077470E+02  0.00000000000E+00 0. -1.
         21   -1    0    0  501  502 -0.00000000000E+00 -0.00000000000E+00 -0.19722353911E+04  0.19722353911E+04  0.00000000000E+00 0. -1.
         25    1    1    2    0    0 -0.57723141285E+02  0.97914498196E+02 -0.11974601798E+03  0.20708287911E+03  0.12500000000E+03 0.  0.
         25    1    1    2    0    0  0.99438729172E+02  0.24457215878E+02 -0.94944767681E+03  0.96310025816E+03  0.12500000000E+03 0.  0.
         25    1    1    2    0    0 -0.41715587888E+02 -0.12237171407E+03 -0.84306361886E+03  0.86203033132E+03  0.12500000000E+03 0.  0.
</event>
<event>
 5    0  0.5631475E-005  0.2372914E+03  0.7546771E-02  0.1121610E+00
         21   -1    0    0  502  501  0.00000000000E+00  0.00000000000E+00  0.28502022644E+03  0.28502022644E+03  0.00000000000E+00 0.  1.
         21   -1    0    0  501  502 -0.00000000000E+00 -0.00000000000E+00 -0.19755516096E+03  0.19755516096E+03  0.00000000000E+00 0.  1.
         25    1    1    2    0    0  0.10683118418E+03 -0.36183463520E+02  0.45690677669E+02  0.17445567624E+03  0.12500000000E+03 0.  0.
         25    1    1    2    0    0 -0.27291507939E+02 -0.40852869923E+02 -0.59569897143E+01  0.13444057837E+03  0.12500000000E+03 0.  0.
         25    1    1    2    0    0 -0.79539676246E+02  0.77036333443E+02  0.47731377525E+02  0.17367913279E+03  0.12500000000E+03 0.  0.
</event>
<event>
 5    0  0.5631475E-005  0.4172641E+03  0.7546771E-02  0.1037960E+00
         21   -1    0    0  502  501  0.00000000000E+00  0.00000000000E+00  0.16940678358E+03  0.16940678358E+03  0.00000000000E+00 0.  1.
         21   -1    0    0  501  502 -0.00000000000E+00 -0.00000000000E+00 -0.10277590646E+04  0.10277590646E+04  0.00000000000E+00 0.  1.
         25    1    1    2    0    0 -0.25197640365E+03 -0.27222729868E+02 -0.20114008929E+03  0.34686527721E+03  0.12500000000E+03 0.  0.
         25    1    1    2    0    0  0.29466568748E+02  0.18676422092E+03 -0.19644602450E+03  0.29994198344E+03  0.12500000000E+03 0.  0.
         25    1    1    2    0    0  0.22250983490E+03 -0.15954149105E+03 -0.46076616722E+03  0.55035858751E+03  0.12500000000E+03 0.  0.
</event>
<event>
 5    0  0.5631475E-005  0.2754896E+03  0.7546771E-02  0.1098178E+00
         21   -1    0    0  502  501  0.00000000000E+00  0.00000000000E+00  0.26780470702E+03  0.26780470702E+03  0.00000000000E+00 0.  1.
         21   -1    0    0  501  502 -0.00000000000E+00 -0.00000000000E+00 -0.28339500711E+03  0.28339500711E+03  0.00000000000E+00 0.  1.
         25    1    1    2    0    0 -0.30140304069E+02 -0.34754567067E+02 -0.52068901460E+01  0.13329827293E+03  0.12500000000E+03 0.  0.
         25    1    1    2    0    0 -0.46426231192E+02 -0.43168538362E+02  0.13693788590E+03  0.19594872350E+03  0.12500000000E+03 0.  0.
         25    1    1    2    0    0  0.76566535261E+02  0.77923105429E+02 -0.14732129585E+03  0.22195271769E+03  0.12500000000E+03 0.  0.
</event>
<event>
 5    0  0.5631475E-005  0.4996020E+03  0.7546771E-02  0.1013883E+00
         21   -1    0    0  502  501  0.00000000000E+00  0.00000000000E+00  0.17099969411E+04  0.17099969411E+04  0.00000000000E+00 0.  1.
         21   -1    0    0  501  502 -0.00000000000E+00 -0.00000000000E+00 -0.14596644530E+03  0.14596644530E+03  0.00000000000E+00 0.  1.
         25    1    1    2    0    0  0.14710054971E+02  0.29630390351E+03  0.87228643433E+03  0.92979622094E+03  0.12500000000E+03 0.  0.
         25    1    1    2    0    0  0.14215716734E+03 -0.77931902189E+02  0.37843429873E+02  0.20818061098E+03  0.12500000000E+03 0.  0.
         25    1    1    2    0    0 -0.15686722231E+03 -0.21837200132E+03  0.65390063156E+03  0.71798655443E+03  0.12500000000E+03 0.  0.
</event>
<event>
 5    0  0.5631475E-005  0.2420048E+03  0.7546771E-02  0.1118464E+00
         21   -1    0    0  502  501  0.00000000000E+00  0.00000000000E+00  0.41598723759E+03  0.41598723759E+03  0.00000000000E+00 0.  1.
         21   -1    0    0  501  502 -0.00000000000E+00 -0.00000000000E+00 -0.14078869795E+03  0.14078869795E+03  0.00000000000E+00 0.  1.
         25    1    1    2    0    0  0.11983863996E+02  0.35442864041E+02 -0.20368115347E+02  0.13205934170E+03  0.12500000000E+03 0.  0.
         25    1    1    2    0    0  0.57306493401E+02 -0.53028233240E+02  0.21209793871E+03  0.25827613772E+03  0.12500000000E+03 0.  0.
         25    1    1    2    0    0 -0.69290357396E+02  0.17585369199E+02  0.83468716277E+02  0.16644045612E+03  0.12500000000E+03 0.  0.
</event>
<event>
 5    0  0.5631475E-005  0.3256500E+03  0.7546771E-02  0.1073078E+00
         21   -1    0    0  502  501  0.00000000000E+00  0.00000000000E+00  0.18460012359E+03  0.18460012359E+03  0.00000000000E+00 0. -1.
         21   -1    0    0  501  502 -0.00000000000E+00 -0.00000000000E+00 -0.57447377154E+03  0.57447377154E+03  0.00000000000E+00 0. -1.
         25    1    1    2    0    0  0.13588112512E+03  0.10505800879E+03 -0.17482276340E+03  0.27511609182E+03  0.12500000000E+03 0.  0.
         25    1    1    2    0    0 -0.76643328586E+01 -0.19458255107E+03 -0.13812262278E+03  0.26948834873E+03  0.12500000000E+03 0.  0.
         25    1    1    2    0    0 -0.12821679226E+03  0.89524542281E+02 -0.76928261779E+02  0.21446945458E+03  0.12500000000E+03 0.  0.
</event>
<event>
 5    0  0.5631475E-005  0.3153360E+03  0.7546771E-02  0.1077816E+00
         21   -1    0    0  502  501  0.00000000000E+00  0.00000000000E+00  0.45622261134E+02  0.45622261134E+02  0.00000000000E+00 0. -1.
         21   -1    0    0  501  502 -0.00000000000E+00 -0.00000000000E+00 -0.21795670795E+04  0.21795670795E+04  0.00000000000E+00 0. -1.
         25    1    1    2    0    0 -0.20838116145E+03  0.70245178147E+02 -0.64165061333E+03  0.68970834640E+03  0.12500000000E+03 0.  0.
         25    1    1    2    0    0  0.15903000721E+03 -0.58443497373E+02 -0.67339365904E+03  0.70554249030E+03  0.12500000000E+03 0.  0.
         25    1    1    2    0    0  0.49351154241E+02 -0.11801680774E+02 -0.81890054597E+03  0.82993850392E+03  0.12500000000E+03 0.  0.
</event>
<event>
 5    0  0.5631475E-005  0.2447672E+03  0.7546771E-02  0.1116657E+00
         21   -1    0    0  502  501  0.00000000000E+00  0.00000000000E+00  0.10091960154E+03  0.10091960154E+03  0.00000000000E+00 0.  1.
         21   -1    0    0  501  502 -0.00000000000E+00 -0.00000000000E+00 -0.59365043315E+03  0.59365043315E+03  0.00000000000E+00 0.  1.
         25    1    1    2    0    0 -0.12798824983E+02  0.44563179295E+02 -0.15053860211E+03  0.20108843228E+03  0.12500000000E+03 0.  0.
         25    1    1    2    0    0 -0.69397771321E+02  0.77096826613E+02 -0.14628762660E+03  0.21859789806E+03  0.12500000000E+03 0.  0.
         25    1    1    2    0    0  0.82196596304E+02 -0.12166000591E+03 -0.19590460290E+03  0.27488370435E+03  0.12500000000E+03 0.  0.
</event>
<event>
 5    0  0.5631475E-005  0.3014407E+03  0.7546771E-02  0.1084523E+00
         21   -1    0    0  502  501  0.00000000000E+00  0.00000000000E+00  0.86981002474E+02  0.86981002474E+02  0.00000000000E+00 0.  1.
         21   -1    0    0  501  502 -0.00000000000E+00 -0.00000000000E+00 -0.10446702867E+04  0.10446702867E+04  0.00000000000E+00 0.  1.
         25    1    1    2    0    0 -0.21200489728E+02 -0.24719535830E+02 -0.26249889784E+02  0.13181264329E+03  0.12500000000E+03 0.  0.
         25    1    1    2    0    0  0.82298639806E+02 -0.34745151453E+01 -0.17544921040E+03  0.23063513132E+03  0.12500000000E+03 0.  0.
         25    1    1    2    0    0 -0.61098150078E+02  0.28194050975E+02 -0.75599018407E+03  0.76920351460E+03  0.12500000000E+03 0.  0.
</event>
<event>
 5    0  0.5631475E-005  0.3386746E+03  0.7546771E-02  0.1067362E+00
         21   -1    0    0  502  501  0.00000000000E+00  0.00000000000E+00  0.48896224766E+03  0.48896224766E+03  0.00000000000E+00 0.  1.
         21   -1    0    0  501  502 -0.00000000000E+00 -0.00000000000E+00 -0.23457944954E+03  0.23457944954E+03  0.00000000000E+00 0.  1.
         25    1    1    2    0    0  0.12468320493E+03 -0.93376287560E+02  0.56584181375E+02  0.20758565040E+03  0.12500000000E+03 0.  0.
         25    1    1    2    0    0  0.36645397525E+02 -0.12291101740E+03  0.78496539315E+02  0.19554209277E+03  0.12500000000E+03 0.  0.
         25    1    1    2    0    0 -0.16132860245E+03  0.21628730496E+03  0.11930207743E+03  0.32041395403E+03  0.12500000000E+03 0.  0.
</event>
<event>
 5    0  0.5631475E-005  0.2951927E+03  0.7546771E-02  0.1087669E+00
         21   -1    0    0  502  501  0.00000000000E+00  0.00000000000E+00  0.15479957500E+03  0.15479957500E+03  0.00000000000E+00 0. -1.
         21   -1    0    0  501  502 -0.00000000000E+00 -0.00000000000E+00 -0.56291312117E+03  0.56291312117E+03  0.00000000000E+00 0. -1.
         25    1    1    2    0    0 -0.10910878987E+03  0.57370259276E+02 -0.64178767633E+02  0.18692241409E+03  0.12500000000E+03 0.  0.
         25    1    1    2    0    0  0.11725625978E+03  0.86160026090E+02 -0.86233486616E+02  0.21031831771E+03  0.12500000000E+03 0.  0.
         25    1    1    2    0    0 -0.81474699064E+01 -0.14353028537E+03 -0.25770129193E+03  0.32047196436E+03  0.12500000000E+03 0.  0.
</event>
<event>
 5    0  0.5631475E-005  0.3587418E+03  0.7546771E-02  0.1059083E+00
         21   -1    0    0  502  501  0.00000000000E+00  0.00000000000E+00  0.42843954183E+03  0.42843954183E+03  0.00000000000E+00 0. -1.
         21   -1    0    0  501  502 -0.00000000000E+00 -0.00000000000E+00 -0.30038237506E+03  0.30038237506E+03  0.00000000000E+00 0. -1.
         25    1    1    2    0    0 -0.14007046106E+03  0.14492675762E+03 -0.83686247818E+02  0.25149927874E+03  0.12500000000E+03 0.  0.
         25    1    1    2    0    0  0.66253503598E+02 -0.11736679690E+03 -0.37468044937E+02  0.18759889697E+03  0.12500000000E+03 0.  0.
         25    1    1    2    0    0  0.73816957457E+02 -0.27559960718E+02  0.24921145953E+03  0.28972374118E+03  0.12500000000E+03 0.  0.
</event>
<event>
 5    0  0.6667616E-005  0.2735588E+03  0.7546771E-02  0.1099260E+00
         21   -1    0    0  502  501  0.00000000000E+00  0.00000000000E+00  0.28233346955E+03  0.28233346955E+03  0.00000000000E+00 0. -1.
         21   -1    0    0  501  502 -0.00000000000E+00 -0.00000000000E+00 -0.26505687575E+03  0.26505687575E+03  0.00000000000E+00 0. -1.
         25    1    1    2    0    0 -0.67391094319E+02 -0.13333685031E+01 -0.16498958687E+02  0.14297046234E+03  0.12500000000E+03 0.  0.
         25    1    1    2    0    0  0.13218747463E+03  0.11061121845E+03 -0.30221105304E+02  0.21505042502E+03  0.12500000000E+03 0.  0.
         25    1    1    2    0    0 -0.64796380313E+02 -0.10927784994E+03  0.63996657798E+02  0.18936945794E+03  0.12500000000E+03 0.  0.
</event>
<event>
 5    0  0.5631475E-005  0.4230910E+03  0.7546771E-02  0.1036065E+00
         21   -1    0    0  502  501  0.00000000000E+00  0.00000000000E+00  0.71305810425E+03  0.71305810425E+03  0.00000000000E+00 0. -1.
         21   -1    0    0  501  502 -0.00000000000E+00 -0.00000000000E+00 -0.25103982168E+03  0.25103982168E+03  0.00000000000E+00 0. -1.
         25    1    1    2    0    0  0.37557390084E+02 -0.67113449355E+02  0.69220363135E+02  0.16226900908E+03  0.12500000000E+03 0.  0.
         25    1    1    2    0    0 -0.28390655926E+03 -0.44181998617E+02  0.39475777755E+03  0.50399770469E+03  0.12500000000E+03 0.  0.
         25    1    1    2    0    0  0.24634916918E+03  0.11129544797E+03 -0.19598581190E+01  0.29783121216E+03  0.12500000000E+03 0.  0.
</event>
<event>
 5    0  0.5631475E-005  0.1983772E+03  0.7546771E-02  0.1151115E+00
         21   -1    0    0  502  501  0.00000000000E+00  0.00000000000E+00  0.65965775745E+02  0.65965775745E+02  0.00000000000E+00 0.  1.
         21   -1    0    0  501  502 -0.00000000000E+00 -0.00000000000E+00 -0.59657492475E+03  0.59657492475E+03  0.00000000000E+00 0.  1.
         25    1    1    2    0    0  0.25422060738E+01  0.49932375550E+02 -0.13624673343E+03  0.19154079803E+03  0.12500000000E+03 0.  0.
         25    1    1    2    0    0  0.14059461665E+02 -0.18090820731E+02 -0.18200406322E+03  0.22198068674E+03  0.12500000000E+03 0.  0.
         25    1    1    2    0    0 -0.16601667739E+02 -0.31841554819E+02 -0.21235835236E+03  0.24901921573E+03  0.12500000000E+03 0.  0.
</event>
<event>
 5    0  0.7360084E-005  0.3314294E+03  0.7546771E-02  0.1070506E+00
         21   -1    0    0  502  501  0.00000000000E+00  0.00000000000E+00  0.65481851675E+03  0.65481851675E+03  0.00000000000E+00 0. -1.
         21   -1    0    0  501  502 -0.00000000000E+00 -0.00000000000E+00 -0.16774941859E+03  0.16774941859E+03  0.00000000000E+00 0. -1.
         25    1    1    2    0    0  0.11268210557E+03 -0.81118511731E+02  0.25414516009E+02  0.18854274710E+03  0.12500000000E+03 0.  0.
         25    1    1    2    0    0 -0.13634436030E+02 -0.86399414891E+02  0.34006005570E+03  0.37271517037E+03  0.12500000000E+03 0.  0.
         25    1    1    2    0    0 -0.99047669536E+02  0.16751792662E+03  0.12159452645E+03  0.26131001788E+03  0.12500000000E+03 0.  0.
</event>
<event>
 5    0  0.9143798E-005  0.3651389E+03  0.7546771E-02  0.1056567E+00
         21   -1    0    0  502  501  0.00000000000E+00  0.00000000000E+00  0.45601563159E+03  0.45601563159E+03  0.00000000000E+00 0. -1.
         21   -1    0    0  501  502 -0.00000000000E+00 -0.00000000000E+00 -0.29237244927E+03  0.29237244927E+03  0.00000000000E+00 0. -1.
         25    1    1    2    0    0 -0.35534701645E+02  0.20318557540E+03  0.17888519417E+03  0.30028653944E+03  0.12500000000E+03 0.  0.
         25    1    1    2    0    0 -0.13719634305E+03 -0.10212066666E+03 -0.40112117015E+01  0.21187863725E+03  0.12500000000E+03 0.  0.
         25    1    1    2    0    0  0.17273104469E+03 -0.10106490875E+03 -0.11230800152E+02  0.23622290417E+03  0.12500000000E+03 0.  0.
</event>
<event>
 5    0  0.5631475E-005  0.2923542E+03  0.7546771E-02  0.1089126E+00
         21   -1    0    0  502  501  0.00000000000E+00  0.00000000000E+00  0.16906291337E+04  0.16906291337E+04  0.00000000000E+00 0.  1.
         21   -1    0    0  501  502 -0.00000000000E+00 -0.00000000000E+00 -0.50555707124E+02  0.50555707124E+02  0.00000000000E+00 0.  1.
         25    1    1    2    0    0  0.42245765371E+02 -0.15559406842E+03  0.54059614934E+03  0.57780915145E+03  0.12500000000E+03 0.  0.
         25    1    1    2    0    0 -0.11286211069E+03  0.15575044293E+03  0.78188970653E+03  0.81484512006E+03  0.12500000000E+03 0.  0.
         25    1    1    2    0    0  0.70616345316E+02 -0.15637451526E+00  0.31758757066E+03  0.34853056927E+03  0.12500000000E+03 0.  0.
</event>
<event>
 5    0  0.5631475E-005  0.2775898E+03  0.7546771E-02  0.1097013E+00
         21   -1    0    0  502  501  0.00000000000E+00  0.00000000000E+00  0.65517506295E+02  0.65517506295E+02  0.00000000000E+00 0.  1.
         21   -1    0    0  501  502 -0.00000000000E+00 -0.00000000000E+00 -0.11761150037E+04  0.11761150037E+04  0.00000000000E+00 0.  1.
         25    1    1    2    0    0  0.44887488103E+02  0.69155878884E+02 -0.42850672685E+03  0.45391677335E+03  0.12500000000E+03 0.  0.
         25    1    1    2    0    0 -0.16443889166E+01  0.10489776241E+03 -0.19821845562E+03  0.25675241133E+03  0.12500000000E+03 0.  0.
         25    1    1    2    0    0 -0.43243099187E+02 -0.17405364129E+03 -0.48387231492E+03  0.53096332530E+03  0.12500000000E+03 0.  0.
</event>
<event>
 5    0  0.5631475E-005  0.2831180E+03  0.7546771E-02  0.1093998E+00
         21   -1    0    0  502  501  0.00000000000E+00  0.00000000000E+00  0.33796856472E+03  0.33796856472E+03  0.00000000000E+00 0.  1.
         21   -1    0    0  501  502 -0.00000000000E+00 -0.00000000000E+00 -0.23716933524E+03  0.23716933524E+03  0.00000000000E+00 0.  1.
         25    1    1    2    0    0 -0.21228974551E+02  0.14385668382E+03  0.46976685888E+02  0.19742650242E+03  0.12500000000E+03 0.  0.
         25    1    1    2    0    0  0.76801470256E+02 -0.15011688551E+03 -0.37348306635E+02  0.21319812653E+03  0.12500000000E+03 0.  0.
         25    1    1    2    0    0 -0.55572495705E+02  0.62602016830E+01  0.91170850228E+02  0.16451327100E+03  0.12500000000E+03 0.  0.
</event>
<event>
 5    0  0.5631475E-005  0.2985548E+03  0.7546771E-02  0.1085965E+00
         21   -1    0    0  502  501  0.00000000000E+00  0.00000000000E+00  0.25252962225E+03  0.25252962225E+03  0.00000000000E+00 0. -1.
         21   -1    0    0  501  502 -0.00000000000E+00 -0.00000000000E+00 -0.35296847053E+03  0.35296847053E+03  0.00000000000E+00 0. -1.
         25    1    1    2    0    0 -0.38632928205E+02  0.17776189073E+03 -0.11577737953E+03  0.24924123765E+03  0.12500000000E+03 0.  0.
         25    1    1    2    0    0  0.74530752803E+02 -0.21854895101E+02  0.37932634403E+02  0.15197484761E+03  0.12500000000E+03 0.  0.
         25    1    1    2    0    0 -0.35897824598E+02 -0.15590699563E+03 -0.22594103154E+02  0.20428200751E+03  0.12500000000E+03 0.  0.
</event>
<event>
 5    0  0.5631475E-005  0.3725972E+03  0.7546771E-02  0.1053704E+00
         21   -1    0    0  502  501  0.00000000000E+00  0.00000000000E+00  0.58574172873E+02  0.58574172873E+02  0.00000000000E+00 0.  1.
         21   -1    0    0  501  502 -0.00000000000E+00 -0.00000000000E+00 -0.23701344777E+04  0.23701344777E+04  0.00000000000E+00 0.  1.
         25    1    1    2    0    0 -0.35075033884E+02 -0.13779913036E+02 -0.12379601575E+03  0.17991830791E+03  0.12500000000E+03 0.  0.
         25    1    1    2    0    0 -0.10972884020E+03 -0.12319897448E+02 -0.24455748839E+03  0.29601615390E+03  0.12500000000E+03 0.  0.
         25    1    1    2    0    0  0.14480387408E+03  0.26099810484E+02 -0.19432068007E+04  0.19527741888E+04  0.12500000000E+03 0.  0.
</event>
<event>
 5    0  0.5631475E-005  0.2368723E+03  0.7546771E-02  0.1121894E+00
         21   -1    0    0  502  501  0.00000000000E+00  0.00000000000E+00  0.27850530006E+03  0.27850530006E+03  0.00000000000E+00 0.  1.
         21   -1    0    0  501  502 -0.00000000000E+00 -0.00000000000E+00 -0.20146283836E+03  0.20146283836E+03  0.00000000000E+00 0.  1.
         25    1    1    2    0    0 -0.25622191262E+01  0.38255346831E+02  0.78947613212E+02  0.15273428613E+03  0.12500000000E+03 0.  0.
         25    1    1    2    0    0  0.13592585416E+01  0.78720859877E+02  0.35632877213E+02  0.15196553327E+03  0.12500000000E+03 0.  0.
         25    1    1    2    0    0  0.12029605845E+01 -0.11697620671E+03 -0.37538028730E+02  0.17526831902E+03  0.12500000000E+03 0.  0.
</event>
<event>
 5    0  0.5631475E-005  0.2947340E+03  0.7546771E-02  0.1087903E+00
         21   -1    0    0  502  501  0.00000000000E+00  0.00000000000E+00  0.22136430420E+03  0.22136430420E+03  0.00000000000E+00 0.  1.
         21   -1    0    0  501  502 -0.00000000000E+00 -0.00000000000E+00 -0.39242145405E+03  0.39242145405E+03  0.00000000000E+00 0. -1.
         25    1    1    2    0    0 -0.15118200789E+02  0.81874515502E+01 -0.58128457499E+02  0.13892268328E+03  0.12500000000E+03 0.  0.
         25    1    1    2    0    0  0.14557583386E+03 -0.13902174718E+03 -0.75394894326E+02  0.24865389537E+03  0.12500000000E+03 0.  0.
         25    1    1    2    0    0 -0.13045763307E+03  0.13083429563E+03 -0.37533798025E+02  0.22620917960E+03  0.12500000000E+03 0.  0.
</event>
<event>
 5    0  0.5903154E-005  0.3313426E+03  0.7546771E-02  0.1070544E+00
         21   -1    0    0  502  501  0.00000000000E+00  0.00000000000E+00  0.13381510996E+04  0.13381510996E+04  0.00000000000E+00 0. -1.
         21   -1    0    0  501  502 -0.00000000000E+00 -0.00000000000E+00 -0.82044506355E+02  0.82044506355E+02  0.00000000000E+00 0. -1.
         25    1    1    2    0    0 -0.30994868552E+02 -0.17194572860E+03  0.34805766096E+03  0.40901729891E+03  0.12500000000E+03 0.  0.
         25    1    1    2    0    0  0.90507972429E+00  0.17506057533E+03  0.20734887815E+03  0.29877346179E+03  0.12500000000E+03 0.  0.
         25    1    1    2    0    0  0.30089788828E+02 -0.31148467247E+01  0.70070005414E+03  0.71240484525E+03  0.12500000000E+03 0.  0.
</event>
<event>
 5    0  0.5631475E-005  0.2567831E+03  0.7546771E-02  0.1109092E+00
         21   -1    0    0  502  501  0.00000000000E+00  0.00000000000E+00  0.85022578127E+03  0.85022578127E+03  0.00000000000E+00 0.  1.
         21   -1    0    0  501  502 -0.00000000000E+00 -0.00000000000E+00 -0.77552997294E+02  0.77552997294E+02  0.00000000000E+00 0.  1.
         25    1    1    2    0    0 -0.11714741369E+02 -0.37103029651E+02  0.52634460798E+02  0.14110016456E+03  0.12500000000E+03 0.  0.
         25    1    1    2    0    0 -0.72097851154E+02 -0.20779177244E+02  0.44013618489E+03  0.46365368067E+03  0.12500000000E+03 0.  0.
         25    1    1    2    0    0  0.83812592523E+02  0.57882206896E+02  0.27990213829E+03  0.32302493334E+03  0.12500000000E+03 0.  0.
</event>
<event>
 5    0  0.5631475E-005  0.4914823E+03  0.7546771E-02  0.1016026E+00
         21   -1    0    0  502  501  0.00000000000E+00  0.00000000000E+00  0.63222337883E+03  0.63222337883E+03  0.00000000000E+00 0.  1.
         21   -1    0    0  501  502 -0.00000000000E+00 -0.00000000000E+00 -0.38207196403E+03  0.38207196403E+03  0.00000000000E+00 0.  1.
         25    1    1    2    0    0  0.19989769854E+03  0.22160885567E+03 -0.18488971208E+03  0.37266443408E+03  0.12500000000E+03 0.  0.
         25    1    1    2    0    0 -0.23361991369E+03 -0.14604889650E+03  0.37073142618E+03  0.47851367232E+03  0.12500000000E+03 0.  0.
         25    1    1    2    0    0  0.33722215151E+02 -0.75559959169E+02  0.64309700706E+02  0.16311723646E+03  0.12500000000E+03 0.  0.
</event>
<event>
 5    0  0.5631475E-005  0.4531568E+03  0.7546771E-02  0.1026785E+00
         21   -1    0    0  502  501  0.00000000000E+00  0.00000000000E+00  0.63610339320E+03  0.63610339320E+03  0.00000000000E+00 0. -1.
         21   -1    0    0  501  502 -0.00000000000E+00 -0.00000000000E+00 -0.32282662618E+03  0.32282662618E+03  0.00000000000E+00 0. -1.
         25    1    1    2    0    0  0.17231197053E+03  0.28903392043E+03  0.65875685023E+02  0.36496113248E+03  0.12500000000E+03 0.  0.
         25    1    1    2    0    0  0.56028699127E+02 -0.18620849075E+02 -0.10368607245E+02  0.13863065737E+03  0.12500000000E+03 0.  0.
         25    1    1    2    0    0 -0.22834066966E+03 -0.27041307135E+03  0.25776968925E+03  0.45533822953E+03  0.12500000000E+03 0.  0.
</event>
<event>
 5    0  0.5631475E-005  0.2044538E+03  0.7546771E-02  0.1146035E+00
         21   -1    0    0  502  501  0.00000000000E+00  0.00000000000E+00  0.26607149541E+02  0.26607149541E+02  0.00000000000E+00 0.  1.
         21   -1    0    0  501  502 -0.00000000000E+00 -0.00000000000E+00 -0.15710567177E+04  0.15710567177E+04  0.00000000000E+00 0.  1.
         25    1    1    2    0    0  0.48655826608E+02 -0.22684563437E+02 -0.60489030546E+03  0.61999940365E+03  0.12500000000E+03 0.  0.
         25    1    1    2    0    0 -0.36998928642E+02 -0.10033155180E+02 -0.60195564052E+03  0.61599121591E+03  0.12500000000E+03 0.  0.
         25    1    1    2    0    0 -0.11656897966E+02  0.32717718617E+02 -0.33760362214E+03  0.36167324765E+03  0.12500000000E+03 0.  0.
</event>
<event>
 5    0  0.6006661E-005  0.3742677E+03  0.7546771E-02  0.1053073E+00
         21   -1    0    0  502  501  0.00000000000E+00  0.00000000000E+00  0.10113713752E+04  0.10113713752E+04  0.00000000000E+00 0. -1.
         21   -1    0    0  501  502 -0.00000000000E+00 -0.00000000000E+00 -0.13850135101E+03  0.13850135101E+03  0.00000000000E+00 0. -1.
         25    1    1    2    0    0 -0.83363021036E+02 -0.12064500374E+02  0.27112256956E+02  0.15315031806E+03  0.12500000000E+03 0.  0.
         25    1    1    2    0    0 -0.83324610561E+01 -0.13949561528E+03  0.72438778129E+03  0.74825872148E+03  0.12500000000E+03 0.  0.
         25    1    1    2    0    0  0.91695482092E+02  0.15156011565E+03  0.12136998590E+03  0.24846368662E+03  0.12500000000E+03 0.  0.
</event>
<event>
 5    0  0.5631475E-005  0.4721266E+03  0.7546771E-02  0.1021322E+00
         21   -1    0    0  502  501  0.00000000000E+00  0.00000000000E+00  0.85282438857E+02  0.85282438857E+02  0.00000000000E+00 0. -1.
         21   -1    0    0  501  502 -0.00000000000E+00 -0.00000000000E+00 -0.26137098942E+04  0.26137098942E+04  0.00000000000E+00 0. -1.
         25    1    1    2    0    0 -0.17842739201E+02 -0.26703478265E+03 -0.76597057269E+03  0.82095179927E+03  0.12500000000E+03 0.  0.
         25    1    1    2    0    0  0.19102663434E+03  0.14688255908E+03 -0.34220088953E+03  0.43679756178E+03  0.12500000000E+03 0.  0.
         25    1    1    2    0    0 -0.17318389513E+03  0.12015222357E+03 -0.14202559931E+04  0.14412429720E+04  0.12500000000E+03 0.  0.
</event>
<event>
 5    0  0.5631475E-005  0.2935130E+03  0.7546771E-02  0.1088529E+00
         21   -1    0    0  502  501  0.00000000000E+00  0.00000000000E+00  0.59422186443E+02  0.59422186443E+02  0.00000000000E+00 0. -1.
         21   -1    0    0  501  502 -0.00000000000E+00 -0.00000000000E+00 -0.14497926956E+04  0.14497926956E+04  0.00000000000E+00 0. -1.
         25    1    1    2    0    0 -0.19314271681E+02 -0.10032870360E+03 -0.82677883224E+03  0.84239368902E+03  0.12500000000E+03 0.  0.
         25    1    1    2    0    0 -0.77000404809E+02  0.12410121034E+03 -0.36029129755E+03  0.40836869596E+03  0.12500000000E+03 0.  0.
         25    1    1    2    0    0  0.96314676490E+02 -0.23772506746E+02 -0.20330037933E+03  0.25845249703E+03  0.12500000000E+03 0.  0.
</event>
<event>
 5    0  0.5631475E-005  0.2873425E+03  0.7546771E-02  0.1091745E+00
         21   -1    0    0  502  501  0.00000000000E+00  0.00000000000E+00  0.10690143928E+04  0.10690143928E+04  0.00000000000E+00 0.  1.
         21   -1    0    0  501  502 -0.00000000000E+00 -0.00000000000E+00 -0.77235357745E+02  0.77235357745E+02  0.00000000000E+00 0.  1.
         25    1    1    2    0    0 -0.39353587948E+02  0.57658052914E+02  0.47585566447E+03  0.49692732805E+03  0.12500000000E+03 0.  0.
         25    1    1    2    0    0  0.16551334559E+03 -0.15421037003E+02  0.23000891805E+03  0.31009930399E+03  0.12500000000E+03 0.  0.
         25    1    1    2    0    0 -0.12615975764E+03 -0.42237015911E+02  0.28591445249E+03  0.33922311846E+03  0.12500000000E+03 0.  0.
</event>
<event>
 5    0  0.6267471E-005  0.2674898E+03  0.7546771E-02  0.1102725E+00
         21   -1    0    0  502  501  0.00000000000E+00  0.00000000000E+00  0.54514509908E+02  0.54514509908E+02  0.00000000000E+00 0.  1.
         21   -1    0    0  501  502 -0.00000000000E+00 -0.00000000000E+00 -0.13125091498E+04  0.13125091498E+04  0.00000000000E+00 0.  1.
         25    1    1    2    0    0 -0.13772238949E+02 -0.78333328059E+02 -0.43625555806E+03  0.46072735624E+03  0.12500000000E+03 0.  0.
         25    1    1    2    0    0  0.63469730683E+02  0.16853907863E+03 -0.43878067396E+03  0.49049700058E+03  0.12500000000E+03 0.  0.
         25    1    1    2    0    0 -0.49697491734E+02 -0.90205750569E+02 -0.38295840786E+03  0.41579930288E+03  0.12500000000E+03 0.  0.
</event>
<event>
 5    0  0.5631475E-005  0.4599144E+03  0.7546771E-02  0.1024806E+00
         21   -1    0    0  502  501  0.00000000000E+00  0.00000000000E+00  0.88527443565E+03  0.88527443565E+03  0.00000000000E+00 0.  1.
         21   -1    0    0  501  502 -0.00000000000E+00 -0.00000000000E+00 -0.23893293812E+03  0.23893293812E+03  0.00000000000E+00 0.  1.
         25    1    1    2    0    0  0.15528692059E+02 -0.25360664517E+03  0.21313088899E+03  0.35441112651E+03  0.12500000000E+03 0.  0.
         25    1    1    2    0    0  0.16405772145E+03 -0.21155246934E+02 -0.59885366444E+01  0.20742069089E+03  0.12500000000E+03 0.  0.
         25    1    1    2    0    0 -0.17958641350E+03  0.27476189210E+03  0.43919914519E+03  0.56237555637E+03  0.12500000000E+03 0.  0.
</event>
<event>
 5    0  0.5631475E-005  0.4227908E+03  0.7546771E-02  0.1036162E+00
         21   -1    0    0  502  501  0.00000000000E+00  0.00000000000E+00  0.12295407402E+03  0.12295407402E+03  0.00000000000E+00 0. -1.
         21   -1    0    0  501  502 -0.00000000000E+00 -0.00000000000E+00 -0.14538112750E+04  0.14538112750E+04  0.00000000000E+00 0. -1.
         25    1    1    2    0    0 -0.11969945177E+03 -0.11083063596E+03 -0.93509662254E+03  0.95741426880E+03  0.12500000000E+03 0.  0.
         25    1    1    2    0    0  0.21121139395E+03 -0.13724565380E+02 -0.10537573269E+03  0.26744655853E+03  0.12500000000E+03 0.  0.
         25    1    1    2    0    0 -0.91511942180E+02  0.12455520134E+03 -0.29038484576E+03  0.35190452170E+03  0.12500000000E+03 0.  0.
</event>
<event>
 5    0  0.5631475E-005  0.3157118E+03  0.7546771E-02  0.1077640E+00
         21   -1    0    0  502  501  0.00000000000E+00  0.00000000000E+00  0.89816920887E+03  0.89816920887E+03  0.00000000000E+00 0. -1.
         21   -1    0    0  501  502 -0.00000000000E+00 -0.00000000000E+00 -0.11097457827E+03  0.11097457827E+03  0.00000000000E+00 0. -1.
         25    1    1    2    0    0  0.78770136475E+02  0.89750712620E+02  0.32139169930E+03  0.36493499311E+03  0.12500000000E+03 0.  0.
         25    1    1    2    0    0 -0.55479954815E+02 -0.18246904804E+03  0.10593192061E+03  0.25143498301E+03  0.12500000000E+03 0.  0.
         25    1    1    2    0    0 -0.23290181660E+02  0.92718335416E+02  0.35987101069E+03  0.39277381102E+03  0.12500000000E+03 0.  0.
</event>
<event>
 5    0  0.5631475E-005  0.2725826E+03  0.7546771E-02  0.1099811E+00
         21   -1    0    0  502  501  0.00000000000E+00  0.00000000000E+00  0.93178549948E+02  0.93178549948E+02  0.00000000000E+00 0.  1.
         21   -1    0    0  501  502 -0.00000000000E+00 -0.00000000000E+00 -0.79740761055E+03  0.79740761055E+03  0.00000000000E+00 0.  1.
         25    1    1    2    0    0  0.11738513463E+03 -0.42484899630E+02 -0.15168779178E+03  0.23284849731E+03  0.12500000000E+03 0.  0.
         25    1    1    2    0    0 -0.15810915032E+02  0.58867370959E+02 -0.43765518581E+03  0.45921935289E+03  0.12500000000E+03 0.  0.
         25    1    1    2    0    0 -0.10157421959E+03 -0.16382471329E+02 -0.11488608302E+03  0.19851831030E+03  0.12500000000E+03 0.  0.
</event>
<event>
 5    0  0.5631475E-005  0.2859372E+03  0.7546771E-02  0.1092490E+00
         21   -1    0    0  502  501  0.00000000000E+00  0.00000000000E+00  0.22668999748E+04  0.22668999748E+04  0.00000000000E+00 0. -1.
         21   -1    0    0  501  502 -0.00000000000E+00 -0.00000000000E+00 -0.36066918543E+02  0.36066918543E+02  0.00000000000E+00 0. -1.
         25    1    1    2    0    0  0.17896915833E+03 -0.67728182150E+02  0.79599028448E+03  0.82815614426E+03  0.12500000000E+03 0.  0.
         25    1    1    2    0    0 -0.11075747762E+03  0.74025205881E+02  0.57765359354E+03  0.60585115671E+03  0.12500000000E+03 0.  0.
         25    1    1    2    0    0 -0.68211680711E+02 -0.62970237319E+01  0.85718917823E+03  0.86895959236E+03  0.12500000000E+03 0.  0.
</event>
<event>
 5    0  0.5631475E-005  0.3653954E+03  0.7546771E-02  0.1056468E+00
         21   -1    0    0  502  501  0.00000000000E+00  0.00000000000E+00  0.19539375438E+04  0.19539375438E+04  0.00000000000E+00 0.  1.
         21   -1    0    0  501  502 -0.00000000000E+00 -0.00000000000E+00 -0.68330648114E+02  0.68330648114E+02  0.00000000000E+00 0.  1.
         25    1    1    2    0    0 -0.62634748407E+02  0.55473018308E+02  0.78507614910E+02  0.16967266447E+03  0.12500000000E+03 0.  0.
         25    1    1    2    0    0  0.47355108969E+02 -0.78247694848E+01  0.15998890475E+04  0.16054823878E+04  0.12500000000E+03 0.  0.
         25    1    1    2    0    0  0.15279639437E+02 -0.47648248824E+02  0.20721023335E+03  0.24711313968E+03  0.12500000000E+03 0.  0.
</event>
<event>
 5    0  0.5631475E-005  0.2696426E+03  0.7546771E-02  0.1101484E+00
         21   -1    0    0  502  501  0.00000000000E+00  0.00000000000E+00  0.77482795447E+03  0.77482795447E+03  0.00000000000E+00 0. -1.
         21   -1    0    0  501  502 -0.00000000000E+00 -0.00000000000E+00 -0.93836458514E+02  0.93836458514E+02  0.00000000000E+00 0. -1.
         25    1    1    2    0    0  0.85740961118E+02 -0.94754176326E+02  0.15298572377E+03  0.23528599198E+03  0.12500000000E+03 0.  0.
         25    1    1    2    0    0  0.23676223129E+02  0.12500742219E+03  0.30971608302E+03  0.35740239398E+03  0.12500000000E+03 0.  0.
         25    1    1    2    0    0 -0.10941718425E+03 -0.30253245862E+02  0.21828968918E+03  0.27597602703E+03  0.12500000000E+03 0.  0.
</event>
<event>
 5    0  0.5631475E-005  0.2377011E+03  0.7546771E-02  0.1121334E+00
         21   -1    0    0  502  501  0.00000000000E+00  0.00000000000E+00  0.11012514723E+03  0.11012514723E+03  0.00000000000E+00 0.  1.
         21   -1    0    0  501  502 -0.00000000000E+00 -0.00000000000E+00 -0.51306898573E+03  0.51306898573E+03  0.00000000000E+00 0.  1.
         25    1    1    2    0    0  0.46542695429E+02  0.41404086630E+02 -0.39949768321E+02  0.14526357037E+03  0.12500000000E+03 0.  0.
         25    1    1    2    0    0 -0.25551926072E+02 -0.10208120826E+03 -0.14437410794E+03  0.21804209926E+03  0.12500000000E+03 0.  0.
         25    1    1    2    0    0 -0.20990769356E+02  0.60677121630E+02 -0.21861996224E+03  0.25988846334E+03  0.12500000000E+03 0.  0.
</event>
<event>
 5    0  0.5631475E-005  0.3753994E+03  0.7546771E-02  0.1052647E+00
         21   -1    0    0  502  501  0.00000000000E+00  0.00000000000E+00  0.98690253835E+03  0.98690253835E+03  0.00000000000E+00 0.  1.
         21   -1    0    0  501  502 -0.00000000000E+00 -0.00000000000E+00 -0.14279498447E+03  0.14279498447E+03  0.00000000000E+00 0.  1.
         25    1    1    2    0    0  0.11540429585E+03  0.12347800282E+03  0.27180929671E+03  0.34361353649E+03  0.12500000000E+03 0.  0.
         25    1    1    2    0    0 -0.19335076441E+03 -0.19314299333E+03  0.54286055272E+03  0.62049279905E+03  0.12500000000E+03 0.  0.
         25    1    1    2    0    0  0.77946468562E+02  0.69664990509E+02  0.29437704442E+02  0.16559118729E+03  0.12500000000E+03 0.  0.
</event>
<event>
 5    0  0.5631475E-005  0.2984100E+03  0.7546771E-02  0.1086038E+00
         21   -1    0    0  502  501  0.00000000000E+00  0.00000000000E+00  0.13678327843E+04  0.13678327843E+04  0.00000000000E+00 0. -1.
         21   -1    0    0  501  502 -0.00000000000E+00 -0.00000000000E+00 -0.65101891356E+02  0.65101891356E+02  0.00000000000E+00 0. -1.
         25    1    1    2    0    0 -0.90996878978E+02 -0.86261591396E+02  0.12977563014E+03  0.21951812753E+03  0.12500000000E+03 0.  0.
         25    1    1    2    0    0  0.93640786049E+02  0.22682030561E+02  0.44721974972E+03  0.47425054124E+03  0.12500000000E+03 0.  0.
         25    1    1    2    0    0 -0.26439070708E+01  0.63579560835E+02  0.72573551305E+03  0.73916600687E+03  0.12500000000E+03 0.  0.
</event>
<event>
 5    0  0.5631475E-005  0.2259835E+03  0.7546771E-02  0.1129499E+00
         21   -1    0    0  502  501  0.00000000000E+00  0.00000000000E+00  0.19411679814E+03  0.19411679814E+03  0.00000000000E+00 0. -1.
         21   -1    0    0  501  502 -0.00000000000E+00 -0.00000000000E+00 -0.26308151477E+03  0.26308151477E+03  0.00000000000E+00 0. -1.
         25    1    1    2    0    0  0.60343818845E+02 -0.14965744682E+02 -0.24982518301E+02  0.14182551325E+03  0.12500000000E+03 0.  0.
         25    1    1    2    0    0  0.48749568302E+02 -0.37171007224E+01 -0.61224495563E+02  0.14752551001E+03  0.12500000000E+03 0.  0.
         25    1    1    2    0    0 -0.10909338715E+03  0.18682845404E+02  0.17242297234E+02  0.16784728966E+03  0.12500000000E+03 0.  0.
</event>
<event>
 5    0  0.5993246E-005  0.2706850E+03  0.7546771E-02  0.1100888E+00
         21   -1    0    0  502  501  0.00000000000E+00  0.00000000000E+00  0.27986845477E+03  0.27986845477E+03  0.00000000000E+00 0.  1.
         21   -1    0    0  501  502 -0.00000000000E+00 -0.00000000000E+00 -0.26180285373E+03  0.26180285373E+03  0.00000000000E+00 0.  1.
         25    1    1    2    0    0  0.11348763376E+03  0.74482208997E+00  0.66405434210E+02  0.18142403222E+03  0.12500000000E+03 0.  0.
         25    1    1    2    0    0 -0.15240364974E+03  0.21963385749E+02 -0.94358932432E+02  0.21963121567E+03  0.12500000000E+03 0.  0.
         25    1    1    2    0    0  0.38916015986E+02 -0.22708207839E+02  0.46019099259E+02  0.14061606061E+03  0.12500000000E+03 0.  0.
</event>
<event>
 5    0  0.5631475E-005  0.2537562E+03  0.7546771E-02  0.1110954E+00
         21   -1    0    0  502  501  0.00000000000E+00  0.00000000000E+00  0.81683909997E+02  0.81683909997E+02  0.00000000000E+00 0. -1.
         21   -1    0    0  501  502 -0.00000000000E+00 -0.00000000000E+00 -0.78830977826E+03  0.78830977826E+03  0.00000000000E+00 0. -1.
         25    1    1    2    0    0 -0.93115071845E+02 -0.19703316946E+02 -0.23024885749E+03  0.27874392133E+03  0.12500000000E+03 0.  0.
         25    1    1    2    0    0 -0.65070841932E+02 -0.25413434890E+02 -0.20911835863E+03  0.25344732206E+03  0.12500000000E+03 0.  0.
         25    1    1    2    0    0  0.15818591378E+03  0.45116751836E+02 -0.26725865214E+03  0.33780244487E+03  0.12500000000E+03 0.  0.
</event>
<event>
 5    0  0.5631475E-005  0.3243590E+03  0.7546771E-02  0.1073660E+00
         21   -1    0    0  502  501  0.00000000000E+00  0.00000000000E+00  0.27861244761E+03  0.27861244761E+03  0.00000000000E+00 0.  1.
         21   -1    0    0  501  502 -0.00000000000E+00 -0.00000000000E+00 -0.37761686624E+03  0.37761686624E+03  0.00000000000E+00 0.  1.
         25    1    1    2    0    0  0.16028222713E+03 -0.13397586036E+03  0.82274263625E+02  0.25697077256E+03  0.12500000000E+03 0.  0.
         25    1    1    2    0    0 -0.70574363292E+02  0.11662202572E+03 -0.15685948064E+03  0.24251048287E+03  0.12500000000E+03 0.  0.
         25    1    1    2    0    0 -0.89707863837E+02  0.17353834645E+02 -0.24419201615E+02  0.15674805842E+03  0.12500000000E+03 0.  0.
</event>
<event>
 5    0  0.5631475E-005  0.4210895E+03  0.7546771E-02  0.1036712E+00
         21   -1    0    0  502  501  0.00000000000E+00  0.00000000000E+00  0.17220740279E+03  0.17220740279E+03  0.00000000000E+00 0.  1.
         21   -1    0    0  501  502 -0.00000000000E+00 -0.00000000000E+00 -0.10296676967E+04  0.10296676967E+04  0.00000000000E+00 0.  1.
         25    1    1    2    0    0  0.73336851567E+01  0.89824909278E+02 -0.84136413344E+03  0.85536010095E+03  0.12500000000E+03 0.  0.
         25    1    1    2    0    0 -0.74054965324E+02 -0.12745644844E+03  0.23398750580E+02  0.19468380946E+03  0.12500000000E+03 0.  0.
         25    1    1    2    0    0  0.66721280167E+02  0.37631539166E+02 -0.39494911006E+02  0.15183118903E+03  0.12500000000E+03 0.  0.
</event>
<event>
 5    0  0.5631475E-005  0.3276878E+03  0.7546771E-02  0.1072165E+00
         21   -1    0    0  502  501  0.00000000000E+00  0.00000000000E+00  0.16278244865E+03  0.16278244865E+03  0.00000000000E+00 0. -1.
         21   -1    0    0  501  502 -0.00000000000E+00 -0.00000000000E+00 -0.65964890143E+03  0.65964890143E+03  0.00000000000E+00 0. -1.
         25    1    1    2    0    0  0.76643540530E+01 -0.14817941962E+03 -0.24251063188E+03  0.31056768875E+03  0.12500000000E+03 0.  0.
         25    1    1    2    0    0 -0.11700380517E+03 -0.54801149715E+02 -0.78909673794E+02  0.19632827879E+03  0.12500000000E+03 0.  0.
         25    1    1    2    0    0  0.10933945112E+03  0.20298056933E+03 -0.17544614712E+03  0.31553538254E+03  0.12500000000E+03 0.  0.
</event>
<event>
 5    0  0.5631475E-005  0.3043353E+03  0.7546771E-02  0.1083093E+00
         21   -1    0    0  502  501  0.00000000000E+00  0.00000000000E+00  0.98745317193E+02  0.98745317193E+02  0.00000000000E+00 0.  1.
         21   -1    0    0  501  502 -0.00000000000E+00 -0.00000000000E+00 -0.93796819674E+03  0.93796819674E+03  0.00000000000E+00 0.  1.
         25    1    1    2    0    0  0.12684552693E+03  0.15717631693E+03 -0.23431626284E+03  0.33365145487E+03  0.12500000000E+03 0.  0.
         25    1    1    2    0    0 -0.12866044597E+03 -0.10193878979E+03 -0.25901678562E+03  0.33114909399E+03  0.12500000000E+03 0.  0.
         25    1    1    2    0    0  0.18149190384E+01 -0.55237527138E+02 -0.34588983109E+03  0.37191296507E+03  0.12500000000E+03 0.  0.
</event>
<event>
 5    0  0.5631475E-005  0.4182813E+03  0.7546771E-02  0.1037627E+00
         21   -1    0    0  502  501  0.00000000000E+00  0.00000000000E+00  0.11377094979E+04  0.11377094979E+04  0.00000000000E+00 0.  1.
         21   -1    0    0  501  502 -0.00000000000E+00 -0.00000000000E+00 -0.15378203173E+03  0.15378203173E+03  0.00000000000E+00 0.  1.
         25    1    1    2    0    0 -0.65319781929E+02  0.60713983195E+01  0.87614191815E+03  0.88744193981E+03  0.12500000000E+03 0.  0.
         25    1    1    2    0    0 -0.93913137095E+02  0.55496398607E+02  0.97006579364E+02  0.19218429701E+03  0.12500000000E+03 0.  0.
         25    1    1    2    0    0  0.15923291902E+03 -0.61567796927E+02  0.10778968626E+02  0.21186529278E+03  0.12500000000E+03 0.  0.
</event>
<event>
 5    0  0.6416080E-005  0.2842279E+03  0.7546771E-02  0.1093402E+00
         21   -1    0    0  502  501  0.00000000000E+00  0.00000000000E+00  0.23479449887E+03  0.23479449887E+03  0.00000000000E+00 0. -1.
         21   -1    0    0  501  502 -0.00000000000E+00 -0.00000000000E+00 -0.34406888922E+03  0.34406888922E+03  0.00000000000E+00 0. -1.
         25    1    1    2    0    0 -0.73191242949E+02  0.43637464798E+02 -0.21864339013E+03  0.26587801418E+03  0.12500000000E+03 0.  0.
         25    1    1    2    0    0  0.99096176023E+02 -0.85942472732E+01  0.46105651285E+02  0.16626678643E+03  0.12500000000E+03 0.  0.
         25    1    1    2    0    0 -0.25904933074E+02 -0.35043217525E+02  0.63263348491E+02  0.14671858749E+03  0.12500000000E+03 0.  0.
</event>
<event>
 5    0  0.5631475E-005  0.2417119E+03  0.7546771E-02  0.1118658E+00
         21   -1    0    0  502  501  0.00000000000E+00  0.00000000000E+00  0.47469364926E+03  0.47469364926E+03  0.00000000000E+00 0.  1.
         21   -1    0    0  501  502 -0.00000000000E+00 -0.00000000000E+00 -0.12307857817E+03  0.12307857817E+03  0.00000000000E+00 0.  1.
         25    1    1    2    0    0 -0.55525502621E+02  0.10819471656E+03  0.17158902252E+03  0.24465684291E+03  0.12500000000E+03 0.  0.
         25    1    1    2    0    0  0.82199323557E+02 -0.53670549756E+02  0.61327869800E+02  0.17036244985E+03  0.12500000000E+03 0.  0.
         25    1    1    2    0    0 -0.26673820936E+02 -0.54524166804E+02  0.11869817877E+03  0.18275293468E+03  0.12500000000E+03 0.  0.
</event>
<event>
 5    0  0.5770358E-005  0.5737661E+03  0.7546771E-02  0.9961379E-01
         21   -1    0    0  502  501  0.00000000000E+00  0.00000000000E+00  0.14171575227E+04  0.14171575227E+04  0.00000000000E+00 0. -1.
         21   -1    0    0  501  502 -0.00000000000E+00 -0.00000000000E+00 -0.23230130488E+03  0.23230130488E+03  0.00000000000E+00 0. -1.
         25    1    1    2    0    0  0.73936212944E+02 -0.31773909420E+03  0.89982076283E+02  0.36075818719E+03  0.12500000000E+03 0.  0.
         25    1    1    2    0    0  0.28977714137E+02  0.40389334261E+03  0.44951316269E+03  0.61778363814E+03  0.12500000000E+03 0.  0.
         25    1    1    2    0    0 -0.10291392708E+03 -0.86154248403E+02  0.64536097884E+03  0.67091700226E+03  0.12500000000E+03 0.  0.
</event>
<event>
 5    0  0.5631475E-005  0.2120312E+03  0.7546771E-02  0.1139968E+00
         21   -1    0    0  502  501  0.00000000000E+00  0.00000000000E+00  0.36897885551E+03  0.36897885551E+03  0.00000000000E+00 0.  1.
         21   -1    0    0  501  502 -0.00000000000E+00 -0.00000000000E+00 -0.12184230221E+03  0.12184230221E+03  0.00000000000E+00 0.  1.
         25    1    1    2    0    0  0.58848947255E+02  0.44152014710E+01  0.40656010739E+02  0.14408540456E+03  0.12500000000E+03 0.  0.
         25    1    1    2    0    0  0.12304596262E+02 -0.33219484760E+02  0.11746420128E+03  0.17515072321E+03  0.12500000000E+03 0.  0.
         25    1    1    2    0    0 -0.71153543517E+02  0.28804283289E+02  0.89016341286E+02  0.17158502996E+03  0.12500000000E+03 0.  0.
</event>
<event>
 5    0  0.5964594E-005  0.3689356E+03  0.7546771E-02  0.1055101E+00
         21   -1    0    0  502  501  0.00000000000E+00  0.00000000000E+00  0.17274165999E+03  0.17274165999E+03  0.00000000000E+00 0. -1.
         21   -1    0    0  501  502 -0.00000000000E+00 -0.00000000000E+00 -0.78795978775E+03  0.78795978775E+03  0.00000000000E+00 0. -1.
         25    1    1    2    0    0 -0.15068151289E+03 -0.19067197266E+02 -0.18940195088E+03  0.27306881063E+03  0.12500000000E+03 0.  0.
         25    1    1    2    0    0  0.11340583034E+03 -0.20731777407E+03 -0.28526991040E+03  0.39095455437E+03  0.12500000000E+03 0.  0.
         25    1    1    2    0    0  0.37275682554E+02  0.22638497134E+03 -0.14054626648E+03  0.29667808274E+03  0.12500000000E+03 0.  0.
</event>
<event>
 5    0  0.5631475E-005  0.3379073E+03  0.7546771E-02  0.1067691E+00
         21   -1    0    0  502  501  0.00000000000E+00  0.00000000000E+00  0.52171514978E+03  0.52171514978E+03  0.00000000000E+00 0. -1.
         21   -1    0    0  501  502 -0.00000000000E+00 -0.00000000000E+00 -0.21885765276E+03  0.21885765276E+03  0.00000000000E+00 0. -1.
         25    1    1    2    0    0 -0.21394105737E+03  0.52213313115E+02  0.10553862685E+02  0.25344307075E+03  0.12500000000E+03 0.  0.
         25    1    1    2    0    0  0.18651964289E+03  0.41857364457E+02  0.19894795999E+03  0.30289751885E+03  0.12500000000E+03 0.  0.
         25    1    1    2    0    0  0.27421414474E+02 -0.94070677572E+02  0.93355674345E+02  0.18423221294E+03  0.12500000000E+03 0.  0.
</event>
<event>
 5    0  0.5631475E-005  0.3616143E+03  0.7546771E-02  0.1057947E+00
         21   -1    0    0  502  501  0.00000000000E+00  0.00000000000E+00  0.12630997205E+03  0.12630997205E+03  0.00000000000E+00 0.  1.
         21   -1    0    0  501  502 -0.00000000000E+00 -0.00000000000E+00 -0.10352695884E+04  0.10352695884E+04  0.00000000000E+00 0.  1.
         25    1    1    2    0    0 -0.44047571188E+02 -0.13658179183E+03 -0.67009116758E+02  0.20176718295E+03  0.12500000000E+03 0.  0.
         25    1    1    2    0    0  0.92394501233E+02 -0.94672532221E+02 -0.24014339303E+03  0.30131956696E+03  0.12500000000E+03 0.  0.
         25    1    1    2    0    0 -0.48346930045E+02  0.23125432405E+03 -0.60180710653E+03  0.65849281052E+03  0.12500000000E+03 0.  0.
</event>
<event>
 5    0  0.5631475E-005  0.5057651E+03  0.7546771E-02  0.1012285E+00
         21   -1    0    0  502  501  0.00000000000E+00  0.00000000000E+00  0.47168054390E+03  0.47168054390E+03  0.00000000000E+00 0. -1.
         21   -1    0    0  501  502 -0.00000000000E+00 -0.00000000000E+00 -0.54231271155E+03  0.54231271155E+03  0.00000000000E+00 0. -1.
         25    1    1    2    0    0 -0.10568146385E+03 -0.20299217436E+03 -0.82079830512E+02  0.27337976009E+03  0.12500000000E+03 0.  0.
         25    1    1    2    0    0  0.15861875991E+03  0.31637100600E+03  0.24457465191E+03  0.44798692479E+03  0.12500000000E+03 0.  0.
         25    1    1    2    0    0 -0.52937296055E+02 -0.11337883164E+03 -0.23312698905E+03  0.29262657056E+03  0.12500000000E+03 0.  0.
</event>
<event>
 5    0  0.5631475E-005  0.2990613E+03  0.7546771E-02  0.1085711E+00
         21   -1    0    0  502  501  0.00000000000E+00  0.00000000000E+00  0.33984693651E+03  0.33984693651E+03  0.00000000000E+00 0. -1.
         21   -1    0    0  501  502 -0.00000000000E+00 -0.00000000000E+00 -0.26317047739E+03  0.26317047739E+03  0.00000000000E+00 0. -1.
         25    1    1    2    0    0 -0.27586149124E+02 -0.96139642292E+02 -0.23600856650E+02  0.16182035372E+03  0.12500000000E+03 0.  0.
         25    1    1    2    0    0  0.58662365337E+02  0.16908502161E+03 -0.56585896922E+02  0.22551714208E+03  0.12500000000E+03 0.  0.
         25    1    1    2    0    0 -0.31076216214E+02 -0.72945379322E+02  0.15686321269E+03  0.21567991811E+03  0.12500000000E+03 0.  0.
</event>
<event>
 5    0  0.5631475E-005  0.2690841E+03  0.7546771E-02  0.1101805E+00
         21   -1    0    0  502  501  0.00000000000E+00  0.00000000000E+00  0.24744496147E+03  0.24744496147E+03  0.00000000000E+00 0. -1.
         21   -1    0    0  501  502 -0.00000000000E+00 -0.00000000000E+00 -0.29261562070E+03  0.29261562070E+03  0.00000000000E+00 0. -1.
         25    1    1    2    0    0  0.23381623046E+02 -0.39997654796E+02  0.71283595784E+02  0.15117163660E+03  0.12500000000E+03 0.  0.
         25    1    1    2    0    0  0.35457730110E+02  0.68502055778E+02  0.63678970183E+02  0.16009307766E+03  0.12500000000E+03 0.  0.
         25    1    1    2    0    0 -0.58839353156E+02 -0.28504400983E+02 -0.18013322519E+03  0.22879586791E+03  0.12500000000E+03 0.  0.
</event>
<event>
 5    0  0.5833628E-005  0.2949204E+03  0.7546771E-02  0.1087808E+00
         21   -1    0    0  502  501  0.00000000000E+00  0.00000000000E+00  0.34860529534E+03  0.34860529534E+03  0.00000000000E+00 0. -1.
         21   -1    0    0  501  502 -0.00000000000E+00 -0.00000000000E+00 -0.24950287762E+03  0.24950287762E+03  0.00000000000E+00 0. -1.
         25    1    1    2    0    0  0.63708363238E+02 -0.75292808041E+02  0.62741539804E+02  0.17114106259E+03  0.12500000000E+03 0.  0.
         25    1    1    2    0    0  0.10588703286E+02  0.11473573527E+03 -0.12133637574E+03  0.20886341390E+03  0.12500000000E+03 0.  0.
         25    1    1    2    0    0 -0.74297066523E+02 -0.39442927232E+02  0.15769725366E+03  0.21810369647E+03  0.12500000000E+03 0.  0.
</event>
<event>
 5    0  0.5631475E-005  0.2375193E+03  0.7546771E-02  0.1121457E+00
         21   -1    0    0  502  501  0.00000000000E+00  0.00000000000E+00  0.17723812729E+03  0.17723812729E+03  0.00000000000E+00 0.  1.
         21   -1    0    0  501  502 -0.00000000000E+00 -0.00000000000E+00 -0.31830289221E+03  0.31830289221E+03  0.00000000000E+00 0.  1.
         25    1    1    2    0    0  0.19885027006E+02  0.38937026438E+02 -0.18997072587E+02  0.13378114626E+03  0.12500000000E+03 0.  0.
         25    1    1    2    0    0 -0.11823426663E+03 -0.49893491800E+02 -0.45166789545E+02  0.18475318998E+03  0.12500000000E+03 0.  0.
         25    1    1    2    0    0  0.98349239627E+02  0.10956465362E+02 -0.76900902787E+02  0.17700668326E+03  0.12500000000E+03 0.  0.
</event>
<event>
 5    0  0.5631475E-005  0.4188395E+03  0.7546771E-02  0.1037445E+00
         21   -1    0    0  502  501  0.00000000000E+00  0.00000000000E+00  0.44958433863E+03  0.44958433863E+03  0.00000000000E+00 0.  1.
         21   -1    0    0  501  502 -0.00000000000E+00 -0.00000000000E+00 -0.39019709406E+03  0.39019709406E+03  0.00000000000E+00 0.  1.
         25    1    1    2    0    0  0.12532781142E+03  0.76205973814E+02 -0.13032302801E+03  0.23264458384E+03  0.12500000000E+03 0.  0.
         25    1    1    2    0    0 -0.11666983055E+03 -0.22089917695E+03  0.27998928928E+03  0.39550890995E+03  0.12500000000E+03 0.  0.
         25    1    1    2    0    0 -0.86579808704E+01  0.14469320314E+03 -0.90279016705E+02  0.21162793890E+03  0.12500000000E+03 0.  0.
</event>
<event>
 5    0  0.5631475E-005  0.2413217E+03  0.7546771E-02  0.1118915E+00
         21   -1    0    0  502  501  0.00000000000E+00  0.00000000000E+00  0.32652380736E+03  0.32652380736E+03  0.00000000000E+00 0. -1.
         21   -1    0    0  501  502 -0.00000000000E+00 -0.00000000000E+00 -0.17835198624E+03  0.17835198624E+03  0.00000000000E+00 0. -1.
         25    1    1    2    0    0  0.15437510784E+02 -0.17780622330E+01 -0.48349635193E+02  0.13492281300E+03  0.12500000000E+03 0.  0.
         25    1    1    2    0    0 -0.92289103263E+02  0.40142738350E+02  0.84235909978E+02  0.18124405246E+03  0.12500000000E+03 0.  0.
         25    1    1    2    0    0  0.76851592480E+02 -0.38364676117E+02  0.11228554633E+03  0.18870892813E+03  0.12500000000E+03 0.  0.
</event>
<event>
 5    0  0.5631475E-005  0.2528422E+03  0.7546771E-02  0.1111522E+00
         21   -1    0    0  502  501  0.00000000000E+00  0.00000000000E+00  0.79041192883E+02  0.79041192883E+02  0.00000000000E+00 0.  1.
         21   -1    0    0  501  502 -0.00000000000E+00 -0.00000000000E+00 -0.80880823586E+03  0.80880823586E+03  0.00000000000E+00 0.  1.
         25    1    1    2    0    0  0.57608304332E+02 -0.16951312888E+02 -0.32873489843E+03  0.35678802836E+03  0.12500000000E+03 0.  0.
         25    1    1    2    0    0 -0.54864171207E+01  0.70333617815E+02 -0.34746848798E+03  0.37594716212E+03  0.12500000000E+03 0.  0.
         25    1    1    2    0    0 -0.52121887211E+02 -0.53382304927E+02 -0.53563656565E+02  0.15511423826E+03  0.12500000000E+03 0.  0.
</event>
<event>
 5    0  0.5779166E-005  0.4089926E+03  0.7546771E-02  0.1040710E+00
         21   -1    0    0  502  501  0.00000000000E+00  0.00000000000E+00  0.88004307168E+03  0.88004307168E+03  0.00000000000E+00 0. -1.
         21   -1    0    0  501  502 -0.00000000000E+00 -0.00000000000E+00 -0.19007590974E+03  0.19007590974E+03  0.00000000000E+00 0. -1.
         25    1    1    2    0    0  0.10647547877E+02  0.89697575057E+02 -0.61337730695E+02  0.16597090846E+03  0.12500000000E+03 0.  0.
         25    1    1    2    0    0  0.33668674142E+02 -0.18848520034E+03  0.13390177136E+03  0.26498100826E+03  0.12500000000E+03 0.  0.
         25    1    1    2    0    0 -0.44316222019E+02  0.98787625282E+02  0.61740312127E+03  0.63916706470E+03  0.12500000000E+03 0.  0.
</event>
<event>
 5    0  0.5631475E-005  0.3922878E+03  0.7546771E-02  0.1046483E+00
         21   -1    0    0  502  501  0.00000000000E+00  0.00000000000E+00  0.93230134056E+03  0.93230134056E+03  0.00000000000E+00 0.  1.
         21   -1    0    0  501  502 -0.00000000000E+00 -0.00000000000E+00 -0.16506433936E+03  0.16506433936E+03  0.00000000000E+00 0.  1.
         25    1    1    2    0    0 -0.29833522284E+03  0.35267925858E+02  0.45909351712E+03  0.56270737443E+03  0.12500000000E+03 0.  0.
         25    1    1    2    0    0  0.15635750133E+03  0.30001037431E+02  0.25879984078E+03  0.32855758712E+03  0.12500000000E+03 0.  0.
         25    1    1    2    0    0  0.14197772151E+03 -0.65268963289E+02  0.49343643306E+02  0.20610071836E+03  0.12500000000E+03 0.  0.
</event>
<event>
 5    0  0.5631475E-005  0.6424703E+03  0.7546771E-02  0.9821012E-01
         21   -1    0    0  502  501  0.00000000000E+00  0.00000000000E+00  0.76201742777E+03  0.76201742777E+03  0.00000000000E+00 0.  1.
         21   -1    0    0  501  502 -0.00000000000E+00 -0.00000000000E+00 -0.54167796535E+03  0.54167796535E+03  0.00000000000E+00 0.  1.
         25    1    1    2    0    0  0.30894083054E+02 -0.59541169417E+03  0.23572398675E+03  0.65319241258E+03  0.12500000000E+03 0.  0.
         25    1    1    2    0    0 -0.15759896590E+01  0.36418180541E+03  0.67012078588E+01  0.38509839953E+03  0.12500000000E+03 0.  0.
         25    1    1    2    0    0 -0.29318093395E+02  0.23122988876E+03 -0.22085732175E+02  0.26540458101E+03  0.12500000000E+03 0.  0.
</event>
<event>
 5    0  0.5631475E-005  0.3910514E+03  0.7546771E-02  0.1046923E+00
         21   -1    0    0  502  501  0.00000000000E+00  0.00000000000E+00  0.17798919305E+03  0.17798919305E+03  0.00000000000E+00 0.  1.
         21   -1    0    0  501  502 -0.00000000000E+00 -0.00000000000E+00 -0.85916014937E+03  0.85916014937E+03  0.00000000000E+00 0.  1.
         25    1    1    2    0    0  0.13398355883E+03 -0.28584809277E+03 -0.21693171636E+03  0.40292070652E+03  0.12500000000E+03 0.  0.
         25    1    1    2    0    0  0.29171231073E+01  0.94166560768E+02 -0.23620215723E+03  0.28335897701E+03  0.12500000000E+03 0.  0.
         25    1    1    2    0    0 -0.13690068193E+03  0.19168153201E+03 -0.22803708274E+03  0.35086965889E+03  0.12500000000E+03 0.  0.
</event>
<event>
 5    0  0.5631475E-005  0.3336324E+03  0.7546771E-02  0.1069541E+00
         21   -1    0    0  502  501  0.00000000000E+00  0.00000000000E+00  0.25991231091E+03  0.25991231091E+03  0.00000000000E+00 0. -1.
         21   -1    0    0  501  502 -0.00000000000E+00 -0.00000000000E+00 -0.42826195983E+03  0.42826195983E+03  0.00000000000E+00 0. -1.
         25    1    1    2    0    0 -0.12115750973E+03 -0.47721158263E+02  0.11779091023E+03  0.21553688697E+03  0.12500000000E+03 0.  0.
         25    1    1    2    0    0  0.62362477042E+02 -0.80027081820E+02 -0.45745694963E+02  0.16736511278E+03  0.12500000000E+03 0.  0.
         25    1    1    2    0    0  0.58795032692E+02  0.12774824008E+03 -0.24039486418E+03  0.30527227099E+03  0.12500000000E+03 0.  0.
</event>
<event>
 5    0  0.5631475E-005  0.2912300E+03  0.7546771E-02  0.1089709E+00
         21   -1    0    0  502  501  0.00000000000E+00  0.00000000000E+00  0.10762042559E+04  0.10762042559E+04  0.00000000000E+00 0. -1.
         21   -1    0    0  501  502 -0.00000000000E+00 -0.00000000000E+00 -0.78809281552E+02  0.78809281552E+02  0.00000000000E+00 0. -1.
         25    1    1    2    0    0  0.90954297999E+02 -0.69681945734E+02  0.16249075810E+03  0.23485421937E+03  0.12500000000E+03 0.  0.
         25    1    1    2    0    0  0.30479341670E+02 -0.45992644447E+02  0.54998794925E+03  0.56670632424E+03  0.12500000000E+03 0.  0.
         25    1    1    2    0    0 -0.12143363967E+03  0.11567459018E+03  0.28491626697E+03  0.35345299382E+03  0.12500000000E+03 0.  0.
</event>
<event>
 5    0  0.5631475E-005  0.3442502E+03  0.7546771E-02  0.1065000E+00
         21   -1    0    0  502  501  0.00000000000E+00  0.00000000000E+00  0.99940126374E+03  0.99940126374E+03  0.00000000000E+00 0. -1.
         21   -1    0    0  501  502 -0.00000000000E+00 -0.00000000000E+00 -0.11857918904E+03  0.11857918904E+03  0.00000000000E+00 0. -1.
         25    1    1    2    0    0  0.66281470297E+02 -0.13538246723E+03  0.15836864837E+03  0.25184772090E+03  0.12500000000E+03 0.  0.
         25    1    1    2    0    0 -0.15144658882E+03  0.22393693094E+03  0.51119892037E+03  0.59163599831E+03  0.12500000000E+03 0.  0.
         25    1    1    2    0    0  0.85165118523E+02 -0.88554463708E+02  0.21125450595E+03  0.27449673357E+03  0.12500000000E+03 0.  0.
</event>
<event>
 5    0  0.5631475E-005  0.5749410E+03  0.7546771E-02  0.9958804E-01
         21   -1    0    0  502  501  0.00000000000E+00  0.00000000000E+00  0.17096482644E+03  0.17096482644E+03  0.00000000000E+00 0. -1.
         21   -1    0    0  501  502 -0.00000000000E+00 -0.00000000000E+00 -0.19334804186E+04  0.19334804186E+04  0.00000000000E+00 0. -1.
         25    1    1    2    0    0 -0.10602750005E+03  0.99788823616E+02 -0.96236553936E+02  0.21467676725E+03  0.12500000000E+03 0.  0.
         25    1    1    2    0    0 -0.18115412558E+03 -0.74930512679E+02 -0.15295427762E+04  0.15471126343E+04  0.12500000000E+03 0.  0.
         25    1    1    2    0    0  0.28718162563E+03 -0.24858310938E+02 -0.13673626201E+03  0.34265584348E+03  0.12500000000E+03 0.  0.
</event>
<event>
 5    0  0.6139468E-005  0.3792680E+03  0.7546771E-02  0.1051205E+00
         21   -1    0    0  502  501  0.00000000000E+00  0.00000000000E+00  0.21913208921E+03  0.21913208921E+03  0.00000000000E+00 0. -1.
         21   -1    0    0  501  502 -0.00000000000E+00 -0.00000000000E+00 -0.65642715311E+03  0.65642715311E+03  0.00000000000E+00 0. -1.
         25    1    1    2    0    0  0.13991838174E+03 -0.43358156710E+02 -0.53876274694E+02  0.19996183705E+03  0.12500000000E+03 0.  0.
         25    1    1    2    0    0  0.90391214702E+01  0.17759857025E+03  0.89745719574E+01  0.21755114528E+03  0.12500000000E+03 0.  0.
         25    1    1    2    0    0 -0.14895750321E+03 -0.13424041354E+03 -0.39239336116E+03  0.45804625998E+03  0.12500000000E+03 0.  0.
</event>
<event>
 5    0  0.5631475E-005  0.3265637E+03  0.7546771E-02  0.1072668E+00
         21   -1    0    0  502  501  0.00000000000E+00  0.00000000000E+00  0.56995019710E+02  0.56995019710E+02  0.00000000000E+00 0.  1.
         21   -1    0    0  501  502 -0.00000000000E+00 -0.00000000000E+00 -0.18711082090E+04  0.18711082090E+04  0.00000000000E+00 0.  1.
         25    1    1    2    0    0  0.11914058831E+03  0.40316290836E+02 -0.35694308747E+03  0.39856398580E+03  0.12500000000E+03 0.  0.
         25    1    1    2    0    0  0.10654858801E+03 -0.10057882350E+03 -0.48295191400E+03  0.51993870079E+03  0.12500000000E+03 0.  0.
         25    1    1    2    0    0 -0.22568917632E+03  0.60262532667E+02 -0.97421818778E+03  0.10096005421E+04  0.12500000000E+03 0.  0.
</event>
<event>
 5    0  0.5631475E-005  0.5937294E+03  0.7546771E-02  0.9918502E-01
         21   -1    0    0  502  501  0.00000000000E+00  0.00000000000E+00  0.86764700539E+03  0.86764700539E+03  0.00000000000E+00 0.  1.
         21   -1    0    0  501  502 -0.00000000000E+00 -0.00000000000E+00 -0.40628798740E+03  0.40628798740E+03  0.00000000000E+00 0.  1.
         25    1    1    2    0    0 -0.26993196238E+03  0.38002031050E+03  0.32342418719E+03  0.58095344527E+03  0.12500000000E+03 0.  0.
         25    1    1    2    0    0  0.15870144153E+03  0.28985858492E+01  0.18310550555E+03  0.27266678475E+03  0.12500000000E+03 0.  0.
         25    1    1    2    0    0  0.11123052085E+03 -0.38291889635E+03 -0.45170674742E+02  0.42031476278E+03  0.12500000000E+03 0.  0.
</event>
<event>
 5    0  0.5631475E-005  0.2488840E+03  0.7546771E-02  0.1114012E+00
         21   -1    0    0  502  501  0.00000000000E+00  0.00000000000E+00  0.39643436769E+02  0.39643436769E+02  0.00000000000E+00 0. -1.
         21   -1    0    0  501  502 -0.00000000000E+00 -0.00000000000E+00 -0.15625092159E+04  0.15625092159E+04  0.00000000000E+00 0. -1.
         25    1    1    2    0    0 -0.11422816974E+03 -0.83140976315E+02 -0.57707255572E+03  0.60712291282E+03  0.12500000000E+03 0.  0.
         25    1    1    2    0    0  0.79107235384E+01  0.37306409094E+00 -0.37186555271E+03  0.39239228843E+03  0.12500000000E+03 0.  0.
         25    1    1    2    0    0  0.10631744621E+03  0.82767912225E+02 -0.57392767071E+03  0.60263745143E+03  0.12500000000E+03 0.  0.
</event>
<event>
 5    0  0.5631475E-005  0.5343649E+03  0.7546771E-02  0.1005179E+00
         21   -1    0    0  502  501  0.00000000000E+00  0.00000000000E+00  0.24908408047E+04  0.24908408047E+04  0.00000000000E+00 0. -1.
         21   -1    0    0  501  502 -0.00000000000E+00 -0.00000000000E+00 -0.11463831791E+03  0.11463831791E+03  0.00000000000E+00 0. -1.
         25    1    1    2    0    0  0.13825548718E+03 -0.20018860835E+03  0.20415059714E+04  0.20597479676E+04  0.12500000000E+03 0.  0.
         25    1    1    2    0    0 -0.23908127326E+02  0.16140888475E+03  0.48968341557E+02  0.21129913654E+03  0.12500000000E+03 0.  0.
         25    1    1    2    0    0 -0.11434735985E+03  0.38779723601E+02  0.28572817381E+03  0.33443201847E+03  0.12500000000E+03 0.  0.
</event>
<event>
 5    0  0.8629171E-005  0.4622073E+03  0.7546771E-02  0.1024143E+00
         21   -1    0    0  502  501  0.00000000000E+00  0.00000000000E+00  0.45907132722E+03  0.45907132722E+03  0.00000000000E+00 0.  1.
         21   -1    0    0  501  502 -0.00000000000E+00 -0.00000000000E+00 -0.46536478761E+03  0.46536478761E+03  0.00000000000E+00 0.  1.
         25    1    1    2    0    0 -0.54533865130E+01  0.23174679633E+03  0.20868604004E+03  0.33602258903E+03  0.12500000000E+03 0.  0.
         25    1    1    2    0    0 -0.90767436962E+02 -0.27973656682E+03 -0.26310113183E+01  0.31956720209E+03  0.12500000000E+03 0.  0.
         25    1    1    2    0    0  0.96220823475E+02  0.47989770488E+02 -0.21234848912E+03  0.26884632371E+03  0.12500000000E+03 0.  0.
</event>
<event>
 5    0  0.5631475E-005  0.3470359E+03  0.7546771E-02  0.1063838E+00
         21   -1    0    0  502  501  0.00000000000E+00  0.00000000000E+00  0.63688650422E+03  0.63688650422E+03  0.00000000000E+00 0.  1.
         21   -1    0    0  501  502 -0.00000000000E+00 -0.00000000000E+00 -0.18909794247E+03  0.18909794247E+03  0.00000000000E+00 0.  1.
         25    1    1    2    0    0  0.61831837837E+02 -0.14528509777E+03  0.21979500379E+03  0.29810363885E+03  0.12500000000E+03 0.  0.
         25    1    1    2    0    0 -0.45947154579E+02  0.11427748712E+03 -0.80602306493E+02  0.19311192840E+03  0.12500000000E+03 0.  0.
         25    1    1    2    0    0 -0.15884683258E+02  0.31007610649E+02  0.30859586445E+03  0.33476887943E+03  0.12500000000E+03 0.  0.
</event>
<event>
 5    0  0.5631475E-005  0.3277356E+03  0.7546771E-02  0.1072143E+00
         21   -1    0    0  502  501  0.00000000000E+00  0.00000000000E+00  0.74651967832E+03  0.74651967832E+03  0.00000000000E+00 0.  1.
         21   -1    0    0  501  502 -0.00000000000E+00 -0.00000000000E+00 -0.14388187858E+03  0.14388187858E+03  0.00000000000E+00 0.  1.
         25    1    1    2    0    0 -0.10437297089E+02 -0.19526707546E+03  0.96577970275E+02  0.25137715145E+03  0.12500000000E+03 0.  0.
         25    1    1    2    0    0  0.11980701956E+02  0.29701452980E+02  0.36763598248E+03  0.38962408696E+03  0.12500000000E+03 0.  0.
         25    1    1    2    0    0 -0.15434048674E+01  0.16556562248E+03  0.13842384699E+03  0.24940031848E+03  0.12500000000E+03 0.  0.
</event>
<event>
 5    0  0.5662899E-005  0.3926564E+03  0.7546771E-02  0.1046353E+00
         21   -1    0    0  502  501  0.00000000000E+00  0.00000000000E+00  0.15277858506E+03  0.15277858506E+03  0.00000000000E+00 0.  1.
         21   -1    0    0  501  502 -0.00000000000E+00 -0.00000000000E+00 -0.10091665037E+04  0.10091665037E+04  0.00000000000E+00 0.  1.
         25    1    1    2    0    0 -0.17082232100E+02  0.52383560755E+02 -0.53481372576E+03  0.55198420390E+03  0.12500000000E+03 0.  0.
         25    1    1    2    0    0  0.10183851657E+03  0.17061934586E+03 -0.79544271273E+02  0.24785950805E+03  0.12500000000E+03 0.  0.
         25    1    1    2    0    0 -0.84756284472E+02 -0.22300290662E+03 -0.24202992156E+03  0.36210137676E+03  0.12500000000E+03 0.  0.
</event>
<event>
 5    0  0.5631475E-005  0.3351913E+03  0.7546771E-02  0.1068863E+00
         21   -1    0    0  502  501  0.00000000000E+00  0.00000000000E+00  0.23523169075E+04  0.23523169075E+04  0.00000000000E+00 0. -1.
         21   -1    0    0  501  502 -0.00000000000E+00 -0.00000000000E+00 -0.47762796208E+02  0.47762796208E+02  0.00000000000E+00 0. -1.
         25    1    1    2    0    0 -0.13320224058E+03 -0.82177221634E+02  0.52114186342E+03  0.55830974777E+03  0.12500000000E+03 0.  0.
         25    1    1    2    0    0 -0.37209050434E+02  0.11725333363E+03  0.13155916525E+04  0.13272299174E+04  0.12500000000E+03 0.  0.
         25    1    1    2    0    0  0.17041129101E+03 -0.35076112000E+02  0.46782059539E+03  0.51454003848E+03  0.12500000000E+03 0.  0.
</event>
<event>
 5    0  0.5731878E-005  0.4006853E+03  0.7546771E-02  0.1043543E+00
         21   -1    0    0  502  501  0.00000000000E+00  0.00000000000E+00  0.12196290458E+03  0.12196290458E+03  0.00000000000E+00 0. -1.
         21   -1    0    0  501  502 -0.00000000000E+00 -0.00000000000E+00 -0.13163734486E+04  0.13163734486E+04  0.00000000000E+00 0. -1.
         25    1    1    2    0    0 -0.35027172611E+02  0.11682232758E+03 -0.78502699208E+03  0.80421809065E+03  0.12500000000E+03 0.  0.
         25    1    1    2    0    0  0.19332165888E+03 -0.75079979755E+02 -0.33869688418E+03  0.41635423200E+03  0.12500000000E+03 0.  0.
         25    1    1    2    0    0 -0.15829448627E+03 -0.41742347829E+02 -0.70686667761E+02  0.21776403051E+03  0.12500000000E+03 0.  0.
</event>
<event>
 5    0  0.5631475E-005  0.3728451E+03  0.7546771E-02  0.1053610E+00
         21   -1    0    0  502  501  0.00000000000E+00  0.00000000000E+00  0.86920531820E+03  0.86920531820E+03  0.00000000000E+00 0.  1.
         21   -1    0    0  501  502 -0.00000000000E+00 -0.00000000000E+00 -0.15993165037E+03  0.15993165037E+03  0.00000000000E+00 0.  1.
         25    1    1    2    0    0 -0.24483200171E+03 -0.73801916745E+02  0.21532090125E+03  0.35689987740E+03  0.12500000000E+03 0.  0.
         25    1    1    2    0    0  0.22857996379E+03 -0.19096786330E+02  0.42992797198E+03  0.50306714084E+03  0.12500000000E+03 0.  0.
         25    1    1    2    0    0  0.16252037914E+02  0.92898703074E+02  0.64024794602E+02  0.16916995033E+03  0.12500000000E+03 0.  0.
</event>
<event>
 5    0  0.5631475E-005  0.2162199E+03  0.7546771E-02  0.1136733E+00
         21   -1    0    0  502  501  0.00000000000E+00  0.00000000000E+00  0.76556266912E+03  0.76556266912E+03  0.00000000000E+00 0.  1.
         21   -1    0    0  501  502 -0.00000000000E+00 -0.00000000000E+00 -0.61067557499E+02  0.61067557499E+02  0.00000000000E+00 0.  1.
         25    1    1    2    0    0  0.43312264460E+01  0.76406111290E+02  0.18730929645E+03  0.23783697337E+03  0.12500000000E+03 0.  0.
         25    1    1    2    0    0  0.23810677200E+02 -0.34442755062E+02  0.16187719668E+03  0.20876416965E+03  0.12500000000E+03 0.  0.
         25    1    1    2    0    0 -0.28141903646E+02 -0.41963356228E+02  0.35530861850E+03  0.38002908361E+03  0.12500000000E+03 0.  0.
</event>
<event>
 5    0  0.5631475E-005  0.2572306E+03  0.7546771E-02  0.1108819E+00
         21   -1    0    0  502  501  0.00000000000E+00  0.00000000000E+00  0.12743460835E+03  0.12743460835E+03  0.00000000000E+00 0. -1.
         21   -1    0    0  501  502 -0.00000000000E+00 -0.00000000000E+00 -0.51922781810E+03  0.51922781810E+03  0.00000000000E+00 0.  1.
         25    1    1    2    0    0  0.24451498415E+02  0.12357618290E+03 -0.67313709223E+02  0.18980275078E+03  0.12500000000E+03 0.  0.
         25    1    1    2    0    0 -0.26736309959E+02 -0.18007633780E+02 -0.24045827143E+03  0.27291809292E+03  0.12500000000E+03 0.  0.
         25    1    1    2    0    0  0.22848115444E+01 -0.10556854912E+03 -0.84021229097E+02  0.18394158275E+03  0.12500000000E+03 0.  0.
</event>
<event>
 5    0  0.5631475E-005  0.2473398E+03  0.7546771E-02  0.1114998E+00
         21   -1    0    0  502  501  0.00000000000E+00  0.00000000000E+00  0.82806593505E+03  0.82806593505E+03  0.00000000000E+00 0.  1.
         21   -1    0    0  501  502 -0.00000000000E+00 -0.00000000000E+00 -0.73879344024E+02  0.73879344024E+02  0.00000000000E+00 0.  1.
         25    1    1    2    0    0 -0.82452579381E+02  0.24961352069E+02  0.24932004706E+03  0.29190235150E+03  0.12500000000E+03 0.  0.
         25    1    1    2    0    0  0.76706760583E+02 -0.11550776920E+03  0.30248970183E+03  0.35545884653E+03  0.12500000000E+03 0.  0.
         25    1    1    2    0    0  0.57458187984E+01  0.90546417130E+02  0.20237684214E+03  0.25458408105E+03  0.12500000000E+03 0.  0.
</event>
<event>
 5    0  0.5631475E-005  0.2333436E+03  0.7546771E-02  0.1124308E+00
         21   -1    0    0  502  501  0.00000000000E+00  0.00000000000E+00  0.43402371152E+02  0.43402371152E+02  0.00000000000E+00 0.  1.
         21   -1    0    0  501  502 -0.00000000000E+00 -0.00000000000E+00 -0.12545219927E+04  0.12545219927E+04  0.00000000000E+00 0.  1.
         25    1    1    2    0    0 -0.85210229919E+02  0.62230470811E+02 -0.33774675820E+03  0.37527494915E+03  0.12500000000E+03 0.  0.
         25    1    1    2    0    0 -0.28718121429E+01  0.56591937121E+01 -0.29230498859E+03  0.31797402431E+03  0.12500000000E+03 0.  0.
         25    1    1    2    0    0  0.88082042062E+02 -0.67889664523E+02 -0.58106787476E+03  0.60467539041E+03  0.12500000000E+03 0.  0.
</event>
<event>
 5    0  0.5631475E-005  0.2168155E+03  0.7546771E-02  0.1136280E+00
         21   -1    0    0  502  501  0.00000000000E+00  0.00000000000E+00  0.14883779390E+03  0.14883779390E+03  0.00000000000E+00 0. -1.
         21   -1    0    0  501  502 -0.00000000000E+00 -0.00000000000E+00 -0.31584012761E+03  0.31584012761E+03  0.00000000000E+00 0. -1.
         25    1    1    2    0    0 -0.20053882469E+02  0.50686141094E+02 -0.58169812172E+02  0.14825643375E+03  0.12500000000E+03 0.  0.
         25    1    1    2    0    0  0.60703893907E+01 -0.86788935134E+02 -0.10354991654E+02  0.15264794378E+03  0.12500000000E+03 0.  0.
         25    1    1    2    0    0  0.13983493079E+02  0.36102794040E+02 -0.98477529885E+02  0.16377354398E+03  0.12500000000E+03 0.  0.
</event>
<event>
 5    0  0.5631475E-005  0.2597481E+03  0.7546771E-02  0.1107295E+00
         21   -1    0    0  502  501  0.00000000000E+00  0.00000000000E+00  0.56210489092E+02  0.56210489092E+02  0.00000000000E+00 0.  1.
         21   -1    0    0  501  502 -0.00000000000E+00 -0.00000000000E+00 -0.12002930027E+04  0.12002930027E+04  0.00000000000E+00 0. -1.
         25    1    1    2    0    0  0.95284832679E+02 -0.59203965958E+02 -0.46756627581E+03  0.49681740227E+03  0.12500000000E+03 0.  0.
         25    1    1    2    0    0 -0.11596846999E+03  0.82403796804E+02 -0.24683237707E+03  0.31111138540E+03  0.12500000000E+03 0.  0.
         25    1    1    2    0    0  0.20683637307E+02 -0.23199830847E+02 -0.42968386074E+03  0.44857470413E+03  0.12500000000E+03 0.  0.
</event>
<event>
 5    0  0.5631475E-005  0.3099954E+03  0.7546771E-02  0.1080348E+00
         21   -1    0    0  502  501  0.00000000000E+00  0.00000000000E+00  0.16665058999E+03  0.16665058999E+03  0.00000000000E+00 0.  1.
         21   -1    0    0  501  502 -0.00000000000E+00 -0.00000000000E+00 -0.57663834779E+03  0.57663834779E+03  0.00000000000E+00 0.  1.
         25    1    1    2    0    0 -0.13028048318E+03  0.68236137101E+02 -0.23270868267E+03  0.30233674222E+03  0.12500000000E+03 0.  0.
         25    1    1    2    0    0 -0.23198328536E+02 -0.33380102716E+02 -0.19932157348E+03  0.23876030524E+03  0.12500000000E+03 0.  0.
         25    1    1    2    0    0  0.15347881172E+03 -0.34856034385E+02  0.22042498350E+02  0.20219189032E+03  0.12500000000E+03 0.  0.
</event>
<event>
 5    0  0.5631475E-005  0.4488282E+03  0.7546771E-02  0.1028072E+00
         21   -1    0    0  502  501  0.00000000000E+00  0.00000000000E+00  0.76308321913E+03  0.76308321913E+03  0.00000000000E+00 0. -1.
         21   -1    0    0  501  502 -0.00000000000E+00 -0.00000000000E+00 -0.26399053824E+03  0.26399053824E+03  0.00000000000E+00 0. -1.
         25    1    1    2    0    0 -0.70409320908E+02 -0.89491065345E+02  0.14407425706E+03  0.22214525607E+03  0.12500000000E+03 0.  0.
         25    1    1    2    0    0 -0.82530700089E+02 -0.13212037508E+03 -0.12853938431E+03  0.23751733260E+03  0.12500000000E+03 0.  0.
         25    1    1    2    0    0  0.15294002100E+03  0.22161144042E+03  0.48355780814E+03  0.56741116870E+03  0.12500000000E+03 0.  0.
</event>
<event>
 5    0  0.5631475E-005  0.4083980E+03  0.7546771E-02  0.1040910E+00
         21   -1    0    0  502  501  0.00000000000E+00  0.00000000000E+00  0.38561340579E+04  0.38561340579E+04  0.00000000000E+00 0. -1.
         21   -1    0    0  501  502 -0.00000000000E+00 -0.00000000000E+00 -0.43252875823E+02  0.43252875823E+02  0.00000000000E+00 0. -1.
         25    1    1    2    0    0  0.11083701251E+03 -0.19880379729E+03  0.14824562733E+04  0.15050280381E+04  0.12500000000E+03 0.  0.
         25    1    1    2    0    0 -0.21367783904E+03 -0.17108580433E+02  0.72196094887E+03  0.76341570203E+03  0.12500000000E+03 0.  0.
         25    1    1    2    0    0  0.10284082654E+03  0.21591237772E+03  0.16084639598E+04  0.16309431935E+04  0.12500000000E+03 0.  0.
</event>
<event>
 5    0  0.5631475E-005  0.2810299E+03  0.7546771E-02  0.1095128E+00
         21   -1    0    0  502  501  0.00000000000E+00  0.00000000000E+00  0.13297266068E+04  0.13297266068E+04  0.00000000000E+00 0.  1.
         21   -1    0    0  501  502 -0.00000000000E+00 -0.00000000000E+00 -0.59394032623E+02  0.59394032623E+02  0.00000000000E+00 0.  1.
         25    1    1    2    0    0  0.56653245327E+02 -0.12973384648E+03  0.57550834650E+03  0.60570233450E+03  0.12500000000E+03 0.  0.
         25    1    1    2    0    0  0.44021302759E+02  0.11333372749E+03  0.21285600902E+03  0.27516375026E+03  0.12500000000E+03 0.  0.
         25    1    1    2    0    0 -0.10067454809E+03  0.16400118988E+02  0.48196821865E+03  0.50825455465E+03  0.12500000000E+03 0.  0.
</event>
<event>
 5    0  0.5631475E-005  0.2253978E+03  0.7546771E-02  0.1129922E+00
         21   -1    0    0  502  501  0.00000000000E+00  0.00000000000E+00  0.41267058820E+03  0.41267058820E+03  0.00000000000E+00 0.  1.
         21   -1    0    0  501  502 -0.00000000000E+00 -0.00000000000E+00 -0.12311066516E+03  0.12311066516E+03  0.00000000000E+00 0.  1.
         25    1    1    2    0    0 -0.29055112025E+02 -0.14471355571E+02  0.10359465841E+03  0.16556108516E+03  0.12500000000E+03 0.  0.
         25    1    1    2    0    0  0.52835581604E+02  0.73914062535E+02  0.24900382762E+02  0.15652449133E+03  0.12500000000E+03 0.  0.
         25    1    1    2    0    0 -0.23780469580E+02 -0.59442706964E+02  0.16106488186E+03  0.21369567687E+03  0.12500000000E+03 0.  0.
</event>
<event>
 5    0  0.5631475E-005  0.3157764E+03  0.7546771E-02  0.1077610E+00
         21   -1    0    0  502  501  0.00000000000E+00  0.00000000000E+00  0.27926423390E+03  0.27926423390E+03  0.00000000000E+00 0. -1.
         21   -1    0    0  501  502 -0.00000000000E+00 -0.00000000000E+00 -0.35706235153E+03  0.35706235153E+03  0.00000000000E+00 0. -1.
         25    1    1    2    0    0 -0.45568811923E+02 -0.20326517641E+03 -0.55033487289E+02  0.24909221844E+03  0.12500000000E+03 0.  0.
         25    1    1    2    0    0  0.77391768294E+01 -0.89144518894E+01 -0.52943531641E+02  0.13626217323E+03  0.12500000000E+03 0.  0.
         25    1    1    2    0    0  0.37829635094E+02  0.21217962830E+03  0.30178901304E+02  0.25097219376E+03  0.12500000000E+03 0.  0.
</event>
<event>
 5    0  0.5631475E-005  0.2116449E+03  0.7546771E-02  0.1140270E+00
         21   -1    0    0  502  501  0.00000000000E+00  0.00000000000E+00  0.34334885528E+02  0.34334885528E+02  0.00000000000E+00 0.  1.
         21   -1    0    0  501  502 -0.00000000000E+00 -0.00000000000E+00 -0.13046077218E+04  0.13046077218E+04  0.00000000000E+00 0.  1.
         25    1    1    2    0    0 -0.34528739818E+02 -0.66607625784E+01 -0.46345866950E+03  0.48130607514E+03  0.12500000000E+03 0.  0.
         25    1    1    2    0    0  0.85416793614E+02 -0.10229180814E+02 -0.36274388276E+03  0.39320324166E+03  0.12500000000E+03 0.  0.
         25    1    1    2    0    0 -0.50888053796E+02  0.16889943392E+02 -0.44407028396E+03  0.46443329048E+03  0.12500000000E+03 0.  0.
</event>
<event>
 5    0  0.5631475E-005  0.2495221E+03  0.7546771E-02  0.1113607E+00
         21   -1    0    0  502  501  0.00000000000E+00  0.00000000000E+00  0.65873222211E+03  0.65873222211E+03  0.00000000000E+00 0.  1.
         21   -1    0    0  501  502 -0.00000000000E+00 -0.00000000000E+00 -0.94516822894E+02  0.94516822894E+02  0.00000000000E+00 0.  1.
         25    1    1    2    0    0 -0.63017541430E+02  0.24930057810E+02  0.28782838427E+03  0.32103410582E+03  0.12500000000E+03 0.  0.
         25    1    1    2    0    0 -0.72248788683E+02 -0.18950513139E+02  0.96466572559E+02  0.17467057290E+03  0.12500000000E+03 0.  0.
         25    1    1    2    0    0  0.13526633011E+03 -0.59795446713E+01  0.17992044239E+03  0.25754436629E+03  0.12500000000E+03 0.  0.
</event>
<event>
 5    0  0.5631475E-005  0.2461214E+03  0.7546771E-02  0.1115781E+00
         21   -1    0    0  502  501  0.00000000000E+00  0.00000000000E+00  0.18171325679E+03  0.18171325679E+03  0.00000000000E+00 0.  1.
         21   -1    0    0  501  502 -0.00000000000E+00 -0.00000000000E+00 -0.33335887524E+03  0.33335887524E+03  0.00000000000E+00 0.  1.
         25    1    1    2    0    0  0.36696263624E+02 -0.49883350386E+02 -0.24777513718E+02  0.14168235457E+03  0.12500000000E+03 0.  0.
         25    1    1    2    0    0  0.32663527860E+02  0.58051353896E+01 -0.17377055475E+03  0.21661443014E+03  0.12500000000E+03 0.  0.
         25    1    1    2    0    0 -0.69359791484E+02  0.44078214997E+02  0.46902450015E+02  0.15677534733E+03  0.12500000000E+03 0.  0.
</event>
<event>
 5    0  0.5631475E-005  0.3432396E+03  0.7546771E-02  0.1065424E+00
         21   -1    0    0  502  501  0.00000000000E+00  0.00000000000E+00  0.69144269301E+03  0.69144269301E+03  0.00000000000E+00 0. -1.
         21   -1    0    0  501  502 -0.00000000000E+00 -0.00000000000E+00 -0.17038779276E+03  0.17038779276E+03  0.00000000000E+00 0. -1.
         25    1    1    2    0    0  0.10459464931E+03 -0.49410553322E+02 -0.85695562972E+02  0.19065721323E+03  0.12500000000E+03 0.  0.
         25    1    1    2    0    0 -0.62618437175E+02  0.35227849760E+02  0.22685134388E+03  0.26879100114E+03  0.12500000000E+03 0.  0.
         25    1    1    2    0    0 -0.41976212136E+02  0.14182703562E+02  0.37989911934E+03  0.40238227140E+03  0.12500000000E+03 0.  0.
</event>
<event>
 5    0  0.5631475E-005  0.2927730E+03  0.7546771E-02  0.1088910E+00
         21   -1    0    0  502  501  0.00000000000E+00  0.00000000000E+00  0.13915150477E+04  0.13915150477E+04  0.00000000000E+00 0.  1.
         21   -1    0    0  501  502 -0.00000000000E+00 -0.00000000000E+00 -0.61599054909E+02  0.61599054909E+02  0.00000000000E+00 0.  1.
         25    1    1    2    0    0  0.14746730146E+03  0.28304857243E+02  0.51678938293E+03  0.55248894673E+03  0.12500000000E+03 0.  0.
         25    1    1    2    0    0 -0.42013898088E+02 -0.12522309293E+03  0.52346348145E+03  0.55415251244E+03  0.12500000000E+03 0.  0.
         25    1    1    2    0    0 -0.10545340338E+03  0.96918235687E+02  0.28966312841E+03  0.34647264344E+03  0.12500000000E+03 0.  0.
</event>
<event>
 5    0  0.5631475E-005  0.2813495E+03  0.7546771E-02  0.1094954E+00
         21   -1    0    0  502  501  0.00000000000E+00  0.00000000000E+00  0.39374468989E+03  0.39374468989E+03  0.00000000000E+00 0. -1.
         21   -1    0    0  501  502 -0.00000000000E+00 -0.00000000000E+00 -0.20103770068E+03  0.20103770068E+03  0.00000000000E+00 0. -1.
         25    1    1    2    0    0  0.77446659440E+02  0.13487866202E+03 -0.36587651556E+02  0.20286422744E+03  0.12500000000E+03 0.  0.
         25    1    1    2    0    0  0.10587936497E+02 -0.30810000381E+02  0.65337291388E+02  0.14475953222E+03  0.12500000000E+03 0.  0.
         25    1    1    2    0    0 -0.88034595937E+02 -0.10406866164E+03  0.16395734939E+03  0.24715863091E+03  0.12500000000E+03 0.  0.
</event>
<event>
 5    0  0.5631475E-005  0.3110310E+03  0.7546771E-02  0.1079853E+00
         21   -1    0    0  502  501  0.00000000000E+00  0.00000000000E+00  0.20728394655E+03  0.20728394655E+03  0.00000000000E+00 0. -1.
         21   -1    0    0  501  502 -0.00000000000E+00 -0.00000000000E+00 -0.46670429436E+03  0.46670429436E+03  0.00000000000E+00 0. -1.
         25    1    1    2    0    0  0.43721512657E+02 -0.19860061479E+02 -0.14901294667E+03  0.20033933958E+03  0.12500000000E+03 0.  0.
         25    1    1    2    0    0 -0.74725473114E+02  0.14262899766E+03 -0.19006318034E+03  0.27870403626E+03  0.12500000000E+03 0.  0.
         25    1    1    2    0    0  0.31003960457E+02 -0.12276893619E+03  0.79655779194E+02  0.19494486506E+03  0.12500000000E+03 0.  0.
</event>
<event>
 5    0  0.5631475E-005  0.2934613E+03  0.7546771E-02  0.1088556E+00
         21   -1    0    0  502  501  0.00000000000E+00  0.00000000000E+00  0.11100469836E+03  0.11100469836E+03  0.00000000000E+00 0.  1.
         21   -1    0    0  501  502 -0.00000000000E+00 -0.00000000000E+00 -0.77581897092E+03  0.77581897092E+03  0.00000000000E+00 0.  1.
         25    1    1    2    0    0  0.30640822432E+02  0.79406813845E+01 -0.70640721268E+02  0.14702729652E+03  0.12500000000E+03 0.  0.
         25    1    1    2    0    0  0.11158439818E+03 -0.13017586346E+03 -0.33263142335E+03  0.39454467066E+03  0.12500000000E+03 0.  0.
         25    1    1    2    0    0 -0.14222522062E+03  0.12223518207E+03 -0.26154212794E+03  0.34525170210E+03  0.12500000000E+03 0.  0.
</event>
<event>
 5    0  0.5631475E-005  0.4386164E+03  0.7546771E-02  0.1031172E+00
         21   -1    0    0  502  501  0.00000000000E+00  0.00000000000E+00  0.16065267836E+03  0.16065267836E+03  0.00000000000E+00 0. -1.
         21   -1    0    0  501  502 -0.00000000000E+00 -0.00000000000E+00 -0.11975170660E+04  0.11975170660E+04  0.00000000000E+00 0. -1.
         25    1    1    2    0    0 -0.74931987534E+02  0.10075208850E+03 -0.32103650831E+03  0.36668136817E+03  0.12500000000E+03 0.  0.
         25    1    1    2    0    0  0.61339503589E+02 -0.15282610475E+03 -0.80345229782E+03  0.82962578785E+03  0.12500000000E+03 0.  0.
         25    1    1    2    0    0  0.13592483944E+02  0.52074016245E+02  0.87624418491E+02  0.16186258834E+03  0.12500000000E+03 0.  0.
</event>
<event>
 5    0  0.7148645E-005  0.2876182E+03  0.7546771E-02  0.1091599E+00
         21   -1    0    0  502  501  0.00000000000E+00  0.00000000000E+00  0.13896945414E+03  0.13896945414E+03  0.00000000000E+00 0. -1.
         21   -1    0    0  501  502 -0.00000000000E+00 -0.00000000000E+00 -0.59526919594E+03  0.59526919594E+03  0.00000000000E+00 0. -1.
         25    1    1    2    0    0 -0.37589719963E+02 -0.11505221544E+03 -0.19035087541E+03  0.25789233237E+03  0.12500000000E+03 0.  0.
         25    1    1    2    0    0  0.67939412995E+01 -0.70667062787E+02 -0.24820771395E+02  0.14588030057E+03  0.12500000000E+03 0.  0.
         25    1    1    2    0    0  0.30795778663E+02  0.18571927823E+03 -0.24112809499E+03  0.33046601714E+03  0.12500000000E+03 0.  0.
</event>
<event>
 5    0  0.5631475E-005  0.2737528E+03  0.7546771E-02  0.1099151E+00
         21   -1    0    0  502  501  0.00000000000E+00  0.00000000000E+00  0.39267399789E+02  0.39267399789E+02  0.00000000000E+00 0.  1.
         21   -1    0    0  501  502 -0.00000000000E+00 -0.00000000000E+00 -0.19084684533E+04  0.19084684533E+04  0.00000000000E+00 0.  1.
         25    1    1    2    0    0 -0.14011279283E+02 -0.13194058511E+02 -0.13542711033E+04  0.13601638212E+04  0.12500000000E+03 0.  0.
         25    1    1    2    0    0 -0.16563519373E+01  0.51746036639E+02 -0.16326878259E+03  0.21204266358E+03  0.12500000000E+03 0.  0.
         25    1    1    2    0    0  0.15667631220E+02 -0.38551978128E+02 -0.35166116755E+03  0.37552936829E+03  0.12500000000E+03 0.  0.
</event>
<event>
 5    0  0.5631475E-005  0.3496720E+03  0.7546771E-02  0.1062750E+00
         21   -1    0    0  502  501  0.00000000000E+00  0.00000000000E+00  0.11734233085E+04  0.11734233085E+04  0.00000000000E+00 0. -1.
         21   -1    0    0  501  502 -0.00000000000E+00 -0.00000000000E+00 -0.10419982087E+03  0.10419982087E+03  0.00000000000E+00 0. -1.
         25    1    1    2    0    0  0.21755317106E+03 -0.14711726037E+02  0.34829530244E+03  0.42951185644E+03  0.12500000000E+03 0.  0.
         25    1    1    2    0    0 -0.16867074571E+03 -0.10870114629E+03  0.54797963409E+03  0.59680184236E+03  0.12500000000E+03 0.  0.
         25    1    1    2    0    0 -0.48882425356E+02  0.12341287233E+03  0.17294855110E+03  0.25130943057E+03  0.12500000000E+03 0.  0.
</event>
<event>
 5    0  0.5631475E-005  0.5141027E+03  0.7546771E-02  0.1010162E+00
         21   -1    0    0  502  501  0.00000000000E+00  0.00000000000E+00  0.73600237332E+03  0.73600237332E+03  0.00000000000E+00 0.  1.
         21   -1    0    0  501  502 -0.00000000000E+00 -0.00000000000E+00 -0.35910422375E+03  0.35910422375E+03  0.00000000000E+00 0.  1.
         25    1    1    2    0    0 -0.72192280539E+01 -0.16593119885E+03  0.43187589590E+03  0.47929851811E+03  0.12500000000E+03 0.  0.
         25    1    1    2    0    0 -0.12405354709E+03  0.16755043734E+03  0.19177904051E+03  0.30962337117E+03  0.12500000000E+03 0.  0.
         25    1    1    2    0    0  0.13127277515E+03 -0.16192384837E+01 -0.24675678684E+03  0.30618470778E+03  0.12500000000E+03 0.  0.
</event>
<event>
 5    0  0.5631475E-005  0.2858627E+03  0.7546771E-02  0.1092529E+00
         21   -1    0    0  502  501  0.00000000000E+00  0.00000000000E+00  0.67493091477E+03  0.67493091477E+03  0.00000000000E+00 0. -1.
         21   -1    0    0  501  502 -0.00000000000E+00 -0.00000000000E+00 -0.12107532486E+03  0.12107532486E+03  0.00000000000E+00 0. -1.
         25    1    1    2    0    0 -0.14801274993E+03 -0.11675833564E+03  0.34848123400E+03  0.41545692140E+03  0.12500000000E+03 0.  0.
         25    1    1    2    0    0  0.78347843186E+02  0.92976151536E+02  0.97629525994E+02  0.19984862680E+03  0.12500000000E+03 0.  0.
         25    1    1    2    0    0  0.69664906747E+02  0.23782184104E+02  0.10774482991E+03  0.18070069143E+03  0.12500000000E+03 0.  0.
</event>
<event>
 5    0  0.5631475E-005  0.3778789E+03  0.7546771E-02  0.1051721E+00
         21   -1    0    0  502  501  0.00000000000E+00  0.00000000000E+00  0.42660366121E+03  0.42660366121E+03  0.00000000000E+00 0. -1.
         21   -1    0    0  501  502 -0.00000000000E+00 -0.00000000000E+00 -0.33471919877E+03  0.33471919877E+03  0.00000000000E+00 0. -1.
         25    1    1    2    0    0  0.99751198612E+02 -0.71349807023E+02  0.18072069927E+03  0.25164671214E+03  0.12500000000E+03 0.  0.
         25    1    1    2    0    0  0.15482834581E+03  0.29042283125E+02  0.21900452078E+02  0.20228667944E+03  0.12500000000E+03 0.  0.
         25    1    1    2    0    0 -0.25457954442E+03  0.42307523898E+02 -0.11073668890E+03  0.30738946840E+03  0.12500000000E+03 0.  0.
</event>
<event>
 5    0  0.5631475E-005  0.3078531E+03  0.7546771E-02  0.1081380E+00
         21   -1    0    0  502  501  0.00000000000E+00  0.00000000000E+00  0.41774124649E+03  0.41774124649E+03  0.00000000000E+00 0.  1.
         21   -1    0    0  501  502 -0.00000000000E+00 -0.00000000000E+00 -0.22687140927E+03  0.22687140927E+03  0.00000000000E+00 0.  1.
         25    1    1    2    0    0 -0.16625236698E+03 -0.62722020458E+02  0.15705921431E+03  0.26807927592E+03  0.12500000000E+03 0.  0.
         25    1    1    2    0    0  0.23503097962E+02 -0.66093576115E+02 -0.73718641554E+01  0.14352735209E+03  0.12500000000E+03 0.  0.
         25    1    1    2    0    0  0.14274926902E+03  0.12881559657E+03  0.41182487071E+02  0.23300602775E+03  0.12500000000E+03 0.  0.
</event>
<event>
 5    0  0.5631475E-005  0.4325205E+03  0.7546771E-02  0.1033067E+00
         21   -1    0    0  502  501  0.00000000000E+00  0.00000000000E+00  0.40830255444E+03  0.40830255444E+03  0.00000000000E+00 0.  1.
         21   -1    0    0  501  502 -0.00000000000E+00 -0.00000000000E+00 -0.45817480195E+03  0.45817480195E+03  0.00000000000E+00 0. -1.
         25    1    1    2    0    0 -0.16267474852E+03  0.17016936178E+03 -0.29210460967E+03  0.39543746470E+03  0.12500000000E+03 0.  0.
         25    1    1    2    0    0  0.13312505459E+03 -0.17452241998E+03  0.23054799707E+03  0.34199083933E+03  0.12500000000E+03 0.  0.
         25    1    1    2    0    0  0.29549693931E+02  0.43530581955E+01  0.11684365102E+02  0.12904905236E+03  0.12500000000E+03 0.  0.
</event>
<event>
 5    0  0.5631475E-005  0.2586126E+03  0.7546771E-02  0.1107980E+00
         21   -1    0    0  502  501  0.00000000000E+00  0.00000000000E+00  0.10655692838E+03  0.10655692838E+03  0.00000000000E+00 0. -1.
         21   -1    0    0  501  502 -0.00000000000E+00 -0.00000000000E+00 -0.62765036582E+03  0.62765036582E+03  0.00000000000E+00 0. -1.
         25    1    1    2    0    0 -0.68113813751E+02  0.11676753608E+03 -0.14599221783E+03  0.23497420448E+03  0.12500000000E+03 0.  0.
         25    1    1    2    0    0 -0.37563856089E+02 -0.20079120873E+02 -0.10387524763E+03  0.16801571787E+03  0.12500000000E+03 0.  0.
         25    1    1    2    0    0  0.10567766984E+03 -0.96688415208E+02 -0.27122597199E+03  0.33121737185E+03  0.12500000000E+03 0.  0.
</event>
<event>
 5    0  0.5631475E-005  0.2680220E+03  0.7546771E-02  0.1102417E+00
         21   -1    0    0  502  501  0.00000000000E+00  0.00000000000E+00  0.14310510691E+04  0.14310510691E+04  0.00000000000E+00 0.  1.
         21   -1    0    0  501  502 -0.00000000000E+00 -0.00000000000E+00 -0.50197907726E+02  0.50197907726E+02  0.00000000000E+00 0.  1.
         25    1    1    2    0    0 -0.32177659499E+02  0.95282020915E+01  0.12389483734E+03  0.17916785182E+03  0.12500000000E+03 0.  0.
         25    1    1    2    0    0  0.70911267577E+02 -0.54954074186E+02  0.98429215321E+03  0.99624515106E+03  0.12500000000E+03 0.  0.
         25    1    1    2    0    0 -0.38733608078E+02  0.45425872094E+02  0.27266617086E+03  0.30583597398E+03  0.12500000000E+03 0.  0.
</event>
<event>
 5    0  0.5631475E-005  0.3316678E+03  0.7546771E-02  0.1070401E+00
         21   -1    0    0  502  501  0.00000000000E+00  0.00000000000E+00  0.24447868817E+03  0.24447868817E+03  0.00000000000E+00 0.  1.
         21   -1    0    0  501  502 -0.00000000000E+00 -0.00000000000E+00 -0.44995139510E+03  0.44995139510E+03  0.00000000000E+00 0.  1.
         25    1    1    2    0    0 -0.26653669909E+02  0.10319533505E+03 -0.52557045821E+02  0.17247300763E+03  0.12500000000E+03 0.  0.
         25    1    1    2    0    0  0.18045107604E+03 -0.10283388905E+03 -0.20451952722E+03  0.31716026957E+03  0.12500000000E+03 0.  0.
         25    1    1    2    0    0 -0.15379740613E+03 -0.36144600458E+00  0.51603866110E+02  0.20479680606E+03  0.12500000000E+03 0.  0.
</event>
<event>
 5    0  0.5658951E-005  0.3260379E+03  0.7546771E-02  0.1072904E+00
         21   -1    0    0  502  501  0.00000000000E+00  0.00000000000E+00  0.16436473168E+03  0.16436473168E+03  0.00000000000E+00 0.  1.
         21   -1    0    0  501  502 -0.00000000000E+00 -0.00000000000E+00 -0.64673671081E+03  0.64673671081E+03  0.00000000000E+00 0.  1.
         25    1    1    2    0    0 -0.12169375671E+03 -0.55147879646E+02 -0.27971602092E+03  0.33424049935E+03  0.12500000000E+03 0.  0.
         25    1    1    2    0    0  0.18898822457E+02  0.11892725996E+03 -0.24268163420E+03  0.29836258853E+03  0.12500000000E+03 0.  0.
         25    1    1    2    0    0  0.10279493425E+03 -0.63779380314E+02  0.40025675986E+02  0.17849835461E+03  0.12500000000E+03 0.  0.
</event>
<event>
 5    0  0.5631475E-005  0.2596624E+03  0.7546771E-02  0.1107346E+00
         21   -1    0    0  502  501  0.00000000000E+00  0.00000000000E+00  0.54513635087E+03  0.54513635087E+03  0.00000000000E+00 0. -1.
         21   -1    0    0  501  502 -0.00000000000E+00 -0.00000000000E+00 -0.12368382349E+03  0.12368382349E+03  0.00000000000E+00 0. -1.
         25    1    1    2    0    0  0.53164038484E+02 -0.38474736762E+02  0.35048019282E+03  0.37784664338E+03  0.12500000000E+03 0.  0.
         25    1    1    2    0    0  0.12393127685E+02  0.47843750756E+02  0.40331304499E+01  0.13447631852E+03  0.12500000000E+03 0.  0.
         25    1    1    2    0    0 -0.65557166168E+02 -0.93690139937E+01  0.66939204112E+02  0.15649721246E+03  0.12500000000E+03 0.  0.
</event>
<event>
 5    0  0.5631475E-005  0.2565823E+03  0.7546771E-02  0.1109214E+00
         21   -1    0    0  502  501  0.00000000000E+00  0.00000000000E+00  0.52212104449E+02  0.52212104449E+02  0.00000000000E+00 0. -1.
         21   -1    0    0  501  502 -0.00000000000E+00 -0.00000000000E+00 -0.12609046979E+04  0.12609046979E+04  0.00000000000E+00 0. -1.
         25    1    1    2    0    0  0.11337723813E+03 -0.17848798155E+02 -0.32696884424E+03  0.36838377112E+03  0.12500000000E+03 0.  0.
         25    1    1    2    0    0  0.38175720274E+02 -0.23668856490E+01 -0.23977937575E+03  0.27309730281E+03  0.12500000000E+03 0.  0.
         25    1    1    2    0    0 -0.15155295840E+03  0.20215683804E+02 -0.64194437346E+03  0.67163572842E+03  0.12500000000E+03 0.  0.
</event>
<event>
 5    0  0.5631475E-005  0.3674515E+03  0.7546771E-02  0.1055672E+00
         21   -1    0    0  502  501  0.00000000000E+00  0.00000000000E+00  0.66545649995E+03  0.66545649995E+03  0.00000000000E+00 0. -1.
         21   -1    0    0  501  502 -0.00000000000E+00 -0.00000000000E+00 -0.20289918818E+03  0.20289918818E+03  0.00000000000E+00 0. -1.
         25    1    1    2    0    0 -0.15583388157E+03 -0.72555545219E+01 -0.25761633142E+02  0.20155769263E+03  0.12500000000E+03 0.  0.
         25    1    1    2    0    0  0.11121423577E+03 -0.13978457751E+03  0.38728749191E+03  0.44443777488E+03  0.12500000000E+03 0.  0.
         25    1    1    2    0    0  0.44619645800E+02  0.14704013203E+03  0.10103145299E+03  0.22236022062E+03  0.12500000000E+03 0.  0.
</event>
<event>
 5    0  0.5631475E-005  0.3631408E+03  0.7546771E-02  0.1057347E+00
         21   -1    0    0  502  501  0.00000000000E+00  0.00000000000E+00  0.10854867575E+04  0.10854867575E+04  0.00000000000E+00 0.  1.
         21   -1    0    0  501  502 -0.00000000000E+00 -0.00000000000E+00 -0.12148582955E+03  0.12148582955E+03  0.00000000000E+00 0.  1.
         25    1    1    2    0    0  0.58504037531E+02  0.20941688883E+03  0.21360024376E+03  0.32943621517E+03  0.12500000000E+03 0.  0.
         25    1    1    2    0    0 -0.17746179649E+03 -0.63414158902E+02  0.32701010863E+03  0.39758603586E+03  0.12500000000E+03 0.  0.
         25    1    1    2    0    0  0.11895775896E+03 -0.14600272993E+03  0.42339057561E+03  0.47995033605E+03  0.12500000000E+03 0.  0.
</event>
<event>
 5    0  0.5738141E-005  0.2752019E+03  0.7546771E-02  0.1098339E+00
         21   -1    0    0  502  501  0.00000000000E+00  0.00000000000E+00  0.17585980064E+03  0.17585980064E+03  0.00000000000E+00 0. -1.
         21   -1    0    0  501  502 -0.00000000000E+00 -0.00000000000E+00 -0.43066158638E+03  0.43066158638E+03  0.00000000000E+00 0. -1.
         25    1    1    2    0    0 -0.51443848808E+01  0.83614318140E+02 -0.25288979784E+02  0.15258555434E+03  0.12500000000E+03 0.  0.
         25    1    1    2    0    0  0.12473696503E+03 -0.81534094545E+02 -0.19898117273E+03  0.27825460664E+03  0.12500000000E+03 0.  0.
         25    1    1    2    0    0 -0.11959258014E+03 -0.20802235943E+01 -0.30531633220E+02  0.17568122604E+03  0.12500000000E+03 0.  0.
</event>
<event>
 5    0  0.5631475E-005  0.6179140E+03  0.7546771E-02  0.9868922E-01
         21   -1    0    0  502  501  0.00000000000E+00  0.00000000000E+00  0.31910952436E+03  0.31910952436E+03  0.00000000000E+00 0.  1.
         21   -1    0    0  501  502 -0.00000000000E+00 -0.00000000000E+00 -0.11965100140E+04  0.11965100140E+04  0.00000000000E+00 0.  1.
         25    1    1    2    0    0  0.30153878330E+02  0.45127007565E+03 -0.51762772394E+03  0.69865399029E+03  0.12500000000E+03 0.  0.
         25    1    1    2    0    0 -0.15178784326E+03 -0.49955731235E+03 -0.33868507455E+03  0.63476738842E+03  0.12500000000E+03 0.  0.
         25    1    1    2    0    0  0.12163396493E+03  0.48287236699E+02 -0.21087691131E+02  0.18219815962E+03  0.12500000000E+03 0.  0.
</event>
<event>
 5    0  0.7216392E-005  0.2586344E+03  0.7546771E-02  0.1107967E+00
         21   -1    0    0  502  501  0.00000000000E+00  0.00000000000E+00  0.27523277618E+03  0.27523277618E+03  0.00000000000E+00 0.  1.
         21   -1    0    0  501  502 -0.00000000000E+00 -0.00000000000E+00 -0.24303696166E+03  0.24303696166E+03  0.00000000000E+00 0.  1.
         25    1    1    2    0    0  0.43646270071E+02  0.16090020374E+02  0.95025400399E+02  0.16376419745E+03  0.12500000000E+03 0.  0.
         25    1    1    2    0    0  0.26660970579E+02 -0.13638959514E+02 -0.14129187672E+03  0.19101105464E+03  0.12500000000E+03 0.  0.
         25    1    1    2    0    0 -0.70307240650E+02 -0.24510608605E+01  0.78462290841E+02  0.16349448575E+03  0.12500000000E+03 0.  0.
</event>
<event>
 5    0  0.5631475E-005  0.4185273E+03  0.7546771E-02  0.1037547E+00
         21   -1    0    0  502  501  0.00000000000E+00  0.00000000000E+00  0.97638876283E+02  0.97638876283E+02  0.00000000000E+00 0.  1.
         21   -1    0    0  501  502 -0.00000000000E+00 -0.00000000000E+00 -0.17940097222E+04  0.17940097222E+04  0.00000000000E+00 0.  1.
         25    1    1    2    0    0 -0.85232138337E+02 -0.18300197101E+03 -0.31097646318E+03  0.39126154865E+03  0.12500000000E+03 0.  0.
         25    1    1    2    0    0  0.25171871527E+03 -0.13992645672E+02 -0.56156196309E+03  0.62812016696E+03  0.12500000000E+03 0.  0.
         25    1    1    2    0    0 -0.16648657693E+03  0.19699461669E+03 -0.82383241969E+03  0.87226688292E+03  0.12500000000E+03 0.  0.
</event>
<event>
 5    0  0.5631475E-005  0.4738320E+03  0.7546771E-02  0.1020844E+00
         21   -1    0    0  502  501  0.00000000000E+00  0.00000000000E+00  0.68524418533E+03  0.68524418533E+03  0.00000000000E+00 0. -1.
         21   -1    0    0  501  502 -0.00000000000E+00 -0.00000000000E+00 -0.32764497114E+03  0.32764497114E+03  0.00000000000E+00 0. -1.
         25    1    1    2    0    0 -0.14816635378E+03  0.22226989261E+03  0.11840192870E+03  0.31780684428E+03  0.12500000000E+03 0.  0.
         25    1    1    2    0    0  0.35194309336E+03 -0.14589667061E+03  0.16269187676E+03  0.43271633459E+03  0.12500000000E+03 0.  0.
         25    1    1    2    0    0 -0.20377673958E+03 -0.76373221999E+02  0.76505408729E+02  0.26236597759E+03  0.12500000000E+03 0.  0.
</event>
<event>
 5    0  0.5631475E-005  0.3505133E+03  0.7546771E-02  0.1062405E+00
         21   -1    0    0  502  501  0.00000000000E+00  0.00000000000E+00  0.76744562889E+03  0.76744562889E+03  0.00000000000E+00 0.  1.
         21   -1    0    0  501  502 -0.00000000000E+00 -0.00000000000E+00 -0.16008898124E+03  0.16008898124E+03  0.00000000000E+00 0.  1.
         25    1    1    2    0    0 -0.11864393364E+03 -0.15712323206E+03  0.14166916729E+03  0.27287221552E+03  0.12500000000E+03 0.  0.
         25    1    1    2    0    0 -0.40024877468E+02  0.20997264253E+03  0.21095855670E+03  0.32529834625E+03  0.12500000000E+03 0.  0.
         25    1    1    2    0    0  0.15866881111E+03 -0.52849410464E+02  0.25472892366E+03  0.32936404837E+03  0.12500000000E+03 0.  0.
</event>
<event>
 5    0  0.5631475E-005  0.2421550E+03  0.7546771E-02  0.1118365E+00
         21   -1    0    0  502  501  0.00000000000E+00  0.00000000000E+00  0.30619097363E+03  0.30619097363E+03  0.00000000000E+00 0. -1.
         21   -1    0    0  501  502 -0.00000000000E+00 -0.00000000000E+00 -0.19151137850E+03  0.19151137850E+03  0.00000000000E+00 0. -1.
         25    1    1    2    0    0  0.83844029360E+01  0.11123352014E+02  0.23397951511E+00  0.12577393179E+03  0.12500000000E+03 0.  0.
         25    1    1    2    0    0  0.38734141021E+02  0.40338552223E+02  0.17006727571E+03  0.21834699618E+03  0.12500000000E+03 0.  0.
         25    1    1    2    0    0 -0.47118543957E+02 -0.51461904238E+02 -0.55621660087E+02  0.15358142415E+03  0.12500000000E+03 0.  0.
</event>
<event>
 5    0  0.5631475E-005  0.2468508E+03  0.7546771E-02  0.1115311E+00
         21   -1    0    0  502  501  0.00000000000E+00  0.00000000000E+00  0.61255882698E+03  0.61255882698E+03  0.00000000000E+00 0. -1.
         21   -1    0    0  501  502 -0.00000000000E+00 -0.00000000000E+00 -0.99476695278E+02  0.99476695278E+02  0.00000000000E+00 0. -1.
         25    1    1    2    0    0  0.67937426417E+02 -0.59855136568E+02  0.14960152635E+03  0.21495057099E+03  0.12500000000E+03 0.  0.
         25    1    1    2    0    0 -0.58948418697E+02 -0.51438928687E+02  0.26340438077E+03  0.30187372734E+03  0.12500000000E+03 0.  0.
         25    1    1    2    0    0 -0.89890077198E+01  0.11129406525E+03  0.10007622458E+03  0.19521122393E+03  0.12500000000E+03 0.  0.
</event>
<event>
 5    0  0.5631475E-005  0.4290541E+03  0.7546771E-02  0.1034159E+00
         21   -1    0    0  502  501  0.00000000000E+00  0.00000000000E+00  0.27458153685E+03  0.27458153685E+03  0.00000000000E+00 0. -1.
         21   -1    0    0  501  502 -0.00000000000E+00 -0.00000000000E+00 -0.67042890212E+03  0.67042890212E+03  0.00000000000E+00 0. -1.
         25    1    1    2    0    0  0.10277120196E+02  0.19069375502E+03  0.13824688521E+03  0.26684626412E+03  0.12500000000E+03 0.  0.
         25    1    1    2    0    0  0.10308035303E+03 -0.69594058352E+02 -0.38198220795E+03  0.42071878890E+03  0.12500000000E+03 0.  0.
         25    1    1    2    0    0 -0.11335747323E+03 -0.12109969667E+03 -0.15211204253E+03  0.25744538596E+03  0.12500000000E+03 0.  0.
</event>
<event>
 5    0  0.5631475E-005  0.3739600E+03  0.7546771E-02  0.1053189E+00
         21   -1    0    0  502  501  0.00000000000E+00  0.00000000000E+00  0.32011560417E+03  0.32011560417E+03  0.00000000000E+00 0.  1.
         21   -1    0    0  501  502 -0.00000000000E+00 -0.00000000000E+00 -0.43686115952E+03  0.43686115952E+03  0.00000000000E+00 0.  1.
         25    1    1    2    0    0  0.19004641204E+03  0.45292477548E+02  0.55142187231E+02  0.23840031054E+03  0.12500000000E+03 0.  0.
         25    1    1    2    0    0  0.35591142834E+02  0.18146670975E+02  0.79014841562E+02  0.15318086141E+03  0.12500000000E+03 0.  0.
         25    1    1    2    0    0 -0.22563755487E+03 -0.63439148523E+02 -0.25090258415E+03  0.36539559174E+03  0.12500000000E+03 0.  0.
</event>
<event>
 5    0  0.6815740E-005  0.2766733E+03  0.7546771E-02  0.1097520E+00
         21   -1    0    0  502  501  0.00000000000E+00  0.00000000000E+00  0.15725359502E+03  0.15725359502E+03  0.00000000000E+00 0.  1.
         21   -1    0    0  501  502 -0.00000000000E+00 -0.00000000000E+00 -0.48678121204E+03  0.48678121204E+03  0.00000000000E+00 0.  1.
         25    1    1    2    0    0 -0.72002247853E+02  0.51059342552E+02 -0.28279022542E+03  0.32153800981E+03  0.12500000000E+03 0.  0.
         25    1    1    2    0    0  0.22846145165E+02  0.46858723000E+02  0.31090778433E+02  0.13895798924E+03  0.12500000000E+03 0.  0.
         25    1    1    2    0    0  0.49156102688E+02 -0.97918065552E+02 -0.77828170030E+02  0.18353880800E+03  0.12500000000E+03 0.  0.
</event>
<event>
 5    0  0.5631475E-005  0.2564887E+03  0.7546771E-02  0.1109271E+00
         21   -1    0    0  502  501  0.00000000000E+00  0.00000000000E+00  0.76015951242E+03  0.76015951242E+03  0.00000000000E+00 0.  1.
         21   -1    0    0  501  502 -0.00000000000E+00 -0.00000000000E+00 -0.86542968218E+02  0.86542968218E+02  0.00000000000E+00 0.  1.
         25    1    1    2    0    0 -0.15048740003E+03 -0.18514224799E+02  0.28336767459E+03  0.34483542900E+03  0.12500000000E+03 0.  0.
         25    1    1    2    0    0  0.10693189535E+03  0.58512845219E+02  0.18496548747E+03  0.25435293364E+03  0.12500000000E+03 0.  0.
         25    1    1    2    0    0  0.43555504680E+02 -0.39998620420E+02  0.20528338215E+03  0.24751411800E+03  0.12500000000E+03 0.  0.
</event>
<event>
 5    0  0.5631475E-005  0.2179657E+03  0.7546771E-02  0.1135409E+00
         21   -1    0    0  502  501  0.00000000000E+00  0.00000000000E+00  0.39171964981E+02  0.39171964981E+02  0.00000000000E+00 0.  1.
         21   -1    0    0  501  502 -0.00000000000E+00 -0.00000000000E+00 -0.12128323734E+04  0.12128323734E+04  0.00000000000E+00 0.  1.
         25    1    1    2    0    0 -0.40904193409E+02 -0.75147481160E+02 -0.55973276424E+03  0.57986728165E+03  0.12500000000E+03 0.  0.
         25    1    1    2    0    0  0.40879222355E+02  0.68011912832E+02 -0.34936544238E+03  0.37944425604E+03  0.12500000000E+03 0.  0.
         25    1    1    2    0    0  0.24971053197E-01  0.71355683288E+01 -0.26456220178E+03  0.29269280068E+03  0.12500000000E+03 0.  0.
</event>
<event>
 5    0  0.5631475E-005  0.3240459E+03  0.7546771E-02  0.1073802E+00
         21   -1    0    0  502  501  0.00000000000E+00  0.00000000000E+00  0.15513546690E+03  0.15513546690E+03  0.00000000000E+00 0.  1.
         21   -1    0    0  501  502 -0.00000000000E+00 -0.00000000000E+00 -0.67686475803E+03  0.67686475803E+03  0.00000000000E+00 0.  1.
         25    1    1    2    0    0 -0.36828938433E+02  0.95976054136E+02  0.15187198550E+02  0.16255283656E+03  0.12500000000E+03 0.  0.
         25    1    1    2    0    0  0.12378412625E+03  0.42072392298E+02 -0.33834744689E+03  0.38366207907E+03  0.12500000000E+03 0.  0.
         25    1    1    2    0    0 -0.86955187820E+02 -0.13804844643E+03 -0.19856904280E+03  0.28578530930E+03  0.12500000000E+03 0.  0.
</event>
<event>
 5    0  0.5631475E-005  0.2663110E+03  0.7546771E-02  0.1103410E+00
         21   -1    0    0  502  501  0.00000000000E+00  0.00000000000E+00  0.20897476002E+03  0.20897476002E+03  0.00000000000E+00 0. -1.
         21   -1    0    0  501  502 -0.00000000000E+00 -0.00000000000E+00 -0.33937853472E+03  0.33937853472E+03  0.00000000000E+00 0. -1.
         25    1    1    2    0    0  0.28778360466E+02 -0.70870183078E+02  0.35780561656E+02  0.15085100422E+03  0.12500000000E+03 0.  0.
         25    1    1    2    0    0  0.64515087546E+02  0.11494017347E+03 -0.26586096033E+02  0.18358992484E+03  0.12500000000E+03 0.  0.
         25    1    1    2    0    0 -0.93293448012E+02 -0.44069990397E+02 -0.13959824032E+03  0.21391236569E+03  0.12500000000E+03 0.  0.
</event>
<event>
 5    0  0.5631475E-005  0.2975797E+03  0.7546771E-02  0.1086457E+00
         21   -1    0    0  502  501  0.00000000000E+00  0.00000000000E+00  0.48146085861E+03  0.48146085861E+03  0.00000000000E+00 0. -1.
         21   -1    0    0  501  502 -0.00000000000E+00 -0.00000000000E+00 -0.18392704530E+03  0.18392704530E+03  0.00000000000E+00 0. -1.
         25    1    1    2    0    0 -0.54758540094E+02 -0.11375519449E+03  0.16736569980E+03  0.24407994481E+03  0.12500000000E+03 0.  0.
         25    1    1    2    0    0  0.93204765187E+02 -0.41392733318E+02 -0.28375354567E+02  0.16380063300E+03  0.12500000000E+03 0.  0.
         25    1    1    2    0    0 -0.38446225092E+02  0.15514792781E+03  0.15854346808E+03  0.25750732611E+03  0.12500000000E+03 0.  0.
</event>
<event>
 5    0  0.5631475E-005  0.5110938E+03  0.7546771E-02  0.1010923E+00
         21   -1    0    0  502  501  0.00000000000E+00  0.00000000000E+00  0.21162921507E+03  0.21162921507E+03  0.00000000000E+00 0.  1.
         21   -1    0    0  501  502 -0.00000000000E+00 -0.00000000000E+00 -0.12343136409E+04  0.12343136409E+04  0.00000000000E+00 0.  1.
         25    1    1    2    0    0 -0.19036432839E+03  0.15912051101E+02 -0.72573115508E+02  0.23954880085E+03  0.12500000000E+03 0.  0.
         25    1    1    2    0    0  0.20307083617E+03  0.74985663762E+02 -0.10097602175E+04  0.10402409870E+04  0.12500000000E+03 0.  0.
         25    1    1    2    0    0 -0.12706507780E+02 -0.90897714863E+02  0.59648907166E+02  0.16615306808E+03  0.12500000000E+03 0.  0.
</event>
<event>
 5    0  0.5631475E-005  0.3405351E+03  0.7546771E-02  0.1066568E+00
         21   -1    0    0  502  501  0.00000000000E+00  0.00000000000E+00  0.49826538254E+03  0.49826538254E+03  0.00000000000E+00 0.  1.
         21   -1    0    0  501  502 -0.00000000000E+00 -0.00000000000E+00 -0.23273566763E+03  0.23273566763E+03  0.00000000000E+00 0.  1.
         25    1    1    2    0    0  0.91397682541E+00 -0.78855344645E+02 -0.11693499000E+03  0.18846164761E+03  0.12500000000E+03 0.  0.
         25    1    1    2    0    0  0.11112708511E+03 -0.37565838628E+02  0.23369354744E+03  0.28982424914E+03  0.12500000000E+03 0.  0.
         25    1    1    2    0    0 -0.11204106193E+03  0.11642118327E+03  0.14877115747E+03  0.25271515342E+03  0.12500000000E+03 0.  0.
</event>
<event>
 5    0  0.5631475E-005  0.2821031E+03  0.7546771E-02  0.1094546E+00
         21   -1    0    0  502  501  0.00000000000E+00  0.00000000000E+00  0.51511965001E+03  0.51511965001E+03  0.00000000000E+00 0.  1.
         21   -1    0    0  501  502 -0.00000000000E+00 -0.00000000000E+00 -0.15449258588E+03  0.15449258588E+03  0.00000000000E+00 0.  1.
         25    1    1    2    0    0  0.10852016576E+03  0.84359551142E+02  0.14345728343E+03  0.23472995636E+03  0.12500000000E+03 0.  0.
         25    1    1    2    0    0 -0.12390641485E+03  0.22653315727E+02  0.20206415767E+03  0.26892544724E+03  0.12500000000E+03 0.  0.
         25    1    1    2    0    0  0.15386249096E+02 -0.10701286687E+03  0.15105623020E+02  0.16595683229E+03  0.12500000000E+03 0.  0.
</event>
<event>
 5    0  0.5631475E-005  0.3883319E+03  0.7546771E-02  0.1047897E+00
         21   -1    0    0  502  501  0.00000000000E+00  0.00000000000E+00  0.16459945504E+03  0.16459945504E+03  0.00000000000E+00 0.  1.
         21   -1    0    0  501  502 -0.00000000000E+00 -0.00000000000E+00 -0.91617367206E+03  0.91617367206E+03  0.00000000000E+00 0.  1.
         25    1    1    2    0    0 -0.18911581029E+03  0.13004031537E+03 -0.20215800421E+03  0.33040601083E+03  0.12500000000E+03 0.  0.
         25    1    1    2    0    0  0.69546668420E+01  0.86266269519E+02 -0.44692107048E+02  0.15846962195E+03  0.12500000000E+03 0.  0.
         25    1    1    2    0    0  0.18216114345E+03 -0.21630658488E+03 -0.50472410576E+03  0.59189749432E+03  0.12500000000E+03 0.  0.
</event>
<event>
 5    0  0.5924385E-005  0.2718492E+03  0.7546771E-02  0.1100226E+00
         21   -1    0    0  502  501  0.00000000000E+00  0.00000000000E+00  0.15786899976E+03  0.15786899976E+03  0.00000000000E+00 0.  1.
         21   -1    0    0  501  502 -0.00000000000E+00 -0.00000000000E+00 -0.46812239265E+03  0.46812239265E+03  0.00000000000E+00 0.  1.
         25    1    1    2    0    0 -0.16555107613E+03  0.35780529548E+02 -0.13191956159E+03  0.24842539289E+03  0.12500000000E+03 0.  0.
         25    1    1    2    0    0  0.10636009728E+03 -0.40034503474E+02 -0.16887710257E+03  0.23887173867E+03  0.12500000000E+03 0.  0.
         25    1    1    2    0    0  0.59190978858E+02  0.42539739263E+01 -0.94567287288E+01  0.13869426084E+03  0.12500000000E+03 0.  0.
</event>
<event>
 5    0  0.5631475E-005  0.3252691E+03  0.7546771E-02  0.1073250E+00
         21   -1    0    0  502  501  0.00000000000E+00  0.00000000000E+00  0.13731508566E+03  0.13731508566E+03  0.00000000000E+00 0.  1.
         21   -1    0    0  501  502 -0.00000000000E+00 -0.00000000000E+00 -0.77049064724E+03  0.77049064724E+03  0.00000000000E+00 0.  1.
         25    1    1    2    0    0 -0.79320491714E+02 -0.15722458060E+03 -0.21238621328E+03  0.30289307147E+03  0.12500000000E+03 0.  0.
         25    1    1    2    0    0  0.17356350106E+03  0.17321457986E+03 -0.29497637858E+03  0.40343976440E+03  0.12500000000E+03 0.  0.
         25    1    1    2    0    0 -0.94243009351E+02 -0.15989999255E+02 -0.12581296971E+03  0.20147289703E+03  0.12500000000E+03 0.  0.
</event>
<event>
 5    0  0.5631475E-005  0.4547911E+03  0.7546771E-02  0.1026303E+00
         21   -1    0    0  502  501  0.00000000000E+00  0.00000000000E+00  0.44265670766E+03  0.44265670766E+03  0.00000000000E+00 0. -1.
         21   -1    0    0  501  502 -0.00000000000E+00 -0.00000000000E+00 -0.46725806689E+03  0.46725806689E+03  0.00000000000E+00 0. -1.
         25    1    1    2    0    0 -0.54544356850E+02 -0.20506226075E+03 -0.30928682115E+01  0.24629288151E+03  0.12500000000E+03 0.  0.
         25    1    1    2    0    0  0.29008119125E+03  0.14671673646E+03  0.10359517039E+03  0.36335913035E+03  0.12500000000E+03 0.  0.
         25    1    1    2    0    0 -0.23553683440E+03  0.58345524283E+02 -0.12510366141E+03  0.30026276270E+03  0.12500000000E+03 0.  0.
</event>
<event>
 5    0  0.5631475E-005  0.3344104E+03  0.7546771E-02  0.1069202E+00
         21   -1    0    0  502  501  0.00000000000E+00  0.00000000000E+00  0.42272877552E+03  0.42272877552E+03  0.00000000000E+00 0. -1.
         21   -1    0    0  501  502 -0.00000000000E+00 -0.00000000000E+00 -0.26454383684E+03  0.26454383684E+03  0.00000000000E+00 0. -1.
         25    1    1    2    0    0  0.14306528138E+03 -0.10698481803E+03  0.26202209185E+03  0.34087241402E+03  0.12500000000E+03 0.  0.
         25    1    1    2    0    0 -0.72118708157E+02  0.10054789095E+03 -0.13253855164E+02  0.17638495150E+03  0.12500000000E+03 0.  0.
         25    1    1    2    0    0 -0.70946573219E+02  0.64369270855E+01 -0.90583297997E+02  0.17001524684E+03  0.12500000000E+03 0.  0.
</event>
<event>
 5    0  0.5631475E-005  0.5724531E+03  0.7546771E-02  0.9964265E-01
         21   -1    0    0  502  501  0.00000000000E+00  0.00000000000E+00  0.11807798784E+03  0.11807798784E+03  0.00000000000E+00 0. -1.
         21   -1    0    0  501  502 -0.00000000000E+00 -0.00000000000E+00 -0.27753055853E+04  0.27753055853E+04  0.00000000000E+00 0. -1.
         25    1    1    2    0    0  0.25296118665E+02  0.17200714715E+03 -0.43126606556E+03  0.48149950321E+03  0.12500000000E+03 0.  0.
         25    1    1    2    0    0 -0.20251996861E+03  0.30821169058E+03 -0.75709718040E+03  0.85136944065E+03  0.12500000000E+03 0.  0.
         25    1    1    2    0    0  0.17722384995E+03 -0.48021883773E+03 -0.14688643515E+04  0.15605146293E+04  0.12500000000E+03 0.  0.
</event>
<event>
 5    0  0.5631475E-005  0.3211953E+03  0.7546771E-02  0.1075101E+00
         21   -1    0    0  502  501  0.00000000000E+00  0.00000000000E+00  0.60343116386E+03  0.60343116386E+03  0.00000000000E+00 0.  1.
         21   -1    0    0  501  502 -0.00000000000E+00 -0.00000000000E+00 -0.17096632335E+03  0.17096632335E+03  0.00000000000E+00 0.  1.
         25    1    1    2    0    0 -0.25306996184E+02  0.83087825056E+02 -0.52696507773E+02  0.16107747409E+03  0.12500000000E+03 0.  0.
         25    1    1    2    0    0 -0.11719928616E+02 -0.16458979892E+03  0.35912059112E+03  0.41451146860E+03  0.12500000000E+03 0.  0.
         25    1    1    2    0    0  0.37026924800E+02  0.81501973869E+02  0.12604075717E+03  0.19880854452E+03  0.12500000000E+03 0.  0.
</event>
<event>
 5    0  0.5631475E-005  0.5681516E+03  0.7546771E-02  0.9973777E-01
         21   -1    0    0  502  501  0.00000000000E+00  0.00000000000E+00  0.20347066348E+04  0.20347066348E+04  0.00000000000E+00 0.  1.
         21   -1    0    0  501  502 -0.00000000000E+00 -0.00000000000E+00 -0.15864507685E+03  0.15864507685E+03  0.00000000000E+00 0.  1.
         25    1    1    2    0    0  0.14629898772E+03  0.13837486783E+03  0.26124441402E+03  0.35273877262E+03  0.12500000000E+03 0.  0.
         25    1    1    2    0    0 -0.37134069107E+03 -0.36196027050E+03  0.11088447417E+04  0.12304758459E+04  0.12500000000E+03 0.  0.
         25    1    1    2    0    0  0.22504170335E+03  0.22358540267E+03  0.50597240222E+03  0.61013709307E+03  0.12500000000E+03 0.  0.
</event>
<event>
 5    0  0.5631475E-005  0.2455673E+03  0.7546771E-02  0.1116139E+00
         21   -1    0    0  502  501  0.00000000000E+00  0.00000000000E+00  0.61111437208E+03  0.61111437208E+03  0.00000000000E+00 0.  1.
         21   -1    0    0  501  502 -0.00000000000E+00 -0.00000000000E+00 -0.98677586088E+02  0.98677586088E+02  0.00000000000E+00 0.  1.
         25    1    1    2    0    0 -0.11255542496E+02 -0.19800423135E+02  0.43945425065E+02  0.13444308973E+03  0.12500000000E+03 0.  0.
         25    1    1    2    0    0  0.38603666592E+02 -0.15393672108E+02  0.40941574205E+03  0.43008540786E+03  0.12500000000E+03 0.  0.
         25    1    1    2    0    0 -0.27348124096E+02  0.35194095243E+02  0.59075618874E+02  0.14526346057E+03  0.12500000000E+03 0.  0.
</event>
<event>
 5    0  0.5631475E-005  0.2620355E+03  0.7546771E-02  0.1105926E+00
         21   -1    0    0  502  501  0.00000000000E+00  0.00000000000E+00  0.73656080715E+03  0.73656080715E+03  0.00000000000E+00 0. -1.
         21   -1    0    0  501  502 -0.00000000000E+00 -0.00000000000E+00 -0.93220567888E+02  0.93220567888E+02  0.00000000000E+00 0. -1.
         25    1    1    2    0    0  0.13039035430E+02  0.10827048278E+03  0.25711811104E+03  0.30598568089E+03  0.12500000000E+03 0.  0.
         25    1    1    2    0    0  0.41352333456E+02 -0.13762867842E+03  0.12540784790E+03  0.22804341017E+03  0.12500000000E+03 0.  0.
         25    1    1    2    0    0 -0.54391368886E+02  0.29358195642E+02  0.26081428032E+03  0.29575228398E+03  0.12500000000E+03 0.  0.
</event>
<event>
 5    0  0.5631475E-005  0.2138520E+03  0.7546771E-02  0.1138551E+00
         21   -1    0    0  502  501  0.00000000000E+00  0.00000000000E+00  0.69757738536E+02  0.69757738536E+02  0.00000000000E+00 0.  1.
         21   -1    0    0  501  502 -0.00000000000E+00 -0.00000000000E+00 -0.65559274472E+03  0.65559274472E+03  0.00000000000E+00 0.  1.
         25    1    1    2    0    0 -0.24298082642E+02 -0.71911590925E+02 -0.27446556589E+03  0.31099520992E+03  0.12500000000E+03 0.  0.
         25    1    1    2    0    0  0.25392583519E+02  0.14276776808E+02 -0.10273281120E+03  0.16440085204E+03  0.12500000000E+03 0.  0.
         25    1    1    2    0    0 -0.10945008767E+01  0.57634814117E+02 -0.20863662909E+03  0.24995442130E+03  0.12500000000E+03 0.  0.
</event>
<event>
 5    0  0.5631475E-005  0.3803799E+03  0.7546771E-02  0.1050793E+00
         21   -1    0    0  502  501  0.00000000000E+00  0.00000000000E+00  0.66994326266E+03  0.66994326266E+03  0.00000000000E+00 0.  1.
         21   -1    0    0  501  502 -0.00000000000E+00 -0.00000000000E+00 -0.21597186559E+03  0.21597186559E+03  0.00000000000E+00 0.  1.
         25    1    1    2    0    0 -0.24487617594E+03  0.94717230660E+01 -0.24076021754E+02  0.27614979613E+03  0.12500000000E+03 0.  0.
         25    1    1    2    0    0  0.17218458175E+03  0.55327951873E+02  0.28813378418E+03  0.36242901379E+03  0.12500000000E+03 0.  0.
         25    1    1    2    0    0  0.72691594184E+02 -0.64799674939E+02  0.18991363465E+03  0.24733631833E+03  0.12500000000E+03 0.  0.
</event>
<event>
 5    0  0.5631475E-005  0.3935378E+03  0.7546771E-02  0.1046041E+00
         21   -1    0    0  502  501  0.00000000000E+00  0.00000000000E+00  0.12952695880E+03  0.12952695880E+03  0.00000000000E+00 0. -1.
         21   -1    0    0  501  502 -0.00000000000E+00 -0.00000000000E+00 -0.11956740239E+04  0.11956740239E+04  0.00000000000E+00 0. -1.
         25    1    1    2    0    0  0.14683716381E+03  0.12854460276E+03 -0.26207457365E+03  0.34984703761E+03  0.12500000000E+03 0.  0.
         25    1    1    2    0    0 -0.22360396617E+03 -0.14009540181E+03 -0.20071237785E+03  0.35431047672E+03  0.12500000000E+03 0.  0.
         25    1    1    2    0    0  0.76766802354E+02  0.11550799050E+02 -0.60336011364E+03  0.62104346839E+03  0.12500000000E+03 0.  0.
</event>
<event>
 5    0  0.5631475E-005  0.2605594E+03  0.7546771E-02  0.1106808E+00
         21   -1    0    0  502  501  0.00000000000E+00  0.00000000000E+00  0.54466870892E+03  0.54466870892E+03  0.00000000000E+00 0. -1.
         21   -1    0    0  501  502 -0.00000000000E+00 -0.00000000000E+00 -0.12464674839E+03  0.12464674839E+03  0.00000000000E+00 0. -1.
         25    1    1    2    0    0  0.16136483329E+02 -0.55598120158E+02  0.23726973939E+03  0.27436010331E+03  0.12500000000E+03 0.  0.
         25    1    1    2    0    0 -0.72486942514E+02  0.12445599433E+03  0.13710663394E+03  0.23487630878E+03  0.12500000000E+03 0.  0.
         25    1    1    2    0    0  0.56350459185E+02 -0.68857874168E+02  0.45645587209E+02  0.16007904522E+03  0.12500000000E+03 0.  0.
</event>
<event>
 5    0  0.5631475E-005  0.2572987E+03  0.7546771E-02  0.1108777E+00
         21   -1    0    0  502  501  0.00000000000E+00  0.00000000000E+00  0.83903751320E+02  0.83903751320E+02  0.00000000000E+00 0. -1.
         21   -1    0    0  501  502 -0.00000000000E+00 -0.00000000000E+00 -0.78903025385E+03  0.78903025385E+03  0.00000000000E+00 0. -1.
         25    1    1    2    0    0  0.84748436781E+02  0.95808947062E+02 -0.19805485508E+03  0.26685647359E+03  0.12500000000E+03 0.  0.
         25    1    1    2    0    0 -0.62350130651E+02  0.12847731238E+02 -0.34857736557E+03  0.37574430505E+03  0.12500000000E+03 0.  0.
         25    1    1    2    0    0 -0.22398306129E+02 -0.10865667830E+03 -0.15849428188E+03  0.23033322653E+03  0.12500000000E+03 0.  0.
</event>
<event>
 5    0  0.6416559E-005  0.3179171E+03  0.7546771E-02  0.1076612E+00
         21   -1    0    0  502  501  0.00000000000E+00  0.00000000000E+00  0.29147579538E+03  0.29147579538E+03  0.00000000000E+00 0.  1.
         21   -1    0    0  501  502 -0.00000000000E+00 -0.00000000000E+00 -0.34675694053E+03  0.34675694053E+03  0.00000000000E+00 0.  1.
         25    1    1    2    0    0 -0.68383929375E+02 -0.18984343444E+02 -0.22271107681E+03  0.26506978482E+03  0.12500000000E+03 0.  0.
         25    1    1    2    0    0  0.11313614115E+03  0.59405051435E+02  0.36665824028E+02  0.18247774994E+03  0.12500000000E+03 0.  0.
         25    1    1    2    0    0 -0.44752211774E+02 -0.40420707991E+02  0.13076410763E+03  0.19068520115E+03  0.12500000000E+03 0.  0.
</event>
<event>
 5    0  0.5631475E-005  0.5243080E+03  0.7546771E-02  0.1007622E+00
         21   -1    0    0  502  501  0.00000000000E+00  0.00000000000E+00  0.20926610894E+03  0.20926610894E+03  0.00000000000E+00 0.  1.
         21   -1    0    0  501  502 -0.00000000000E+00 -0.00000000000E+00 -0.13136329275E+04  0.13136329275E+04  0.00000000000E+00 0.  1.
         25    1    1    2    0    0  0.37976130694E+02 -0.95506035396E+02 -0.64912417895E+03  0.66899236841E+03  0.12500000000E+03 0.  0.
         25    1    1    2    0    0  0.19610944068E+03  0.18883742555E+02  0.84044684025E+02  0.24800003502E+03  0.12500000000E+03 0.  0.
         25    1    1    2    0    0 -0.23408557137E+03  0.76622292842E+02 -0.53928732359E+03  0.60590663296E+03  0.12500000000E+03 0.  0.
</event>
<event>
 5    0  0.5631475E-005  0.5861880E+03  0.7546771E-02  0.9934483E-01
         21   -1    0    0  502  501  0.00000000000E+00  0.00000000000E+00  0.11136459647E+03  0.11136459647E+03  0.00000000000E+00 0.  1.
         21   -1    0    0  501  502 -0.00000000000E+00 -0.00000000000E+00 -0.30855084781E+04  0.30855084781E+04  0.00000000000E+00 0.  1.
         25    1    1    2    0    0 -0.32995067243E+03  0.29616171238E+03 -0.66969380052E+03  0.81283085114E+03  0.12500000000E+03 0.  0.
         25    1    1    2    0    0  0.23384226801E+03 -0.37606739119E+02 -0.15152012094E+04  0.15386865106E+04  0.12500000000E+03 0.  0.
         25    1    1    2    0    0  0.96108404426E+02 -0.25855497326E+03 -0.78924887175E+03  0.84535571280E+03  0.12500000000E+03 0.  0.
</event>
<event>
 5    0  0.5631475E-005  0.2945257E+03  0.7546771E-02  0.1088010E+00
         21   -1    0    0  502  501  0.00000000000E+00  0.00000000000E+00  0.19270234092E+04  0.19270234092E+04  0.00000000000E+00 0. -1.
         21   -1    0    0  501  502 -0.00000000000E+00 -0.00000000000E+00 -0.45015231727E+02  0.45015231727E+02  0.00000000000E+00 0. -1.
         25    1    1    2    0    0  0.21022010456E+02 -0.11629029787E+03  0.38945065942E+03  0.42574895705E+03  0.12500000000E+03 0.  0.
         25    1    1    2    0    0  0.77784003378E+02  0.13974254021E+03  0.48228987702E+03  0.52326556756E+03  0.12500000000E+03 0.  0.
         25    1    1    2    0    0 -0.98806013834E+02 -0.23452242333E+02  0.10102676410E+04  0.10230241163E+04  0.12500000000E+03 0.  0.
</event>
<event>
 5    0  0.5976639E-005  0.2827094E+03  0.7546771E-02  0.1094218E+00
         21   -1    0    0  502  501  0.00000000000E+00  0.00000000000E+00  0.46319657735E+02  0.46319657735E+02  0.00000000000E+00 0.  1.
         21   -1    0    0  501  502 -0.00000000000E+00 -0.00000000000E+00 -0.17255012248E+04  0.17255012248E+04  0.00000000000E+00 0.  1.
         25    1    1    2    0    0 -0.92959885230E+02  0.45976055192E+02 -0.30155432824E+03  0.34251328557E+03  0.12500000000E+03 0.  0.
         25    1    1    2    0    0  0.17705341278E+03  0.16815524091E+02 -0.81343940310E+03  0.84198535340E+03  0.12500000000E+03 0.  0.
         25    1    1    2    0    0 -0.84093527547E+02 -0.62791579283E+02 -0.56418783576E+03  0.58732224360E+03  0.12500000000E+03 0.  0.
</event>
<event>
 5    0  0.5631475E-005  0.2297352E+03  0.7546771E-02  0.1126826E+00
         21   -1    0    0  502  501  0.00000000000E+00  0.00000000000E+00  0.54745773268E+03  0.54745773268E+03  0.00000000000E+00 0. -1.
         21   -1    0    0  501  502 -0.00000000000E+00 -0.00000000000E+00 -0.96406070415E+02  0.96406070415E+02  0.00000000000E+00 0. -1.
         25    1    1    2    0    0  0.42094715831E+02  0.45294548065E+02  0.74114332524E+02  0.15792876708E+03  0.12500000000E+03 0.  0.
         25    1    1    2    0    0  0.57272321809E+02 -0.29701343753E+01  0.21040615445E+03  0.25136565075E+03  0.12500000000E+03 0.  0.
         25    1    1    2    0    0 -0.99367037639E+02 -0.42324413690E+02  0.16653117529E+03  0.23456938527E+03  0.12500000000E+03 0.  0.
</event>
<event>
 5    0  0.5631475E-005  0.2737620E+03  0.7546771E-02  0.1099146E+00
         21   -1    0    0  502  501  0.00000000000E+00  0.00000000000E+00  0.11752755044E+03  0.11752755044E+03  0.00000000000E+00 0. -1.
         21   -1    0    0  501  502 -0.00000000000E+00 -0.00000000000E+00 -0.63768572077E+03  0.63768572077E+03  0.00000000000E+00 0. -1.
         25    1    1    2    0    0 -0.41622127862E+02  0.44648705236E+02 -0.13096791280E+01  0.13911370769E+03  0.12500000000E+03 0.  0.
         25    1    1    2    0    0 -0.69527850244E+01  0.11703643190E+02 -0.69235204207E+02  0.14354034271E+03  0.12500000000E+03 0.  0.
         25    1    1    2    0    0  0.48574912886E+02 -0.56352348426E+02 -0.44961328700E+03  0.47255922082E+03  0.12500000000E+03 0.  0.
</event>
<event>
 5    0  0.5631475E-005  0.2606381E+03  0.7546771E-02  0.1106760E+00
         21   -1    0    0  502  501  0.00000000000E+00  0.00000000000E+00  0.70495506148E+03  0.70495506148E+03  0.00000000000E+00 0.  1.
         21   -1    0    0  501  502 -0.00000000000E+00 -0.00000000000E+00 -0.96363894231E+02  0.96363894231E+02  0.00000000000E+00 0.  1.
         25    1    1    2    0    0  0.40173292222E+02 -0.23481877750E+02  0.21497781181E+03  0.25299358008E+03  0.12500000000E+03 0.  0.
         25    1    1    2    0    0 -0.13307982425E+03  0.89465131013E+02  0.15416004969E+03  0.25515597232E+03  0.12500000000E+03 0.  0.
         25    1    1    2    0    0  0.92906532028E+02 -0.65983253262E+02  0.23945330575E+03  0.29316940332E+03  0.12500000000E+03 0.  0.
</event>
<event>
 5    0  0.5631475E-005  0.2132270E+03  0.7546771E-02  0.1139036E+00
         21   -1    0    0  502  501  0.00000000000E+00  0.00000000000E+00  0.55878954732E+02  0.55878954732E+02  0.00000000000E+00 0.  1.
         21   -1    0    0  501  502 -0.00000000000E+00 -0.00000000000E+00 -0.81364752671E+03  0.81364752671E+03  0.00000000000E+00 0.  1.
         25    1    1    2    0    0 -0.15726112966E+02  0.22028976189E+02 -0.22566063998E+03  0.25938448461E+03  0.12500000000E+03 0.  0.
         25    1    1    2    0    0  0.59361287668E+02  0.40292393318E+02 -0.19357921269E+03  0.24134032199E+03  0.12500000000E+03 0.  0.
         25    1    1    2    0    0 -0.43635174702E+02 -0.62321369507E+02 -0.33852871931E+03  0.36880167484E+03  0.12500000000E+03 0.  0.
</event>
<event>
 5    0  0.5631475E-005  0.2393660E+03  0.7546771E-02  0.1120216E+00
         21   -1    0    0  502  501  0.00000000000E+00  0.00000000000E+00  0.58824354955E+02  0.58824354955E+02  0.00000000000E+00 0.  1.
         21   -1    0    0  501  502 -0.00000000000E+00 -0.00000000000E+00 -0.97401991718E+03  0.97401991718E+03  0.00000000000E+00 0.  1.
         25    1    1    2    0    0  0.17750827853E+02 -0.51025123830E+01 -0.31308460488E+03  0.33762123353E+03  0.12500000000E+03 0.  0.
         25    1    1    2    0    0 -0.11262063982E+03 -0.58140589655E+02 -0.32443380799E+03  0.37006220078E+03  0.12500000000E+03 0.  0.
         25    1    1    2    0    0  0.94869811964E+02  0.63243102038E+02 -0.27767714936E+03  0.32516083782E+03  0.12500000000E+03 0.  0.
</event>
<event>
 5    0  0.5631475E-005  0.4694953E+03  0.7546771E-02  0.1022063E+00
         21   -1    0    0  502  501  0.00000000000E+00  0.00000000000E+00  0.72158978283E+03  0.72158978283E+03  0.00000000000E+00 0. -1.
         21   -1    0    0  501  502 -0.00000000000E+00 -0.00000000000E+00 -0.30547254558E+03  0.30547254558E+03  0.00000000000E+00 0. -1.
         25    1    1    2    0    0 -0.15286135615E+03  0.45240682973E+02  0.36232371574E+03  0.41511057393E+03  0.12500000000E+03 0.  0.
         25    1    1    2    0    0 -0.16679290437E+03 -0.78884075156E+02  0.13104473745E+03  0.25853489798E+03  0.12500000000E+03 0.  0.
         25    1    1    2    0    0  0.31965426051E+03  0.33643392183E+02 -0.77251215939E+02  0.35341685651E+03  0.12500000000E+03 0.  0.
</event>
<event>
 5    0  0.5631475E-005  0.2296707E+03  0.7546771E-02  0.1126872E+00
         21   -1    0    0  502  501  0.00000000000E+00  0.00000000000E+00  0.30451606532E+04  0.30451606532E+04  0.00000000000E+00 0. -1.
         21   -1    0    0  501  502 -0.00000000000E+00 -0.00000000000E+00 -0.17322116786E+02  0.17322116786E+02  0.00000000000E+00 0. -1.
         25    1    1    2    0    0 -0.88556780271E+01  0.49502560109E+01  0.12797974264E+04  0.12859274399E+04  0.12500000000E+03 0.  0.
         25    1    1    2    0    0  0.43604659995E+02  0.82108542034E+02  0.10298203034E+04  0.10415363826E+04  0.12500000000E+03 0.  0.
         25    1    1    2    0    0 -0.34748981968E+02 -0.87058798045E+02  0.71822080663E+03  0.73501894747E+03  0.12500000000E+03 0.  0.
</event>
<event>
 5    0  0.5631475E-005  0.2986604E+03  0.7546771E-02  0.1085912E+00
         21   -1    0    0  502  501  0.00000000000E+00  0.00000000000E+00  0.39196917752E+03  0.39196917752E+03  0.00000000000E+00 0. -1.
         21   -1    0    0  501  502 -0.00000000000E+00 -0.00000000000E+00 -0.22756395943E+03  0.22756395943E+03  0.00000000000E+00 0. -1.
         25    1    1    2    0    0 -0.39130860254E+02 -0.14727948699E+02  0.53346295868E+02  0.14219340343E+03  0.12500000000E+03 0.  0.
         25    1    1    2    0    0 -0.15741072413E+03  0.44296702861E+02  0.12725239163E+03  0.24198864670E+03  0.12500000000E+03 0.  0.
         25    1    1    2    0    0  0.19654158438E+03 -0.29568754163E+02 -0.16193469403E+02  0.23535108682E+03  0.12500000000E+03 0.  0.
</event>
<event>
 5    0  0.5839671E-005  0.3827211E+03  0.7546771E-02  0.1049933E+00
         21   -1    0    0  502  501  0.00000000000E+00  0.00000000000E+00  0.71277697711E+03  0.71277697711E+03  0.00000000000E+00 0.  1.
         21   -1    0    0  501  502 -0.00000000000E+00 -0.00000000000E+00 -0.20549971665E+03  0.20549971665E+03  0.00000000000E+00 0.  1.
         25    1    1    2    0    0  0.11012109753E+03  0.64979362721E+02  0.51283212464E+03  0.54311210791E+03  0.12500000000E+03 0.  0.
         25    1    1    2    0    0 -0.10954632013E+03 -0.64421221081E+02  0.10619619495E+03  0.20749246204E+03  0.12500000000E+03 0.  0.
         25    1    1    2    0    0 -0.57477739422E+00 -0.55814164053E+00 -0.11175105912E+03  0.16767212382E+03  0.12500000000E+03 0.  0.
</event>
<event>
 5    0  0.5631475E-005  0.2470211E+03  0.7546771E-02  0.1115202E+00
         21   -1    0    0  502  501  0.00000000000E+00  0.00000000000E+00  0.12206271311E+03  0.12206271311E+03  0.00000000000E+00 0.  1.
         21   -1    0    0  501  502 -0.00000000000E+00 -0.00000000000E+00 -0.49990242892E+03  0.49990242892E+03  0.00000000000E+00 0.  1.
         25    1    1    2    0    0  0.16487450787E+02 -0.32099343054E+02 -0.14403274416E+03  0.19409439777E+03  0.12500000000E+03 0.  0.
         25    1    1    2    0    0  0.58718154808E+02  0.12112484571E+03 -0.90202357918E+02  0.20464729494E+03  0.12500000000E+03 0.  0.
         25    1    1    2    0    0 -0.75205605595E+02 -0.89025502653E+02 -0.14360461374E+03  0.22322344931E+03  0.12500000000E+03 0.  0.
</event>
<event>
 5    0  0.5680029E-005  0.2762784E+03  0.7546771E-02  0.1097739E+00
         21   -1    0    0  502  501  0.00000000000E+00  0.00000000000E+00  0.35255972329E+03  0.35255972329E+03  0.00000000000E+00 0. -1.
         21   -1    0    0  501  502 -0.00000000000E+00 -0.00000000000E+00 -0.21650165198E+03  0.21650165198E+03  0.00000000000E+00 0. -1.
         25    1    1    2    0    0 -0.13755427248E+03 -0.96585746980E+01 -0.60980589675E+02  0.19585223578E+03  0.12500000000E+03 0.  0.
         25    1    1    2    0    0  0.66919903164E+02 -0.26745386972E+02  0.25417301650E+02  0.14650811714E+03  0.12500000000E+03 0.  0.
         25    1    1    2    0    0  0.70634369313E+02  0.36403961670E+02  0.17162135935E+03  0.22670102236E+03  0.12500000000E+03 0.  0.
</event>
<event>
 5    0  0.5631475E-005  0.2382130E+03  0.7546771E-02  0.1120989E+00
         21   -1    0    0  502  501  0.00000000000E+00  0.00000000000E+00  0.43826691649E+02  0.43826691649E+02  0.00000000000E+00 0.  1.
         21   -1    0    0  501  502 -0.00000000000E+00 -0.00000000000E+00 -0.12947684507E+04  0.12947684507E+04  0.00000000000E+00 0.  1.
         25    1    1    2    0    0  0.10324495622E+03  0.45031763514E+02 -0.68984048217E+03  0.71006497699E+03  0.12500000000E+03 0.  0.
         25    1    1    2    0    0 -0.28375268854E+02 -0.19943388739E+02 -0.32528301267E+03  0.35019556389E+03  0.12500000000E+03 0.  0.
         25    1    1    2    0    0 -0.74869687363E+02 -0.25088374775E+02 -0.23581826417E+03  0.27833460142E+03  0.12500000000E+03 0.  0.
</event>
<event>
 5    0  0.5631475E-005  0.3069965E+03  0.7546771E-02  0.1081795E+00
         21   -1    0    0  502  501  0.00000000000E+00  0.00000000000E+00  0.93143497441E+03  0.93143497441E+03  0.00000000000E+00 0. -1.
         21   -1    0    0  501  502 -0.00000000000E+00 -0.00000000000E+00 -0.10118458317E+03  0.10118458317E+03  0.00000000000E+00 0. -1.
         25    1    1    2    0    0  0.26175595484E+02  0.10303874617E+03  0.70445398417E+02  0.17857687188E+03  0.12500000000E+03 0.  0.
         25    1    1    2    0    0  0.64109325494E+02 -0.15611464957E+03  0.30024436505E+03  0.36640615193E+03  0.12500000000E+03 0.  0.
         25    1    1    2    0    0 -0.90284920978E+02  0.53075903397E+02  0.45956062776E+03  0.48763653377E+03  0.12500000000E+03 0.  0.
</event>
<event>
 5    0  0.5631475E-005  0.3314325E+03  0.7546771E-02  0.1070505E+00
         21   -1    0    0  502  501  0.00000000000E+00  0.00000000000E+00  0.13108175689E+03  0.13108175689E+03  0.00000000000E+00 0. -1.
         21   -1    0    0  501  502 -0.00000000000E+00 -0.00000000000E+00 -0.83800762324E+03  0.83800762324E+03  0.00000000000E+00 0. -1.
         25    1    1    2    0    0  0.17145345521E+03 -0.90291079268E+02 -0.32554958182E+03  0.39894397667E+03  0.12500000000E+03 0.  0.
         25    1    1    2    0    0 -0.11461535170E+03 -0.68601288912E+02 -0.72817127468E+02  0.19690137059E+03  0.12500000000E+03 0.  0.
         25    1    1    2    0    0 -0.56838103505E+02  0.15889236818E+03 -0.30855915706E+03  0.37324403288E+03  0.12500000000E+03 0.  0.
</event>
<event>
 5    0  0.5631475E-005  0.3866063E+03  0.7546771E-02  0.1048519E+00
         21   -1    0    0  502  501  0.00000000000E+00  0.00000000000E+00  0.42817159873E+03  0.42817159873E+03  0.00000000000E+00 0. -1.
         21   -1    0    0  501  502 -0.00000000000E+00 -0.00000000000E+00 -0.34907600773E+03  0.34907600773E+03  0.00000000000E+00 0. -1.
         25    1    1    2    0    0  0.10673976276E+03 -0.11936930780E+03  0.25658363970E+03  0.32726529416E+03  0.12500000000E+03 0.  0.
         25    1    1    2    0    0  0.38474375239E+02  0.12645379032E+03  0.94908040064E+01  0.18217001399E+03  0.12500000000E+03 0.  0.
         25    1    1    2    0    0 -0.14521413800E+03 -0.70844825232E+01 -0.18697885271E+03  0.26781229832E+03  0.12500000000E+03 0.  0.
</event>
<event>
 5    0  0.5631475E-005  0.3261669E+03  0.7546771E-02  0.1072846E+00
         21   -1    0    0  502  501  0.00000000000E+00  0.00000000000E+00  0.23505755776E+03  0.23505755776E+03  0.00000000000E+00 0. -1.
         21   -1    0    0  501  502 -0.00000000000E+00 -0.00000000000E+00 -0.45259071674E+03  0.45259071674E+03  0.00000000000E+00 0. -1.
         25    1    1    2    0    0 -0.17937419683E+03 -0.12505023282E+03 -0.12068310563E+03  0.27928851606E+03  0.12500000000E+03 0.  0.
         25    1    1    2    0    0  0.38712069649E+02  0.13373517929E+03 -0.11416826219E+03  0.21918739610E+03  0.12500000000E+03 0.  0.
         25    1    1    2    0    0  0.14066212718E+03 -0.86849464702E+01  0.17318208836E+02  0.18917236235E+03  0.12500000000E+03 0.  0.
</event>
<event>
 5    0  0.5631475E-005  0.4851178E+03  0.7546771E-02  0.1017738E+00
         21   -1    0    0  502  501  0.00000000000E+00  0.00000000000E+00  0.27512114410E+03  0.27512114410E+03  0.00000000000E+00 0.  1.
         21   -1    0    0  501  502 -0.00000000000E+00 -0.00000000000E+00 -0.85540252939E+03  0.85540252939E+03  0.00000000000E+00 0.  1.
         25    1    1    2    0    0 -0.22707958103E+03  0.23199860908E+03 -0.25339842577E+03  0.43037687312E+03  0.12500000000E+03 0.  0.
         25    1    1    2    0    0  0.17303107900E+03  0.11669451528E+03 -0.10483355827E+03  0.26490080999E+03  0.12500000000E+03 0.  0.
         25    1    1    2    0    0  0.54048502028E+02 -0.34869312436E+03 -0.22204940125E+03  0.43524599038E+03  0.12500000000E+03 0.  0.
</event>
<event>
 5    0  0.5631475E-005  0.3291709E+03  0.7546771E-02  0.1071504E+00
         21   -1    0    0  502  501  0.00000000000E+00  0.00000000000E+00  0.17334403963E+03  0.17334403963E+03  0.00000000000E+00 0. -1.
         21   -1    0    0  501  502 -0.00000000000E+00 -0.00000000000E+00 -0.62507758848E+03  0.62507758848E+03  0.00000000000E+00 0. -1.
         25    1    1    2    0    0  0.28963913205E+02  0.72858683427E+02 -0.47089581544E+03  0.49347255752E+03  0.12500000000E+03 0.  0.
         25    1    1    2    0    0 -0.87383920106E+02 -0.12014778654E+02  0.39643322136E+00  0.15298843603E+03  0.12500000000E+03 0.  0.
         25    1    1    2    0    0  0.58420006901E+02 -0.60843904773E+02  0.18765833376E+02  0.15196063456E+03  0.12500000000E+03 0.  0.
</event>
<event>
 5    0  0.5752760E-005  0.3778998E+03  0.7546771E-02  0.1051713E+00
         21   -1    0    0  502  501  0.00000000000E+00  0.00000000000E+00  0.23310349755E+03  0.23310349755E+03  0.00000000000E+00 0. -1.
         21   -1    0    0  501  502 -0.00000000000E+00 -0.00000000000E+00 -0.61263900097E+03  0.61263900097E+03  0.00000000000E+00 0. -1.
         25    1    1    2    0    0 -0.83924670187E+02  0.20979962238E+02 -0.10726355750E+02  0.15239279441E+03  0.12500000000E+03 0.  0.
         25    1    1    2    0    0 -0.68164803061E+02 -0.92858958904E+02 -0.44025323343E+03  0.47192916435E+03  0.12500000000E+03 0.  0.
         25    1    1    2    0    0  0.15208947325E+03  0.71878996666E+02  0.71444085755E+02  0.22142053975E+03  0.12500000000E+03 0.  0.
</event>
<event>
 5    0  0.5631475E-005  0.2643917E+03  0.7546771E-02  0.1104533E+00
         21   -1    0    0  502  501  0.00000000000E+00  0.00000000000E+00  0.77456934039E+03  0.77456934039E+03  0.00000000000E+00 0. -1.
         21   -1    0    0  501  502 -0.00000000000E+00 -0.00000000000E+00 -0.90247555375E+02  0.90247555375E+02  0.00000000000E+00 0. -1.
         25    1    1    2    0    0  0.40705345540E+02  0.50704901964E+02  0.14174771000E+03  0.19986326708E+03  0.12500000000E+03 0.  0.
         25    1    1    2    0    0 -0.24554574089E+02 -0.96089183240E+02  0.70868707060E+02  0.17459505115E+03  0.12500000000E+03 0.  0.
         25    1    1    2    0    0 -0.16150771451E+02  0.45384281276E+02  0.47170536796E+03  0.49035857754E+03  0.12500000000E+03 0.  0.
</event>
<event>
 5    0  0.5631475E-005  0.3238385E+03  0.7546771E-02  0.1073896E+00
         21   -1    0    0  502  501  0.00000000000E+00  0.00000000000E+00  0.28039300152E+03  0.28039300152E+03  0.00000000000E+00 0.  1.
         21   -1    0    0  501  502 -0.00000000000E+00 -0.00000000000E+00 -0.37401556439E+03  0.37401556439E+03  0.00000000000E+00 0.  1.
         25    1    1    2    0    0 -0.98497324149E+02 -0.15680537358E+03 -0.21313777330E+03  0.30877557943E+03  0.12500000000E+03 0.  0.
         25    1    1    2    0    0  0.64670941391E+02  0.13067920475E+03  0.76025890969E+02  0.20655343452E+03  0.12500000000E+03 0.  0.
         25    1    1    2    0    0  0.33826382758E+02  0.26126168826E+02  0.43489319458E+02  0.13907955197E+03  0.12500000000E+03 0.  0.
</event>
<event>
 5    0  0.5631475E-005  0.2514120E+03  0.7546771E-02  0.1112416E+00
         21   -1    0    0  502  501  0.00000000000E+00  0.00000000000E+00  0.45383801384E+02  0.45383801384E+02  0.00000000000E+00 0. -1.
         21   -1    0    0  501  502 -0.00000000000E+00 -0.00000000000E+00 -0.13927432307E+04  0.13927432307E+04  0.00000000000E+00 0. -1.
         25    1    1    2    0    0 -0.69237541584E+02 -0.14386023839E+02 -0.19775400028E+03  0.24440220840E+03  0.12500000000E+03 0.  0.
         25    1    1    2    0    0  0.11578664224E+03 -0.28452858187E+02 -0.76874464125E+03  0.78791461156E+03  0.12500000000E+03 0.  0.
         25    1    1    2    0    0 -0.46549100654E+02  0.42838882026E+02 -0.38086078775E+03  0.40581021209E+03  0.12500000000E+03 0.  0.
</event>
<event>
 5    0  0.5631475E-005  0.4865219E+03  0.7546771E-02  0.1017358E+00
         21   -1    0    0  502  501  0.00000000000E+00  0.00000000000E+00  0.11561477756E+03  0.11561477756E+03  0.00000000000E+00 0.  1.
         21   -1    0    0  501  502 -0.00000000000E+00 -0.00000000000E+00 -0.20473473190E+04  0.20473473190E+04  0.00000000000E+00 0.  1.
         25    1    1    2    0    0  0.12312211237E+03  0.24383211838E+03 -0.58729271744E+03  0.65965967928E+03  0.12500000000E+03 0.  0.
         25    1    1    2    0    0  0.19938330355E+03 -0.22550475623E+03 -0.62907917434E+03  0.70849961496E+03  0.12500000000E+03 0.  0.
         25    1    1    2    0    0 -0.32250541591E+03 -0.18327362154E+02 -0.71536064962E+03  0.79480280228E+03  0.12500000000E+03 0.  0.
</event>
<event>
 5    0  0.5631475E-005  0.2476351E+03  0.7546771E-02  0.1114809E+00
         21   -1    0    0  502  501  0.00000000000E+00  0.00000000000E+00  0.32092081062E+03  0.32092081062E+03  0.00000000000E+00 0. -1.
         21   -1    0    0  501  502 -0.00000000000E+00 -0.00000000000E+00 -0.19108492893E+03  0.19108492893E+03  0.00000000000E+00 0. -1.
         25    1    1    2    0    0  0.51297959081E+02  0.42894102651E+02  0.29104573125E+02  0.14471855729E+03  0.12500000000E+03 0.  0.
         25    1    1    2    0    0  0.42279038243E+02 -0.11498811705E+03  0.85020999209E+02  0.19458508279E+03  0.12500000000E+03 0.  0.
         25    1    1    2    0    0 -0.93576997324E+02  0.72094014402E+02  0.15710309355E+02  0.17270209947E+03  0.12500000000E+03 0.  0.
</event>
<event>
 5    0  0.5631475E-005  0.5646066E+03  0.7546771E-02  0.9981685E-01
         21   -1    0    0  502  501  0.00000000000E+00  0.00000000000E+00  0.43826677383E+03  0.43826677383E+03  0.00000000000E+00 0. -1.
         21   -1    0    0  501  502 -0.00000000000E+00 -0.00000000000E+00 -0.72736648513E+03  0.72736648513E+03  0.00000000000E+00 0. -1.
         25    1    1    2    0    0 -0.27622128301E+03 -0.59081576842E+02  0.18739795539E+03  0.36129188144E+03  0.12500000000E+03 0.  0.
         25    1    1    2    0    0  0.35960189459E+03 -0.72704303464E+01 -0.51023556682E+03  0.63665666995E+03  0.12500000000E+03 0.  0.
         25    1    1    2    0    0 -0.83380611580E+02  0.66352007188E+02  0.33737900125E+02  0.16768470756E+03  0.12500000000E+03 0.  0.
</event>
<event>
 5    0  0.5631475E-005  0.2832700E+03  0.7546771E-02  0.1093916E+00
         21   -1    0    0  502  501  0.00000000000E+00  0.00000000000E+00  0.25626600843E+03  0.25626600843E+03  0.00000000000E+00 0. -1.
         21   -1    0    0  501  502 -0.00000000000E+00 -0.00000000000E+00 -0.31311943506E+03  0.31311943506E+03  0.00000000000E+00 0. -1.
         25    1    1    2    0    0 -0.67496213566E+01  0.11892627845E+02 -0.12628861931E+03  0.17821562040E+03  0.12500000000E+03 0.  0.
         25    1    1    2    0    0 -0.45984577615E+02  0.10780633586E+03 -0.44910190859E+02  0.17714037561E+03  0.12500000000E+03 0.  0.
         25    1    1    2    0    0  0.52734198972E+02 -0.11969896370E+03  0.11434538354E+03  0.21402944748E+03  0.12500000000E+03 0.  0.
</event>
<event>
 5    0  0.5631475E-005  0.3451840E+03  0.7546771E-02  0.1064609E+00
         21   -1    0    0  502  501  0.00000000000E+00  0.00000000000E+00  0.38522674579E+03  0.38522674579E+03  0.00000000000E+00 0.  1.
         21   -1    0    0  501  502 -0.00000000000E+00 -0.00000000000E+00 -0.30930359653E+03  0.30930359653E+03  0.00000000000E+00 0.  1.
         25    1    1    2    0    0 -0.18770730170E+02  0.56352523208E+02  0.11749693203E+03  0.18154469483E+03  0.12500000000E+03 0.  0.
         25    1    1    2    0    0  0.17721955736E+03 -0.24117560230E+02  0.12308901228E+03  0.25052810854E+03  0.12500000000E+03 0.  0.
         25    1    1    2    0    0 -0.15844882719E+03 -0.32234962978E+02 -0.16466279505E+03  0.26245753895E+03  0.12500000000E+03 0.  0.
</event>
<event>
 5    0  0.5631475E-005  0.4693648E+03  0.7546771E-02  0.1022100E+00
         21   -1    0    0  502  501  0.00000000000E+00  0.00000000000E+00  0.27140799697E+03  0.27140799697E+03  0.00000000000E+00 0. -1.
         21   -1    0    0  501  502 -0.00000000000E+00 -0.00000000000E+00 -0.81170534161E+03  0.81170534161E+03  0.00000000000E+00 0. -1.
         25    1    1    2    0    0 -0.24411058140E+03 -0.86179817606E+02  0.89985460457E+02  0.30122967982E+03  0.12500000000E+03 0.  0.
         25    1    1    2    0    0  0.60672995733E+02  0.12211222092E+03 -0.11031839929E+03  0.21537817004E+03  0.12500000000E+03 0.  0.
         25    1    1    2    0    0  0.18343758567E+03 -0.35932403316E+02 -0.51996440581E+03  0.56650548872E+03  0.12500000000E+03 0.  0.
</event>
<event>
 5    0  0.5631475E-005  0.3139997E+03  0.7546771E-02  0.1078444E+00
         21   -1    0    0  502  501  0.00000000000E+00  0.00000000000E+00  0.80581064051E+02  0.80581064051E+02  0.00000000000E+00 0.  1.
         21   -1    0    0  501  502 -0.00000000000E+00 -0.00000000000E+00 -0.12235604237E+04  0.12235604237E+04  0.00000000000E+00 0.  1.
         25    1    1    2    0    0  0.49268805677E+02 -0.12936175257E+03 -0.41693866510E+03  0.45675456068E+03  0.12500000000E+03 0.  0.
         25    1    1    2    0    0 -0.64468344249E+02 -0.52521797016E+02 -0.92514381877E+02  0.17634800091E+03  0.12500000000E+03 0.  0.
         25    1    1    2    0    0  0.15199538572E+02  0.18188354958E+03 -0.63352631268E+03  0.67103892618E+03  0.12500000000E+03 0.  0.
</event>
<event>
 5    0  0.5631475E-005  0.2876475E+03  0.7546771E-02  0.1091584E+00
         21   -1    0    0  502  501  0.00000000000E+00  0.00000000000E+00  0.21464739264E+04  0.21464739264E+04  0.00000000000E+00 0. -1.
         21   -1    0    0  501  502 -0.00000000000E+00 -0.00000000000E+00 -0.38547442966E+02  0.38547442966E+02  0.00000000000E+00 0. -1.
         25    1    1    2    0    0  0.50267498494E+02  0.96043305477E+02  0.76302741396E+03  0.78076050898E+03  0.12500000000E+03 0.  0.
         25    1    1    2    0    0 -0.10906487899E+03 -0.88219088482E+02  0.11499777947E+04  0.11652260226E+04  0.12500000000E+03 0.  0.
         25    1    1    2    0    0  0.58797380498E+02 -0.78242169950E+01  0.19492127480E+03  0.23903483782E+03  0.12500000000E+03 0.  0.
</event>
<event>
 5    0  0.5631475E-005  0.2460359E+03  0.7546771E-02  0.1115836E+00
         21   -1    0    0  502  501  0.00000000000E+00  0.00000000000E+00  0.57510622704E+03  0.57510622704E+03  0.00000000000E+00 0. -1.
         21   -1    0    0  501  502 -0.00000000000E+00 -0.00000000000E+00 -0.10525648428E+03  0.10525648428E+03  0.00000000000E+00 0. -1.
         25    1    1    2    0    0 -0.61803593994E+02  0.79644625012E+02  0.84994339950E+02  0.18169201509E+03  0.12500000000E+03 0.  0.
         25    1    1    2    0    0  0.44577671683E+02  0.47124960254E+01  0.29189800740E+03  0.32068492817E+03  0.12500000000E+03 0.  0.
         25    1    1    2    0    0  0.17225922311E+02 -0.84357121037E+02  0.92957395416E+02  0.17798576806E+03  0.12500000000E+03 0.  0.
</event>
<event>
 5    0  0.5631475E-005  0.4615174E+03  0.7546771E-02  0.1024342E+00
         21   -1    0    0  502  501  0.00000000000E+00  0.00000000000E+00  0.89458848949E+03  0.89458848949E+03  0.00000000000E+00 0. -1.
         21   -1    0    0  501  502 -0.00000000000E+00 -0.00000000000E+00 -0.23809645915E+03  0.23809645915E+03  0.00000000000E+00 0. -1.
         25    1    1    2    0    0 -0.21127882427E+03 -0.13980936802E+03  0.39622523909E+03  0.48662597655E+03  0.12500000000E+03 0.  0.
         25    1    1    2    0    0  0.79709517144E+02 -0.83432746077E+02  0.31045853324E+03  0.35401148443E+03  0.12500000000E+03 0.  0.
         25    1    1    2    0    0  0.13156930712E+03  0.22324211410E+03 -0.50191741998E+02  0.29204748766E+03  0.12500000000E+03 0.  0.
</event>
<event>
 5    0  0.5631475E-005  0.3180741E+03  0.7546771E-02  0.1076539E+00
         21   -1    0    0  502  501  0.00000000000E+00  0.00000000000E+00  0.76450151570E+02  0.76450151570E+02  0.00000000000E+00 0.  1.
         21   -1    0    0  501  502 -0.00000000000E+00 -0.00000000000E+00 -0.13233610544E+04  0.13233610544E+04  0.00000000000E+00 0.  1.
         25    1    1    2    0    0  0.17203723176E+03  0.43889321583E+02 -0.22845785979E+03  0.31518419275E+03  0.12500000000E+03 0.  0.
         25    1    1    2    0    0 -0.25702491080E+01 -0.92639153229E+02 -0.47145733158E+03  0.49647319605E+03  0.12500000000E+03 0.  0.
         25    1    1    2    0    0 -0.16946698265E+03  0.48749831646E+02 -0.54699571143E+03  0.58815381714E+03  0.12500000000E+03 0.  0.
</event>
<event>
 5    0  0.5631475E-005  0.2261527E+03  0.7546771E-02  0.1129377E+00
         21   -1    0    0  502  501  0.00000000000E+00  0.00000000000E+00  0.57944041196E+02  0.57944041196E+02  0.00000000000E+00 0.  1.
         21   -1    0    0  501  502 -0.00000000000E+00 -0.00000000000E+00 -0.88266301582E+03  0.88266301582E+03  0.00000000000E+00 0.  1.
         25    1    1    2    0    0 -0.29134926421E+02  0.22828226082E+02 -0.41244109138E+03  0.43255361021E+03  0.12500000000E+03 0.  0.
         25    1    1    2    0    0  0.52933878869E+02  0.45701973558E+02 -0.14274454517E+03  0.20221689122E+03  0.12500000000E+03 0.  0.
         25    1    1    2    0    0 -0.23798952447E+02 -0.68530199640E+02 -0.26953333807E+03  0.30583655559E+03  0.12500000000E+03 0.  0.
</event>
<event>
 5    0  0.5631475E-005  0.2437075E+03  0.7546771E-02  0.1117347E+00
         21   -1    0    0  502  501  0.00000000000E+00  0.00000000000E+00  0.64960988518E+02  0.64960988518E+02  0.00000000000E+00 0. -1.
         21   -1    0    0  501  502 -0.00000000000E+00 -0.00000000000E+00 -0.91429239961E+03  0.91429239961E+03  0.00000000000E+00 0. -1.
         25    1    1    2    0    0  0.79753268938E+02 -0.89749567480E+02 -0.19592037599E+03  0.26158242008E+03  0.12500000000E+03 0.  0.
         25    1    1    2    0    0 -0.21727151726E+02  0.93103200449E+02 -0.38524162417E+03  0.41614466721E+03  0.12500000000E+03 0.  0.
         25    1    1    2    0    0 -0.58026117212E+02 -0.33536329689E+01 -0.26816941094E+03  0.30152630084E+03  0.12500000000E+03 0.  0.
</event>
<event>
 5    0  0.5631475E-005  0.2928457E+03  0.7546771E-02  0.1088873E+00
         21   -1    0    0  502  501  0.00000000000E+00  0.00000000000E+00  0.51182803202E+02  0.51182803202E+02  0.00000000000E+00 0.  1.
         21   -1    0    0  501  502 -0.00000000000E+00 -0.00000000000E+00 -0.16755349713E+04  0.16755349713E+04  0.00000000000E+00 0.  1.
         25    1    1    2    0    0 -0.19712229621E+03 -0.40782094353E+02 -0.72207219709E+03  0.75995633868E+03  0.12500000000E+03 0.  0.
         25    1    1    2    0    0  0.13118737176E+03  0.81996711934E+02 -0.55530800104E+03  0.58985215376E+03  0.12500000000E+03 0.  0.
         25    1    1    2    0    0  0.65934924447E+02 -0.41214617581E+02 -0.34697196999E+03  0.37690928209E+03  0.12500000000E+03 0.  0.
</event>
<event>
 5    0  0.5631475E-005  0.3060868E+03  0.7546771E-02  0.1082237E+00
         21   -1    0    0  502  501  0.00000000000E+00  0.00000000000E+00  0.26216792514E+03  0.26216792514E+03  0.00000000000E+00 0. -1.
         21   -1    0    0  501  502 -0.00000000000E+00 -0.00000000000E+00 -0.35736311056E+03  0.35736311056E+03  0.00000000000E+00 0. -1.
         25    1    1    2    0    0  0.12609485963E+03 -0.73460572282E+02  0.69305371869E+02  0.20426601253E+03  0.12500000000E+03 0.  0.
         25    1    1    2    0    0  0.61556324178E+01 -0.64560306336E+02 -0.13505106149E+02  0.14146841646E+03  0.12500000000E+03 0.  0.
         25    1    1    2    0    0 -0.13225049205E+03  0.13802087862E+03 -0.15099545113E+03  0.27379660671E+03  0.12500000000E+03 0.  0.
</event>
<event>
 5    0  0.5631475E-005  0.2304174E+03  0.7546771E-02  0.1126346E+00
         21   -1    0    0  502  501  0.00000000000E+00  0.00000000000E+00  0.19607264655E+04  0.19607264655E+04  0.00000000000E+00 0. -1.
         21   -1    0    0  501  502 -0.00000000000E+00 -0.00000000000E+00 -0.27077804274E+02  0.27077804274E+02  0.00000000000E+00 0. -1.
         25    1    1    2    0    0  0.11282362481E+03 -0.16001822326E+02  0.74403322789E+03  0.76301747872E+03  0.12500000000E+03 0.  0.
         25    1    1    2    0    0 -0.92147761233E+02 -0.23555694235E+02  0.58023223692E+03  0.60111606982E+03  0.12500000000E+03 0.  0.
         25    1    1    2    0    0 -0.20675863574E+02  0.39557516561E+02  0.60938319645E+03  0.62367072127E+03  0.12500000000E+03 0.  0.
</event>
<event>
 5    0  0.5631475E-005  0.2970976E+03  0.7546771E-02  0.1086701E+00
         21   -1    0    0  502  501  0.00000000000E+00  0.00000000000E+00  0.38354313470E+03  0.38354313470E+03  0.00000000000E+00 0.  1.
         21   -1    0    0  501  502 -0.00000000000E+00 -0.00000000000E+00 -0.23013571877E+03  0.23013571877E+03  0.00000000000E+00 0.  1.
         25    1    1    2    0    0 -0.69769535405E+01  0.32732561272E+02  0.38871371520E+02  0.13511506937E+03  0.12500000000E+03 0.  0.
         25    1    1    2    0    0  0.15177148751E+03  0.15087105954E+02  0.18380576459E+03  0.26957700993E+03  0.12500000000E+03 0.  0.
         25    1    1    2    0    0 -0.14479453397E+03 -0.47819667226E+02 -0.69269720186E+02  0.20898677416E+03  0.12500000000E+03 0.  0.
</event>
<event>
 5    0  0.5631475E-005  0.2522639E+03  0.7546771E-02  0.1111882E+00
         21   -1    0    0  502  501  0.00000000000E+00  0.00000000000E+00  0.15854704026E+03  0.15854704026E+03  0.00000000000E+00 0.  1.
         21   -1    0    0  501  502 -0.00000000000E+00 -0.00000000000E+00 -0.40137671948E+03  0.40137671948E+03  0.00000000000E+00 0.  1.
         25    1    1    2    0    0 -0.18917175773E+02  0.43011910680E+02 -0.13271832966E+03  0.18827384053E+03  0.12500000000E+03 0.  0.
         25    1    1    2    0    0 -0.66492688503E+02  0.56191848924E+02  0.12794709415E+02  0.15286433887E+03  0.12500000000E+03 0.  0.
         25    1    1    2    0    0  0.85409864276E+02 -0.99203759604E+02 -0.12290605897E+03  0.21878558035E+03  0.12500000000E+03 0.  0.
</event>
<event>
 5    0  0.5740123E-005  0.4959226E+03  0.7546771E-02  0.1014849E+00
         21   -1    0    0  502  501  0.00000000000E+00  0.00000000000E+00  0.10018817847E+04  0.10018817847E+04  0.00000000000E+00 0. -1.
         21   -1    0    0  501  502 -0.00000000000E+00 -0.00000000000E+00 -0.24547724349E+03  0.24547724349E+03  0.00000000000E+00 0. -1.
         25    1    1    2    0    0 -0.34965895558E+02 -0.17969829116E+03 -0.97744105188E+02  0.24226638190E+03  0.12500000000E+03 0.  0.
         25    1    1    2    0    0  0.12045666557E+03  0.13299822936E+03  0.11101708201E+03  0.24525115656E+03  0.12500000000E+03 0.  0.
         25    1    1    2    0    0 -0.85490770015E+02  0.46700061806E+02  0.74313156436E+03  0.75984148970E+03  0.12500000000E+03 0.  0.
</event>
<event>
 5    0  0.5631475E-005  0.3711667E+03  0.7546771E-02  0.1054248E+00
         21   -1    0    0  502  501  0.00000000000E+00  0.00000000000E+00  0.79144458986E+03  0.79144458986E+03  0.00000000000E+00 0. -1.
         21   -1    0    0  501  502 -0.00000000000E+00 -0.00000000000E+00 -0.17406743997E+03  0.17406743997E+03  0.00000000000E+00 0. -1.
         25    1    1    2    0    0  0.17397619733E+03 -0.10155675746E+03  0.62480002243E+02  0.24517390339E+03  0.12500000000E+03 0.  0.
         25    1    1    2    0    0 -0.30292429489E+02  0.75219493112E+02  0.18032194424E+02  0.15008585364E+03  0.12500000000E+03 0.  0.
         25    1    1    2    0    0 -0.14368376784E+03  0.26337264350E+02  0.53686495322E+03  0.57025227279E+03  0.12500000000E+03 0.  0.
</event>
<event>
 5    0  0.5631475E-005  0.2461084E+03  0.7546771E-02  0.1115789E+00
         21   -1    0    0  502  501  0.00000000000E+00  0.00000000000E+00  0.15515239694E+03  0.15515239694E+03  0.00000000000E+00 0. -1.
         21   -1    0    0  501  502 -0.00000000000E+00 -0.00000000000E+00 -0.39038598364E+03  0.39038598364E+03  0.00000000000E+00 0. -1.
         25    1    1    2    0    0 -0.28004207879E+02 -0.12138468025E+03 -0.11815200486E+03  0.21237554593E+03  0.12500000000E+03 0.  0.
         25    1    1    2    0    0 -0.17505681542E+02  0.12495928978E+03 -0.81464084977E+02  0.19540386416E+03  0.12500000000E+03 0.  0.
         25    1    1    2    0    0  0.45509889421E+02 -0.35746095287E+01 -0.35617496872E+02  0.13775897049E+03  0.12500000000E+03 0.  0.
</event>
<event>
 5    0  0.5631475E-005  0.2289080E+03  0.7546771E-02  0.1127411E+00
         21   -1    0    0  502  501  0.00000000000E+00  0.00000000000E+00  0.12909420321E+04  0.12909420321E+04  0.00000000000E+00 0.  1.
         21   -1    0    0  501  502 -0.00000000000E+00 -0.00000000000E+00 -0.40589630644E+02  0.40589630644E+02  0.00000000000E+00 0.  1.
         25    1    1    2    0    0 -0.55973405162E+02 -0.57475341832E+02  0.57328851066E+03  0.59221715059E+03  0.12500000000E+03 0.  0.
         25    1    1    2    0    0  0.84217089132E+02  0.21510424139E+02  0.25748745166E+03  0.29913208489E+03  0.12500000000E+03 0.  0.
         25    1    1    2    0    0 -0.28243683970E+02  0.35964917692E+02  0.41957643914E+03  0.44018242726E+03  0.12500000000E+03 0.  0.
</event>
<event>
 5    0  0.5631475E-005  0.2977516E+03  0.7546771E-02  0.1086370E+00
         21   -1    0    0  502  501  0.00000000000E+00  0.00000000000E+00  0.98606090118E+02  0.98606090118E+02  0.00000000000E+00 0. -1.
         21   -1    0    0  501  502 -0.00000000000E+00 -0.00000000000E+00 -0.89909270042E+03  0.89909270042E+03  0.00000000000E+00 0. -1.
         25    1    1    2    0    0 -0.10451577681E+03 -0.10480067527E+03 -0.40042441218E+03  0.44482742609E+03  0.12500000000E+03 0.  0.
         25    1    1    2    0    0 -0.26833482463E+02  0.14758557292E+03 -0.20090699780E+03  0.28016095174E+03  0.12500000000E+03 0.  0.
         25    1    1    2    0    0  0.13134925927E+03 -0.42784897655E+02 -0.19915520033E+03  0.27271041270E+03  0.12500000000E+03 0.  0.
</event>
<event>
 5    0  0.5631475E-005  0.2305885E+03  0.7546771E-02  0.1126226E+00
         21   -1    0    0  502  501  0.00000000000E+00  0.00000000000E+00  0.22868427770E+04  0.22868427770E+04  0.00000000000E+00 0. -1.
         21   -1    0    0  501  502 -0.00000000000E+00 -0.00000000000E+00 -0.23250862038E+02  0.23250862038E+02  0.00000000000E+00 0. -1.
         25    1    1    2    0    0  0.46990261713E+02 -0.46451202195E+02  0.10544097902E+04  0.10638471716E+04  0.12500000000E+03 0.  0.
         25    1    1    2    0    0 -0.48452969736E+01 -0.17407145868E+02  0.83305931266E+03  0.84257896012E+03  0.12500000000E+03 0.  0.
         25    1    1    2    0    0 -0.42144964739E+02  0.63858348063E+02  0.37612281215E+03  0.40366750735E+03  0.12500000000E+03 0.  0.
</event>
<event>
 5    0  0.5631475E-005  0.2818271E+03  0.7546771E-02  0.1094695E+00
         21   -1    0    0  502  501  0.00000000000E+00  0.00000000000E+00  0.18811544693E+03  0.18811544693E+03  0.00000000000E+00 0. -1.
         21   -1    0    0  501  502 -0.00000000000E+00 -0.00000000000E+00 -0.42222224432E+03  0.42222224432E+03  0.00000000000E+00 0. -1.
         25    1    1    2    0    0  0.95471792645E+02 -0.41924417634E+01  0.18390315683E+02  0.15841604549E+03  0.12500000000E+03 0.  0.
         25    1    1    2    0    0 -0.38347463339E+02 -0.96087908738E+02 -0.19508374475E+02  0.16342885555E+03  0.12500000000E+03 0.  0.
         25    1    1    2    0    0 -0.57124329307E+02  0.10028035050E+03 -0.23298873859E+03  0.28849279022E+03  0.12500000000E+03 0.  0.
</event>
<event>
 5    0  0.6342240E-005  0.4268350E+03  0.7546771E-02  0.1034864E+00
         21   -1    0    0  502  501  0.00000000000E+00  0.00000000000E+00  0.56215237903E+03  0.56215237903E+03  0.00000000000E+00 0. -1.
         21   -1    0    0  501  502 -0.00000000000E+00 -0.00000000000E+00 -0.32409028304E+03  0.32409028304E+03  0.00000000000E+00 0. -1.
         25    1    1    2    0    0  0.19199668262E+02  0.48023058958E+02  0.22874323057E+03  0.26575045999E+03  0.12500000000E+03 0.  0.
         25    1    1    2    0    0  0.17724143977E+03 -0.23644000819E+03  0.90067040514E+00  0.32084921170E+03  0.12500000000E+03 0.  0.
         25    1    1    2    0    0 -0.19644110803E+03  0.18841694923E+03  0.84181950157E+01  0.29964299039E+03  0.12500000000E+03 0.  0.
</event>
<event>
 5    0  0.5631475E-005  0.3256622E+03  0.7546771E-02  0.1073072E+00
         21   -1    0    0  502  501  0.00000000000E+00  0.00000000000E+00  0.38140868097E+03  0.38140868097E+03  0.00000000000E+00 0. -1.
         21   -1    0    0  501  502 -0.00000000000E+00 -0.00000000000E+00 -0.27806367636E+03  0.27806367636E+03  0.00000000000E+00 0. -1.
         25    1    1    2    0    0 -0.74048407016E+02 -0.66771358977E+02  0.19652947142E+02  0.16109878737E+03  0.12500000000E+03 0.  0.
         25    1    1    2    0    0 -0.17010848287E+03  0.45221383728E+02  0.28603319569E+02  0.21777286191E+03  0.12500000000E+03 0.  0.
         25    1    1    2    0    0  0.24415688989E+03  0.21549975249E+02  0.55088737895E+02  0.28060070805E+03  0.12500000000E+03 0.  0.
</event>
<event>
 5    0  0.6836678E-005  0.2682893E+03  0.7546771E-02  0.1102263E+00
         21   -1    0    0  502  501  0.00000000000E+00  0.00000000000E+00  0.56496520042E+03  0.56496520042E+03  0.00000000000E+00 0.  1.
         21   -1    0    0  501  502 -0.00000000000E+00 -0.00000000000E+00 -0.12740458036E+03  0.12740458036E+03  0.00000000000E+00 0.  1.
         25    1    1    2    0    0  0.79750154228E+02  0.27463712745E+02  0.52859586848E+02  0.15979198521E+03  0.12500000000E+03 0.  0.
         25    1    1    2    0    0  0.81297790408E+02  0.32294363846E+02  0.12633778096E+03  0.19808708075E+03  0.12500000000E+03 0.  0.
         25    1    1    2    0    0 -0.16104794464E+03 -0.59758076591E+02  0.25836325225E+03  0.33449071482E+03  0.12500000000E+03 0.  0.
</event>
<event>
 5    0  0.5631475E-005  0.2078580E+03  0.7546771E-02  0.1143274E+00
         21   -1    0    0  502  501  0.00000000000E+00  0.00000000000E+00  0.32605092261E+03  0.32605092261E+03  0.00000000000E+00 0. -1.
         21   -1    0    0  501  502 -0.00000000000E+00 -0.00000000000E+00 -0.13250986817E+03  0.13250986817E+03  0.00000000000E+00 0. -1.
         25    1    1    2    0    0 -0.52860640092E+02  0.50745868288E+02  0.47758181151E+02  0.15256223086E+03  0.12500000000E+03 0.  0.
         25    1    1    2    0    0  0.44417043459E+01 -0.13106271177E+02  0.95685472606E+02  0.15802598758E+03  0.12500000000E+03 0.  0.
         25    1    1    2    0    0  0.48418935746E+02 -0.37639597111E+02  0.50097400681E+02  0.14797257234E+03  0.12500000000E+03 0.  0.
</event>
<event>
 5    0  0.5631475E-005  0.2749625E+03  0.7546771E-02  0.1098473E+00
         21   -1    0    0  502  501  0.00000000000E+00  0.00000000000E+00  0.69090367677E+03  0.69090367677E+03  0.00000000000E+00 0. -1.
         21   -1    0    0  501  502 -0.00000000000E+00 -0.00000000000E+00 -0.10942822084E+03  0.10942822084E+03  0.00000000000E+00 0. -1.
         25    1    1    2    0    0 -0.12049215181E+03  0.41083093125E+02  0.13388088357E+03  0.22305889395E+03  0.12500000000E+03 0.  0.
         25    1    1    2    0    0  0.71302711005E+02 -0.50722465142E+02  0.40996478457E+03  0.43743910394E+03  0.12500000000E+03 0.  0.
         25    1    1    2    0    0  0.49189440801E+02  0.96393720176E+01  0.37629787792E+02  0.13983389971E+03  0.12500000000E+03 0.  0.
</event>
<event>
 5    0  0.5631475E-005  0.3371678E+03  0.7546771E-02  0.1068009E+00
         21   -1    0    0  502  501  0.00000000000E+00  0.00000000000E+00  0.20972994716E+04  0.20972994716E+04  0.00000000000E+00 0. -1.
         21   -1    0    0  501  502 -0.00000000000E+00 -0.00000000000E+00 -0.54204038885E+02  0.54204038885E+02  0.00000000000E+00 0. -1.
         25    1    1    2    0    0 -0.21161658935E+02  0.60847309275E+02  0.30168311940E+03  0.33284818669E+03  0.12500000000E+03 0.  0.
         25    1    1    2    0    0 -0.20343209949E+03 -0.46518355090E+02  0.57802158694E+03  0.62712242141E+03  0.12500000000E+03 0.  0.
         25    1    1    2    0    0  0.22459375842E+03 -0.14328954185E+02  0.11633907264E+04  0.11915329024E+04  0.12500000000E+03 0.  0.
</event>
<event>
 5    0  0.5631475E-005  0.2627048E+03  0.7546771E-02  0.1105529E+00
         21   -1    0    0  502  501  0.00000000000E+00  0.00000000000E+00  0.31089371213E+03  0.31089371213E+03  0.00000000000E+00 0. -1.
         21   -1    0    0  501  502 -0.00000000000E+00 -0.00000000000E+00 -0.22198518056E+03  0.22198518056E+03  0.00000000000E+00 0. -1.
         25    1    1    2    0    0  0.88816870697E+01 -0.10830898854E+03  0.12010220427E+03  0.20459535878E+03  0.12500000000E+03 0.  0.
         25    1    1    2    0    0 -0.12558960424E+02  0.19682502384E+01  0.61367775394E+02  0.13983063095E+03  0.12500000000E+03 0.  0.
         25    1    1    2    0    0  0.36772733544E+01  0.10634073830E+03 -0.92561448084E+02  0.18845290296E+03  0.12500000000E+03 0.  0.
</event>
<event>
 5    0  0.5631475E-005  0.3002590E+03  0.7546771E-02  0.1085111E+00
         21   -1    0    0  502  501  0.00000000000E+00  0.00000000000E+00  0.51103895230E+03  0.51103895230E+03  0.00000000000E+00 0. -1.
         21   -1    0    0  501  502 -0.00000000000E+00 -0.00000000000E+00 -0.17641609458E+03  0.17641609458E+03  0.00000000000E+00 0. -1.
         25    1    1    2    0    0  0.71875184531E+02 -0.85116763972E+02  0.18716636437E+03  0.25113174553E+03  0.12500000000E+03 0.  0.
         25    1    1    2    0    0  0.82638340248E+02  0.13304316237E+03  0.36401077656E+02  0.20366545310E+03  0.12500000000E+03 0.  0.
         25    1    1    2    0    0 -0.15451352478E+03 -0.47926398394E+02  0.11105541569E+03  0.23265784826E+03  0.12500000000E+03 0.  0.
</event>
<event>
 5    0  0.5631475E-005  0.3618493E+03  0.7546771E-02  0.1057854E+00
         21   -1    0    0  502  501  0.00000000000E+00  0.00000000000E+00  0.64331834462E+02  0.64331834462E+02  0.00000000000E+00 0.  1.
         21   -1    0    0  501  502 -0.00000000000E+00 -0.00000000000E+00 -0.20353047182E+04  0.20353047182E+04  0.00000000000E+00 0.  1.
         25    1    1    2    0    0 -0.61381225716E+01 -0.17362272710E+03 -0.15629844603E+04  0.15775702682E+04  0.12500000000E+03 0.  0.
         25    1    1    2    0    0  0.51760684364E+02  0.53510488714E+02 -0.20302827799E+03  0.24977594462E+03  0.12500000000E+03 0.  0.
         25    1    1    2    0    0 -0.45622561792E+02  0.12011223839E+03 -0.20496014543E+03  0.27229033984E+03  0.12500000000E+03 0.  0.
</event>
<event>
 5    0  0.5631475E-005  0.2418677E+03  0.7546771E-02  0.1118555E+00
         21   -1    0    0  502  501  0.00000000000E+00  0.00000000000E+00  0.65081853740E+02  0.65081853740E+02  0.00000000000E+00 0. -1.
         21   -1    0    0  501  502 -0.00000000000E+00 -0.00000000000E+00 -0.89886768004E+03  0.89886768004E+03  0.00000000000E+00 0. -1.
         25    1    1    2    0    0  0.92305992191E+02  0.20725525997E+02 -0.37278698042E+03  0.40440706768E+03  0.12500000000E+03 0.  0.
         25    1    1    2    0    0 -0.11710175852E+03 -0.45193149846E+02 -0.19417840607E+03  0.26284119925E+03  0.12500000000E+03 0.  0.
         25    1    1    2    0    0  0.24795766330E+02  0.24467623849E+02 -0.26682043982E+03  0.29670126685E+03  0.12500000000E+03 0.  0.
</event>
<event>
 5    0  0.5631475E-005  0.3196003E+03  0.7546771E-02  0.1075833E+00
         21   -1    0    0  502  501  0.00000000000E+00  0.00000000000E+00  0.11057094764E+03  0.11057094764E+03  0.00000000000E+00 0. -1.
         21   -1    0    0  501  502 -0.00000000000E+00 -0.00000000000E+00 -0.92378992608E+03  0.92378992608E+03  0.00000000000E+00 0. -1.
         25    1    1    2    0    0 -0.10448155440E+03  0.15533466226E+03 -0.41769966230E+03  0.47449263471E+03  0.12500000000E+03 0.  0.
         25    1    1    2    0    0  0.11406194536E+03  0.22964090643E+02 -0.22855285818E+03  0.28530489975E+03  0.12500000000E+03 0.  0.
         25    1    1    2    0    0 -0.95803909673E+01 -0.17829875290E+03 -0.16696645796E+03  0.27456333925E+03  0.12500000000E+03 0.  0.
</event>
<event>
 5    0  0.5631475E-005  0.3129630E+03  0.7546771E-02  0.1078934E+00
         21   -1    0    0  502  501  0.00000000000E+00  0.00000000000E+00  0.13338548093E+03  0.13338548093E+03  0.00000000000E+00 0. -1.
         21   -1    0    0  501  502 -0.00000000000E+00 -0.00000000000E+00 -0.73430683666E+03  0.73430683666E+03  0.00000000000E+00 0. -1.
         25    1    1    2    0    0  0.12492113133E+03 -0.26185720123E+02 -0.10615595871E+03  0.20781017434E+03  0.12500000000E+03 0.  0.
         25    1    1    2    0    0 -0.11642471530E+03 -0.14235984406E+03 -0.20835180316E+03  0.30472366730E+03  0.12500000000E+03 0.  0.
         25    1    1    2    0    0 -0.84964160249E+01  0.16854556418E+03 -0.28641359386E+03  0.35515847595E+03  0.12500000000E+03 0.  0.
</event>
<event>
 5    0  0.5730510E-005  0.2625451E+03  0.7546771E-02  0.1105624E+00
         21   -1    0    0  502  501  0.00000000000E+00  0.00000000000E+00  0.33425510184E+03  0.33425510184E+03  0.00000000000E+00 0.  1.
         21   -1    0    0  501  502 -0.00000000000E+00 -0.00000000000E+00 -0.20621954111E+03  0.20621954111E+03  0.00000000000E+00 0.  1.
         25    1    1    2    0    0 -0.19624747520E+02  0.38358598947E+02  0.16086336053E+03  0.20822712020E+03  0.12500000000E+03 0.  0.
         25    1    1    2    0    0  0.11210289753E+03 -0.46568990412E+02 -0.27898974218E+02  0.17646269653E+03  0.12500000000E+03 0.  0.
         25    1    1    2    0    0 -0.92478150011E+02  0.82103914653E+01 -0.49288255739E+01  0.15578482622E+03  0.12500000000E+03 0.  0.
</event>
<event>
 5    0  0.6019821E-005  0.2686013E+03  0.7546771E-02  0.1102083E+00
         21   -1    0    0  502  501  0.00000000000E+00  0.00000000000E+00  0.12984001302E+03  0.12984001302E+03  0.00000000000E+00 0. -1.
         21   -1    0    0  501  502 -0.00000000000E+00 -0.00000000000E+00 -0.55565826245E+03  0.55565826245E+03  0.00000000000E+00 0. -1.
         25    1    1    2    0    0 -0.59158761716E+02  0.76025203755E+02 -0.16103753785E+03  0.22547212531E+03  0.12500000000E+03 0.  0.
         25    1    1    2    0    0 -0.86761435254E+02  0.30908124106E+02 -0.12643437135E+03  0.20023363614E+03  0.12500000000E+03 0.  0.
         25    1    1    2    0    0  0.14592019697E+03 -0.10693332786E+03 -0.13834634022E+03  0.25979251403E+03  0.12500000000E+03 0.  0.
</event>
<event>
 5    0  0.5631475E-005  0.3178735E+03  0.7546771E-02  0.1076632E+00
         21   -1    0    0  502  501  0.00000000000E+00  0.00000000000E+00  0.74892850084E+03  0.74892850084E+03  0.00000000000E+00 0. -1.
         21   -1    0    0  501  502 -0.00000000000E+00 -0.00000000000E+00 -0.13491752847E+03  0.13491752847E+03  0.00000000000E+00 0. -1.
         25    1    1    2    0    0 -0.74701756268E+02  0.11305763918E+03  0.12211989848E+03  0.22113491758E+03  0.12500000000E+03 0.  0.
         25    1    1    2    0    0  0.19920431456E+03 -0.34253292786E+01  0.28532866779E+03  0.36977228193E+03  0.12500000000E+03 0.  0.
         25    1    1    2    0    0 -0.12450255829E+03 -0.10963230990E+03  0.20656240610E+03  0.29293882981E+03  0.12500000000E+03 0.  0.
</event>
<event>
 5    0  0.5631475E-005  0.2563395E+03  0.7546771E-02  0.1109363E+00
         21   -1    0    0  502  501  0.00000000000E+00  0.00000000000E+00  0.55066745031E+02  0.55066745031E+02  0.00000000000E+00 0.  1.
         21   -1    0    0  501  502 -0.00000000000E+00 -0.00000000000E+00 -0.11932776318E+04  0.11932776318E+04  0.00000000000E+00 0.  1.
         25    1    1    2    0    0  0.33535380796E+02  0.14100815162E+03 -0.43468035122E+03  0.47495255376E+03  0.12500000000E+03 0.  0.
         25    1    1    2    0    0 -0.74692785422E+02 -0.29923806762E+02 -0.34373950587E+03  0.37450806974E+03  0.12500000000E+03 0.  0.
         25    1    1    2    0    0  0.41157404627E+02 -0.11108434486E+03 -0.35979102963E+03  0.39888375328E+03  0.12500000000E+03 0.  0.
</event>
<event>
 5    0  0.5631475E-005  0.2820824E+03  0.7546771E-02  0.1094557E+00
         21   -1    0    0  502  501  0.00000000000E+00  0.00000000000E+00  0.13994400751E+04  0.13994400751E+04  0.00000000000E+00 0. -1.
         21   -1    0    0  501  502 -0.00000000000E+00 -0.00000000000E+00 -0.56858807840E+02  0.56858807840E+02  0.00000000000E+00 0. -1.
         25    1    1    2    0    0 -0.13462731394E+03 -0.96330297042E+02  0.36591305609E+03  0.42062026152E+03  0.12500000000E+03 0.  0.
         25    1    1    2    0    0  0.28580745114E+02  0.10520813707E+03  0.34164010477E+03  0.37977437023E+03  0.12500000000E+03 0.  0.
         25    1    1    2    0    0  0.10604656883E+03 -0.88778400308E+01  0.63502810643E+03  0.65590425122E+03  0.12500000000E+03 0.  0.
</event>
<event>
 5    0  0.5631475E-005  0.2617292E+03  0.7546771E-02  0.1106109E+00
         21   -1    0    0  502  501  0.00000000000E+00  0.00000000000E+00  0.12232330627E+03  0.12232330627E+03  0.00000000000E+00 0.  1.
         21   -1    0    0  501  502 -0.00000000000E+00 -0.00000000000E+00 -0.56000914358E+03  0.56000914358E+03  0.00000000000E+00 0.  1.
         25    1    1    2    0    0 -0.45788869061E+02 -0.86675283259E+02 -0.88228765678E+02  0.18171004472E+03  0.12500000000E+03 0.  0.
         25    1    1    2    0    0  0.60270350381E+02  0.14716817270E+03 -0.27793082908E+03  0.34374631917E+03  0.12500000000E+03 0.  0.
         25    1    1    2    0    0 -0.14481481320E+02 -0.60492889439E+02 -0.71526242554E+02  0.15687608597E+03  0.12500000000E+03 0.  0.
</event>
<event>
 5    0  0.5631475E-005  0.5365657E+03  0.7546771E-02  0.1004652E+00
         21   -1    0    0  502  501  0.00000000000E+00  0.00000000000E+00  0.13395286316E+04  0.13395286316E+04  0.00000000000E+00 0. -1.
         21   -1    0    0  501  502 -0.00000000000E+00 -0.00000000000E+00 -0.21492844155E+03  0.21492844155E+03  0.00000000000E+00 0. -1.
         25    1    1    2    0    0 -0.10506181675E+03 -0.30624955067E+03  0.24467582247E+03  0.42463870611E+03  0.12500000000E+03 0.  0.
         25    1    1    2    0    0  0.34125612929E+03  0.21942626402E+03  0.47649305829E+03  0.63818043351E+03  0.12500000000E+03 0.  0.
         25    1    1    2    0    0 -0.23619431254E+03  0.86823286650E+02  0.40343130933E+03  0.49163793357E+03  0.12500000000E+03 0.  0.
</event>
<event>
 5    0  0.5631475E-005  0.3115617E+03  0.7546771E-02  0.1079600E+00
         21   -1    0    0  502  501  0.00000000000E+00  0.00000000000E+00  0.50422382192E+03  0.50422382192E+03  0.00000000000E+00 0.  1.
         21   -1    0    0  501  502 -0.00000000000E+00 -0.00000000000E+00 -0.19251512521E+03  0.19251512521E+03  0.00000000000E+00 0.  1.
         25    1    1    2    0    0  0.87420874147E+02 -0.10029381704E+03  0.72188638485E+02  0.19630959859E+03  0.12500000000E+03 0.  0.
         25    1    1    2    0    0 -0.71199017856E+02  0.40523289170E+00  0.29670247113E+03  0.32973750277E+03  0.12500000000E+03 0.  0.
         25    1    1    2    0    0 -0.16221856291E+02  0.99888584147E+02 -0.57182412910E+02  0.17069184576E+03  0.12500000000E+03 0.  0.
</event>
<event>
 5    0  0.5631475E-005  0.3933857E+03  0.7546771E-02  0.1046094E+00
         21   -1    0    0  502  501  0.00000000000E+00  0.00000000000E+00  0.37394309310E+03  0.37394309310E+03  0.00000000000E+00 0.  1.
         21   -1    0    0  501  502 -0.00000000000E+00 -0.00000000000E+00 -0.41383918045E+03  0.41383918045E+03  0.00000000000E+00 0.  1.
         25    1    1    2    0    0  0.52288235433E+02 -0.69867128414E+02 -0.80066111761E+01  0.15265838012E+03  0.12500000000E+03 0.  0.
         25    1    1    2    0    0 -0.23909282187E+03  0.22577621157E+03 -0.70698767110E+02  0.35883644025E+03  0.12500000000E+03 0.  0.
         25    1    1    2    0    0  0.18680458643E+03 -0.15590908316E+03  0.38809290937E+02  0.27628745318E+03  0.12500000000E+03 0.  0.
</event>
<event>
 5    0  0.5631475E-005  0.5030649E+03  0.7546771E-02  0.1012982E+00
         21   -1    0    0  502  501  0.00000000000E+00  0.00000000000E+00  0.20823725390E+04  0.20823725390E+04  0.00000000000E+00 0.  1.
         21   -1    0    0  501  502 -0.00000000000E+00 -0.00000000000E+00 -0.12153170282E+03  0.12153170282E+03  0.00000000000E+00 0.  1.
         25    1    1    2    0    0 -0.20074165732E+03 -0.25243913391E+02  0.62083412623E+03  0.66482665443E+03  0.12500000000E+03 0.  0.
         25    1    1    2    0    0 -0.25763663128E+02  0.13741297278E+03  0.12171235264E+04  0.12314872188E+04  0.12500000000E+03 0.  0.
         25    1    1    2    0    0  0.22650532045E+03 -0.11216905939E+03  0.12288318354E+03  0.30759036863E+03  0.12500000000E+03 0.  0.
</event>
<event>
 5    0  0.5631475E-005  0.2852674E+03  0.7546771E-02  0.1092846E+00
         21   -1    0    0  502  501  0.00000000000E+00  0.00000000000E+00  0.13975783589E+04  0.13975783589E+04  0.00000000000E+00 0. -1.
         21   -1    0    0  501  502 -0.00000000000E+00 -0.00000000000E+00 -0.58227490529E+02  0.58227490529E+02  0.00000000000E+00 0. -1.
         25    1    1    2    0    0 -0.44210822539E+02 -0.77459244644E+02  0.19643529242E+03  0.24933181810E+03  0.12500000000E+03 0.  0.
         25    1    1    2    0    0  0.65046499033E+02 -0.27441825196E+02  0.91038287624E+03  0.92163229227E+03  0.12500000000E+03 0.  0.
         25    1    1    2    0    0 -0.20835676494E+02  0.10490106984E+03  0.23253269967E+03  0.28484173901E+03  0.12500000000E+03 0.  0.
</event>
<event>
 5    0  0.5631475E-005  0.1913114E+03  0.7546771E-02  0.1157284E+00
         21   -1    0    0  502  501  0.00000000000E+00  0.00000000000E+00  0.10547287551E+03  0.10547287551E+03  0.00000000000E+00 0.  1.
         21   -1    0    0  501  502 -0.00000000000E+00 -0.00000000000E+00 -0.34700931927E+03  0.34700931927E+03  0.00000000000E+00 0.  1.
         25    1    1    2    0    0 -0.81754579629E+01  0.22572166475E+02 -0.58240201162E+02  0.13997593309E+03  0.12500000000E+03 0.  0.
         25    1    1    2    0    0  0.11284190825E+02 -0.24617741178E+02 -0.98070043358E+02  0.16117102577E+03  0.12500000000E+03 0.  0.
         25    1    1    2    0    0 -0.31087328622E+01  0.20455747032E+01 -0.85226199238E+02  0.15133523593E+03  0.12500000000E+03 0.  0.
</event>
<event>
 5    0  0.5631475E-005  0.2507952E+03  0.7546771E-02  0.1112803E+00
         21   -1    0    0  502  501  0.00000000000E+00  0.00000000000E+00  0.55325387920E+02  0.55325387920E+02  0.00000000000E+00 0.  1.
         21   -1    0    0  501  502 -0.00000000000E+00 -0.00000000000E+00 -0.11368784864E+04  0.11368784864E+04  0.00000000000E+00 0.  1.
         25    1    1    2    0    0 -0.87757898703E+02 -0.19802876755E+02 -0.29740993638E+03  0.33491980080E+03  0.12500000000E+03 0.  0.
         25    1    1    2    0    0  0.14639817162E+03  0.54665132836E+02 -0.39281552041E+03  0.44085114776E+03  0.12500000000E+03 0.  0.
         25    1    1    2    0    0 -0.58640272915E+02 -0.34862256082E+02 -0.39132764165E+03  0.41643292572E+03  0.12500000000E+03 0.  0.
</event>
<event>
 5    0  0.5631475E-005  0.4200381E+03  0.7546771E-02  0.1037054E+00
         21   -1    0    0  502  501  0.00000000000E+00  0.00000000000E+00  0.19451537467E+03  0.19451537467E+03  0.00000000000E+00 0. -1.
         21   -1    0    0  501  502 -0.00000000000E+00 -0.00000000000E+00 -0.90703356091E+03  0.90703356091E+03  0.00000000000E+00 0. -1.
         25    1    1    2    0    0 -0.78637603822E+02  0.34050386140E+03 -0.26753897332E+03  0.45752470382E+03  0.12500000000E+03 0.  0.
         25    1    1    2    0    0  0.98356176787E+02 -0.23321409199E+03 -0.19163871094E+03  0.34119370708E+03  0.12500000000E+03 0.  0.
         25    1    1    2    0    0 -0.19718572965E+02 -0.10728976941E+03 -0.25334050198E+03  0.30283052468E+03  0.12500000000E+03 0.  0.
</event>
<event>
 5    0  0.5631475E-005  0.3445564E+03  0.7546771E-02  0.1064872E+00
         21   -1    0    0  502  501  0.00000000000E+00  0.00000000000E+00  0.41768842954E+03  0.41768842954E+03  0.00000000000E+00 0.  1.
         21   -1    0    0  501  502 -0.00000000000E+00 -0.00000000000E+00 -0.28422892546E+03  0.28422892546E+03  0.00000000000E+00 0.  1.
         25    1    1    2    0    0  0.91347191303E+02 -0.24767874250E+02 -0.31759086565E+02  0.15997311191E+03  0.12500000000E+03 0.  0.
         25    1    1    2    0    0  0.13746201978E+02 -0.76423362857E+02 -0.12555259781E+03  0.19343718173E+03  0.12500000000E+03 0.  0.
         25    1    1    2    0    0 -0.10509339328E+03  0.10119123711E+03  0.29077118846E+03  0.34850706136E+03  0.12500000000E+03 0.  0.
</event>
<event>
 5    0  0.5631475E-005  0.3836217E+03  0.7546771E-02  0.1049603E+00
         21   -1    0    0  502  501  0.00000000000E+00  0.00000000000E+00  0.21850365509E+03  0.21850365509E+03  0.00000000000E+00 0. -1.
         21   -1    0    0  501  502 -0.00000000000E+00 -0.00000000000E+00 -0.67351566230E+03  0.67351566230E+03  0.00000000000E+00 0. -1.
         25    1    1    2    0    0 -0.16364106415E+03 -0.23779565835E+03 -0.13680988932E+03  0.34302641126E+03  0.12500000000E+03 0.  0.
         25    1    1    2    0    0  0.63745878035E+02  0.24496572252E+03 -0.24100386558E+03  0.37118675273E+03  0.12500000000E+03 0.  0.
         25    1    1    2    0    0  0.99895186111E+02 -0.71700641737E+01 -0.77198252305E+02  0.17780615340E+03  0.12500000000E+03 0.  0.
</event>
<event>
 5    0  0.6131206E-005  0.2760836E+03  0.7546771E-02  0.1097847E+00
         21   -1    0    0  502  501  0.00000000000E+00  0.00000000000E+00  0.75194740134E+02  0.75194740134E+02  0.00000000000E+00 0. -1.
         21   -1    0    0  501  502 -0.00000000000E+00 -0.00000000000E+00 -0.10136634961E+04  0.10136634961E+04  0.00000000000E+00 0. -1.
         25    1    1    2    0    0 -0.35454059470E+02 -0.49955021310E+02 -0.41543899120E+03  0.43814044540E+03  0.12500000000E+03 0.  0.
         25    1    1    2    0    0  0.52062497427E+02 -0.11144928030E+03 -0.30312056221E+03  0.35019783117E+03  0.12500000000E+03 0.  0.
         25    1    1    2    0    0 -0.16608437958E+02  0.16140430161E+03 -0.21990920256E+03  0.30051995967E+03  0.12500000000E+03 0.  0.
</event>
<event>
 5    0  0.5631475E-005  0.2766958E+03  0.7546771E-02  0.1097507E+00
         21   -1    0    0  502  501  0.00000000000E+00  0.00000000000E+00  0.27034803016E+03  0.27034803016E+03  0.00000000000E+00 0. -1.
         21   -1    0    0  501  502 -0.00000000000E+00 -0.00000000000E+00 -0.28319264216E+03  0.28319264216E+03  0.00000000000E+00 0. -1.
         25    1    1    2    0    0  0.95386772551E+02 -0.97406960585E+02 -0.91973752945E+02  0.20656941588E+03  0.12500000000E+03 0.  0.
         25    1    1    2    0    0  0.18275194176E+02  0.10259178930E+03  0.71545630927E+02  0.17777186295E+03  0.12500000000E+03 0.  0.
         25    1    1    2    0    0 -0.11366196673E+03 -0.51848287117E+01  0.75835100218E+01  0.16919939348E+03  0.12500000000E+03 0.  0.
</event>
<event>
 5    0  0.5631475E-005  0.2854299E+03  0.7546771E-02  0.1092760E+00
         21   -1    0    0  502  501  0.00000000000E+00  0.00000000000E+00  0.28252317709E+03  0.28252317709E+03  0.00000000000E+00 0. -1.
         21   -1    0    0  501  502 -0.00000000000E+00 -0.00000000000E+00 -0.28836660010E+03  0.28836660010E+03  0.00000000000E+00 0. -1.
         25    1    1    2    0    0 -0.13723425607E+03  0.78290416801E+02 -0.26566882243E+02  0.20320784836E+03  0.12500000000E+03 0.  0.
         25    1    1    2    0    0  0.16289091815E+03 -0.73813091455E+02  0.72470101598E+02  0.22991028536E+03  0.12500000000E+03 0.  0.
         25    1    1    2    0    0 -0.25656662079E+02 -0.44773253460E+01 -0.51746642359E+02  0.13777164348E+03  0.12500000000E+03 0.  0.
</event>
<event>
 5    0  0.5631475E-005  0.2002905E+03  0.7546771E-02  0.1149494E+00
         21   -1    0    0  502  501  0.00000000000E+00  0.00000000000E+00  0.48947868976E+02  0.48947868976E+02  0.00000000000E+00 0. -1.
         21   -1    0    0  501  502 -0.00000000000E+00 -0.00000000000E+00 -0.81957180541E+03  0.81957180541E+03  0.00000000000E+00 0. -1.
         25    1    1    2    0    0  0.46773352756E+02  0.23958052504E+02 -0.23649914081E+03  0.27261434007E+03  0.12500000000E+03 0.  0.
         25    1    1    2    0    0 -0.90085411522E+01 -0.42403085555E+02 -0.26209741971E+03  0.29359705874E+03  0.12500000000E+03 0.  0.
         25    1    1    2    0    0 -0.37764811604E+02  0.18445033050E+02 -0.27202737591E+03  0.30230827558E+03  0.12500000000E+03 0.  0.
</event>
<event>
 5    0  0.6895533E-005  0.5807927E+03  0.7546771E-02  0.9946076E-01
         21   -1    0    0  502  501  0.00000000000E+00  0.00000000000E+00  0.27534604679E+03  0.27534604679E+03  0.00000000000E+00 0. -1.
         21   -1    0    0  501  502 -0.00000000000E+00 -0.00000000000E+00 -0.12250773439E+04  0.12250773439E+04  0.00000000000E+00 0. -1.
         25    1    1    2    0    0 -0.17678062296E+02 -0.41516117066E+03 -0.29799189906E+03  0.52639859747E+03  0.12500000000E+03 0.  0.
         25    1    1    2    0    0 -0.52285490375E+02  0.28780326203E+03 -0.70638909685E+03  0.77470965289E+03  0.12500000000E+03 0.  0.
         25    1    1    2    0    0  0.69963552672E+02  0.12735790863E+03  0.54649698791E+02  0.19931514035E+03  0.12500000000E+03 0.  0.
</event>
<event>
 5    0  0.5631475E-005  0.2832772E+03  0.7546771E-02  0.1093912E+00
         21   -1    0    0  502  501  0.00000000000E+00  0.00000000000E+00  0.54243934197E+03  0.54243934197E+03  0.00000000000E+00 0. -1.
         21   -1    0    0  501  502 -0.00000000000E+00 -0.00000000000E+00 -0.14793542712E+03  0.14793542712E+03  0.00000000000E+00 0. -1.
         25    1    1    2    0    0 -0.92979777557E+02  0.43083929178E+02  0.12137962494E+03  0.20213727350E+03  0.12500000000E+03 0.  0.
         25    1    1    2    0    0 -0.11743074332E+00  0.12370142028E+03  0.13163335367E+03  0.21966883021E+03  0.12500000000E+03 0.  0.
         25    1    1    2    0    0  0.93097208300E+02 -0.16678534945E+03  0.14149093623E+03  0.26856866538E+03  0.12500000000E+03 0.  0.
</event>
<event>
 5    0  0.5631475E-005  0.3891541E+03  0.7546771E-02  0.1047601E+00
         21   -1    0    0  502  501  0.00000000000E+00  0.00000000000E+00  0.16946658840E+03  0.16946658840E+03  0.00000000000E+00 0.  1.
         21   -1    0    0  501  502 -0.00000000000E+00 -0.00000000000E+00 -0.89363301437E+03  0.89363301437E+03  0.00000000000E+00 0.  1.
         25    1    1    2    0    0 -0.90052874537E+02 -0.26045143063E+03 -0.32158933573E+03  0.44157577921E+03  0.12500000000E+03 0.  0.
         25    1    1    2    0    0 -0.97042181884E+02  0.52916716648E+02 -0.15657282846E+03  0.22881742630E+03  0.12500000000E+03 0.  0.
         25    1    1    2    0    0  0.18709505642E+03  0.20753471398E+03 -0.24600426178E+03  0.39270639727E+03  0.12500000000E+03 0.  0.
</event>
<event>
 5    0  0.5631475E-005  0.3573021E+03  0.7546771E-02  0.1059657E+00
         21   -1    0    0  502  501  0.00000000000E+00  0.00000000000E+00  0.31890081750E+03  0.31890081750E+03  0.00000000000E+00 0. -1.
         21   -1    0    0  501  502 -0.00000000000E+00 -0.00000000000E+00 -0.40032760197E+03  0.40032760197E+03  0.00000000000E+00 0. -1.
         25    1    1    2    0    0  0.22865544977E+02  0.13006233194E+03 -0.16962832002E+03  0.24867209391E+03  0.12500000000E+03 0.  0.
         25    1    1    2    0    0 -0.52717330608E+02 -0.24585562517E+03  0.10706076233E+02  0.28100484950E+03  0.12500000000E+03 0.  0.
         25    1    1    2    0    0  0.29851785631E+02  0.11579329323E+03  0.77495459317E+02  0.18955147606E+03  0.12500000000E+03 0.  0.
</event>
<event>
 5    0  0.5631475E-005  0.2880229E+03  0.7546771E-02  0.1091386E+00
         21   -1    0    0  502  501  0.00000000000E+00  0.00000000000E+00  0.58147642638E+03  0.58147642638E+03  0.00000000000E+00 0.  1.
         21   -1    0    0  501  502 -0.00000000000E+00 -0.00000000000E+00 -0.14266649076E+03  0.14266649076E+03  0.00000000000E+00 0.  1.
         25    1    1    2    0    0  0.37001256698E+02  0.14188979052E+03  0.46267321843E+02  0.19816021478E+03  0.12500000000E+03 0.  0.
         25    1    1    2    0    0 -0.48681969135E+01 -0.56914797307E+02  0.43319582391E+02  0.14409920094E+03  0.12500000000E+03 0.  0.
         25    1    1    2    0    0 -0.32133059784E+02 -0.84974993217E+02  0.34922303138E+03  0.38188350141E+03  0.12500000000E+03 0.  0.
</event>
<event>
 5    0  0.5631475E-005  0.4123779E+03  0.7546771E-02  0.1039576E+00
         21   -1    0    0  502  501  0.00000000000E+00  0.00000000000E+00  0.17400545918E+03  0.17400545918E+03  0.00000000000E+00 0. -1.
         21   -1    0    0  501  502 -0.00000000000E+00 -0.00000000000E+00 -0.97730013309E+03  0.97730013309E+03  0.00000000000E+00 0. -1.
         25    1    1    2    0    0 -0.13079425249E+03  0.13743155774E+03 -0.20677445861E+03  0.30720554402E+03  0.12500000000E+03 0.  0.
         25    1    1    2    0    0 -0.27770553641E+02  0.16249857695E+03 -0.99733179068E+02  0.22967084745E+03  0.12500000000E+03 0.  0.
         25    1    1    2    0    0  0.15856480613E+03 -0.29993013468E+03 -0.49678703623E+03  0.61442920080E+03  0.12500000000E+03 0.  0.
</event>
<event>
 5    0  0.5631475E-005  0.3843889E+03  0.7546771E-02  0.1049323E+00
         21   -1    0    0  502  501  0.00000000000E+00  0.00000000000E+00  0.62631081143E+02  0.62631081143E+02  0.00000000000E+00 0. -1.
         21   -1    0    0  501  502 -0.00000000000E+00 -0.00000000000E+00 -0.23591299230E+04  0.23591299230E+04  0.00000000000E+00 0. -1.
         25    1    1    2    0    0 -0.19296386748E+02  0.20735138278E+03 -0.47480315104E+03  0.53331977155E+03  0.12500000000E+03 0.  0.
         25    1    1    2    0    0 -0.10510793026E+03  0.62484932760E+01 -0.11547994630E+04  0.11663076439E+04  0.12500000000E+03 0.  0.
         25    1    1    2    0    0  0.12440431700E+03 -0.21359987605E+03 -0.66689622788E+03  0.72213358868E+03  0.12500000000E+03 0.  0.
</event>
<event>
 5    0  0.5631475E-005  0.3095877E+03  0.7546771E-02  0.1080544E+00
         21   -1    0    0  502  501  0.00000000000E+00  0.00000000000E+00  0.22916119176E+04  0.22916119176E+04  0.00000000000E+00 0. -1.
         21   -1    0    0  501  502 -0.00000000000E+00 -0.00000000000E+00 -0.41824073048E+02  0.41824073048E+02  0.00000000000E+00 0. -1.
         25    1    1    2    0    0 -0.97814365758E+02 -0.23076684037E+01  0.13815492310E+04  0.13906387932E+04  0.12500000000E+03 0.  0.
         25    1    1    2    0    0  0.12973664753E+03  0.98701054965E+02  0.45201733791E+03  0.49650596143E+03  0.12500000000E+03 0.  0.
         25    1    1    2    0    0 -0.31922281770E+02 -0.96393386562E+02  0.41622127561E+03  0.44629123598E+03  0.12500000000E+03 0.  0.
</event>
<event>
 5    0  0.5631475E-005  0.3040305E+03  0.7546771E-02  0.1083243E+00
         21   -1    0    0  502  501  0.00000000000E+00  0.00000000000E+00  0.33761236734E+03  0.33761236734E+03  0.00000000000E+00 0. -1.
         21   -1    0    0  501  502 -0.00000000000E+00 -0.00000000000E+00 -0.27378895844E+03  0.27378895844E+03  0.00000000000E+00 0. -1.
         25    1    1    2    0    0  0.11410573317E+03 -0.87244209277E+02  0.11097920565E+03  0.22039295470E+03  0.12500000000E+03 0.  0.
         25    1    1    2    0    0 -0.47545119337E+02 -0.39409008075E+02 -0.12349817590E+03  0.18625361135E+03  0.12500000000E+03 0.  0.
         25    1    1    2    0    0 -0.66560613828E+02  0.12665321735E+03  0.76342379150E+02  0.20475475973E+03  0.12500000000E+03 0.  0.
</event>
<event>
 5    0  0.5631475E-005  0.3148127E+03  0.7546771E-02  0.1078062E+00
         21   -1    0    0  502  501  0.00000000000E+00  0.00000000000E+00  0.30718411282E+03  0.30718411282E+03  0.00000000000E+00 0. -1.
         21   -1    0    0  501  502 -0.00000000000E+00 -0.00000000000E+00 -0.32263077654E+03  0.32263077654E+03  0.00000000000E+00 0. -1.
         25    1    1    2    0    0 -0.11980925237E+03 -0.12171589169E+03 -0.83671775086E+02  0.22758510758E+03  0.12500000000E+03 0.  0.
         25    1    1    2    0    0  0.14001039834E+02  0.12648209993E+02 -0.85432073639E+02  0.15257668740E+03  0.12500000000E+03 0.  0.
         25    1    1    2    0    0  0.10580821254E+03  0.10906768170E+03  0.15365718501E+03  0.24965309439E+03  0.12500000000E+03 0.  0.
</event>
<event>
 5    0  0.5631475E-005  0.5395257E+03  0.7546771E-02  0.1003948E+00
         21   -1    0    0  502  501  0.00000000000E+00  0.00000000000E+00  0.10414981202E+03  0.10414981202E+03  0.00000000000E+00 0.  1.
         21   -1    0    0  501  502 -0.00000000000E+00 -0.00000000000E+00 -0.27948973420E+04  0.27948973420E+04  0.00000000000E+00 0.  1.
         25    1    1    2    0    0 -0.62745936802E+02  0.13202432012E+03 -0.64285636578E+03  0.67101175899E+03  0.12500000000E+03 0.  0.
         25    1    1    2    0    0 -0.34808924068E+03  0.68868895947E+02 -0.63908290752E+03  0.74159355916E+03  0.12500000000E+03 0.  0.
         25    1    1    2    0    0  0.41083517748E+03 -0.20089321606E+03 -0.14088082567E+04  0.14864418359E+04  0.12500000000E+03 0.  0.
</event>
<event>
 5    0  0.6323966E-005  0.3533681E+03  0.7546771E-02  0.1061241E+00
         21   -1    0    0  502  501  0.00000000000E+00  0.00000000000E+00  0.31574974919E+03  0.31574974919E+03  0.00000000000E+00 0.  1.
         21   -1    0    0  501  502 -0.00000000000E+00 -0.00000000000E+00 -0.39546831519E+03  0.39546831519E+03  0.00000000000E+00 0.  1.
         25    1    1    2    0    0  0.11466081204E+03 -0.35903993396E+02  0.10685492193E+03  0.20366436335E+03  0.12500000000E+03 0.  0.
         25    1    1    2    0    0  0.37320042481E+02  0.17176543745E+03 -0.21016719426E+02  0.21670914510E+03  0.12500000000E+03 0.  0.
         25    1    1    2    0    0 -0.15198085452E+03 -0.13586144406E+03 -0.16555676850E+03  0.29084455594E+03  0.12500000000E+03 0.  0.
</event>
<event>
 5    0  0.5631475E-005  0.3823908E+03  0.7546771E-02  0.1050054E+00
         21   -1    0    0  502  501  0.00000000000E+00  0.00000000000E+00  0.12397956299E+03  0.12397956299E+03  0.00000000000E+00 0.  1.
         21   -1    0    0  501  502 -0.00000000000E+00 -0.00000000000E+00 -0.11794096268E+04  0.11794096268E+04  0.00000000000E+00 0.  1.
         25    1    1    2    0    0 -0.11607966719E+03 -0.19935573449E+03 -0.68370857710E+03  0.73232480254E+03  0.12500000000E+03 0.  0.
         25    1    1    2    0    0  0.16810113438E+02  0.68523822277E+02 -0.33088090729E+03  0.36067335491E+03  0.12500000000E+03 0.  0.
         25    1    1    2    0    0  0.99269553747E+02  0.13083191221E+03 -0.40840579402E+02  0.21039103232E+03  0.12500000000E+03 0.  0.
</event>
<event>
 5    0  0.5631475E-005  0.3108227E+03  0.7546771E-02  0.1079952E+00
         21   -1    0    0  502  501  0.00000000000E+00  0.00000000000E+00  0.72759655116E+02  0.72759655116E+02  0.00000000000E+00 0. -1.
         21   -1    0    0  501  502 -0.00000000000E+00 -0.00000000000E+00 -0.13278065742E+04  0.13278065742E+04  0.00000000000E+00 0. -1.
         25    1    1    2    0    0 -0.11696535286E+03  0.80865057546E+02 -0.49223288122E+03  0.52738814990E+03  0.12500000000E+03 0.  0.
         25    1    1    2    0    0  0.12941961889E+03 -0.10645288738E+03 -0.69974040113E+03  0.73030355604E+03  0.12500000000E+03 0.  0.
         25    1    1    2    0    0 -0.12454266034E+02  0.25587829834E+02 -0.63073636720E+02  0.14287452337E+03  0.12500000000E+03 0.  0.
</event>
<event>
 5    0  0.5631475E-005  0.3606231E+03  0.7546771E-02  0.1058337E+00
         21   -1    0    0  502  501  0.00000000000E+00  0.00000000000E+00  0.24312028306E+03  0.24312028306E+03  0.00000000000E+00 0. -1.
         21   -1    0    0  501  502 -0.00000000000E+00 -0.00000000000E+00 -0.53491630982E+03  0.53491630982E+03  0.00000000000E+00 0. -1.
         25    1    1    2    0    0 -0.46451511198E+02 -0.17742616120E+02 -0.16950723034E+03  0.21640296776E+03  0.12500000000E+03 0.  0.
         25    1    1    2    0    0 -0.22331974790E+02  0.48613397199E+02  0.18021330142E+03  0.22575166332E+03  0.12500000000E+03 0.  0.
         25    1    1    2    0    0  0.68783485988E+02 -0.30870781079E+02 -0.30250209784E+03  0.33588196180E+03  0.12500000000E+03 0.  0.
</event>
<event>
 5    0  0.5631475E-005  0.3840273E+03  0.7546771E-02  0.1049455E+00
         21   -1    0    0  502  501  0.00000000000E+00  0.00000000000E+00  0.74801355653E+03  0.74801355653E+03  0.00000000000E+00 0.  1.
         21   -1    0    0  501  502 -0.00000000000E+00 -0.00000000000E+00 -0.19715810353E+03  0.19715810353E+03  0.00000000000E+00 0.  1.
         25    1    1    2    0    0  0.12245672984E+03 -0.18639760400E+03  0.46376731932E+03  0.52957043339E+03  0.12500000000E+03 0.  0.
         25    1    1    2    0    0  0.36112610954E+02  0.46661017530E+02  0.98585541542E+02  0.16978068273E+03  0.12500000000E+03 0.  0.
         25    1    1    2    0    0 -0.15856934079E+03  0.13973658647E+03 -0.11497407865E+02  0.24582054394E+03  0.12500000000E+03 0.  0.
</event>
<event>
 5    0  0.5631475E-005  0.2289330E+03  0.7546771E-02  0.1127393E+00
         21   -1    0    0  502  501  0.00000000000E+00  0.00000000000E+00  0.99070270187E+03  0.99070270187E+03  0.00000000000E+00 0. -1.
         21   -1    0    0  501  502 -0.00000000000E+00 -0.00000000000E+00 -0.52902175518E+02  0.52902175518E+02  0.00000000000E+00 0. -1.
         25    1    1    2    0    0 -0.39497886903E+02 -0.14053367252E+02  0.28479792389E+03  0.31383504848E+03  0.12500000000E+03 0.  0.
         25    1    1    2    0    0  0.85349933836E+02 -0.71652993463E+02  0.33439247365E+03  0.37398140209E+03  0.12500000000E+03 0.  0.
         25    1    1    2    0    0 -0.45852046933E+02  0.85706360716E+02  0.31861012881E+03  0.35578842682E+03  0.12500000000E+03 0.  0.
</event>
<event>
 5    0  0.6370229E-005  0.2721524E+03  0.7546771E-02  0.1100054E+00
         21   -1    0    0  502  501  0.00000000000E+00  0.00000000000E+00  0.21068629136E+03  0.21068629136E+03  0.00000000000E+00 0.  1.
         21   -1    0    0  501  502 -0.00000000000E+00 -0.00000000000E+00 -0.35155087533E+03  0.35155087533E+03  0.00000000000E+00 0.  1.
         25    1    1    2    0    0 -0.24643444403E+02  0.27801685216E+02  0.48630957938E+02  0.13917687711E+03  0.12500000000E+03 0.  0.
         25    1    1    2    0    0 -0.30034744634E+02 -0.10905639655E+03  0.90443613042E+01  0.16882589844E+03  0.12500000000E+03 0.  0.
         25    1    1    2    0    0  0.54678189037E+02  0.81254711332E+02 -0.19853990321E+03  0.25423439114E+03  0.12500000000E+03 0.  0.
</event>
<event>
 5    0  0.5631475E-005  0.2067708E+03  0.7546771E-02  0.1144149E+00
         21   -1    0    0  502  501  0.00000000000E+00  0.00000000000E+00  0.81672116479E+03  0.81672116479E+03  0.00000000000E+00 0. -1.
         21   -1    0    0  501  502 -0.00000000000E+00 -0.00000000000E+00 -0.52348528917E+02  0.52348528917E+02  0.00000000000E+00 0. -1.
         25    1    1    2    0    0 -0.33111476447E+02  0.65544749777E+02  0.30906574977E+03  0.34137826788E+03  0.12500000000E+03 0.  0.
         25    1    1    2    0    0  0.34251814557E+02 -0.55151903195E+02  0.22539200490E+03  0.26578464045E+03  0.12500000000E+03 0.  0.
         25    1    1    2    0    0 -0.11403381098E+01 -0.10392846582E+02  0.22991488120E+03  0.26190678538E+03  0.12500000000E+03 0.  0.
</event>
<event>
 5    0  0.5631475E-005  0.2477026E+03  0.7546771E-02  0.1114765E+00
         21   -1    0    0  502  501  0.00000000000E+00  0.00000000000E+00  0.15861257022E+04  0.15861257022E+04  0.00000000000E+00 0.  1.
         21   -1    0    0  501  502 -0.00000000000E+00 -0.00000000000E+00 -0.38683287943E+02  0.38683287943E+02  0.00000000000E+00 0.  1.
         25    1    1    2    0    0 -0.37170312697E+02  0.10775692933E+03  0.61527943577E+03  0.63811203722E+03  0.12500000000E+03 0.  0.
         25    1    1    2    0    0  0.47496553938E+02 -0.60330516525E+02  0.72662350039E+03  0.74128429444E+03  0.12500000000E+03 0.  0.
         25    1    1    2    0    0 -0.10326241241E+02 -0.47426412802E+02  0.20553947811E+03  0.24541265850E+03  0.12500000000E+03 0.  0.
</event>
<event>
 5    0  0.5631475E-005  0.2567458E+03  0.7546771E-02  0.1109114E+00
         21   -1    0    0  502  501  0.00000000000E+00  0.00000000000E+00  0.51255341959E+03  0.51255341959E+03  0.00000000000E+00 0. -1.
         21   -1    0    0  501  502 -0.00000000000E+00 -0.00000000000E+00 -0.12860788630E+03  0.12860788630E+03  0.00000000000E+00 0. -1.
         25    1    1    2    0    0 -0.79197739595E+02 -0.16403483011E+02  0.24625819950E+03  0.28776632366E+03  0.12500000000E+03 0.  0.
         25    1    1    2    0    0  0.10025661735E+03  0.31680702271E+02 -0.30537776238E+01  0.16336885192E+03  0.12500000000E+03 0.  0.
         25    1    1    2    0    0 -0.21058877759E+02 -0.15277219260E+02  0.14074111142E+03  0.19002613032E+03  0.12500000000E+03 0.  0.
</event>
<event>
 5    0  0.5631475E-005  0.2378103E+03  0.7546771E-02  0.1121260E+00
         21   -1    0    0  502  501  0.00000000000E+00  0.00000000000E+00  0.11732333936E+03  0.11732333936E+03  0.00000000000E+00 0. -1.
         21   -1    0    0  501  502 -0.00000000000E+00 -0.00000000000E+00 -0.48203301288E+03  0.48203301288E+03  0.00000000000E+00 0. -1.
         25    1    1    2    0    0  0.43259348335E+02  0.80834071814E+01 -0.35379701284E+02  0.13716207914E+03  0.12500000000E+03 0.  0.
         25    1    1    2    0    0 -0.10597320503E+03 -0.23038057943E+02 -0.10055248387E+03  0.19364109665E+03  0.12500000000E+03 0.  0.
         25    1    1    2    0    0  0.62713856698E+02  0.14954650761E+02 -0.22877748836E+03  0.26855317645E+03  0.12500000000E+03 0.  0.
</event>
<event>
 5    0  0.5631475E-005  0.3750839E+03  0.7546771E-02  0.1052766E+00
         21   -1    0    0  502  501  0.00000000000E+00  0.00000000000E+00  0.15229168565E+04  0.15229168565E+04  0.00000000000E+00 0.  1.
         21   -1    0    0  501  502 -0.00000000000E+00 -0.00000000000E+00 -0.92380594765E+02  0.92380594765E+02  0.00000000000E+00 0.  1.
         25    1    1    2    0    0  0.37899880807E+02 -0.10850819107E+03  0.27149008258E+03  0.32022225631E+03  0.12500000000E+03 0.  0.
         25    1    1    2    0    0 -0.17286063539E+03  0.60579372547E+01  0.14169761267E+03  0.25616539834E+03  0.12500000000E+03 0.  0.
         25    1    1    2    0    0  0.13496075458E+03  0.10245025382E+03  0.10173485665E+04  0.10389097966E+04  0.12500000000E+03 0.  0.
</event>
<event>
 5    0  0.5631475E-005  0.2229339E+03  0.7546771E-02  0.1131714E+00
         21   -1    0    0  502  501  0.00000000000E+00  0.00000000000E+00  0.10318120620E+04  0.10318120620E+04  0.00000000000E+00 0. -1.
         21   -1    0    0  501  502 -0.00000000000E+00 -0.00000000000E+00 -0.48167232478E+02  0.48167232478E+02  0.00000000000E+00 0. -1.
         25    1    1    2    0    0  0.81033784241E+02  0.32234799357E+02  0.38174108298E+03  0.41104356328E+03  0.12500000000E+03 0.  0.
         25    1    1    2    0    0 -0.65664842325E+02  0.29105153640E+02  0.38095361689E+03  0.40732007034E+03  0.12500000000E+03 0.  0.
         25    1    1    2    0    0 -0.15368941917E+02 -0.61339952996E+02  0.22095012964E+03  0.26161566084E+03  0.12500000000E+03 0.  0.
</event>
<event>
 5    0  0.5631475E-005  0.2183934E+03  0.7546771E-02  0.1135087E+00
         21   -1    0    0  502  501  0.00000000000E+00  0.00000000000E+00  0.91697005429E+02  0.91697005429E+02  0.00000000000E+00 0. -1.
         21   -1    0    0  501  502 -0.00000000000E+00 -0.00000000000E+00 -0.52014435449E+03  0.52014435449E+03  0.00000000000E+00 0. -1.
         25    1    1    2    0    0  0.47349083881E+02 -0.34868628380E+02 -0.11580307622E+03  0.18025845182E+03  0.12500000000E+03 0.  0.
         25    1    1    2    0    0 -0.85290534414E+02  0.52766277156E+02 -0.21173820345E+03  0.26555003684E+03  0.12500000000E+03 0.  0.
         25    1    1    2    0    0  0.37941450533E+02 -0.17897648776E+02 -0.10090606939E+03  0.16603287126E+03  0.12500000000E+03 0.  0.
</event>
<event>
 5    0  0.5631475E-005  0.3325895E+03  0.7546771E-02  0.1069997E+00
         21   -1    0    0  502  501  0.00000000000E+00  0.00000000000E+00  0.56403384375E+03  0.56403384375E+03  0.00000000000E+00 0.  1.
         21   -1    0    0  501  502 -0.00000000000E+00 -0.00000000000E+00 -0.19611547944E+03  0.19611547944E+03  0.00000000000E+00 0.  1.
         25    1    1    2    0    0  0.12308218954E+03 -0.40606496050E+02  0.16221828716E+03  0.24235900146E+03  0.12500000000E+03 0.  0.
         25    1    1    2    0    0 -0.14313533640E+03 -0.11598039874E+03  0.22372708364E+03  0.31562316989E+03  0.12500000000E+03 0.  0.
         25    1    1    2    0    0  0.20053146861E+02  0.15658689479E+03 -0.18027006487E+02  0.20216715184E+03  0.12500000000E+03 0.  0.
</event>
<event>
 5    0  0.5631475E-005  0.3594504E+03  0.7546771E-02  0.1058802E+00
         21   -1    0    0  502  501  0.00000000000E+00  0.00000000000E+00  0.30331370802E+03  0.30331370802E+03  0.00000000000E+00 0. -1.
         21   -1    0    0  501  502 -0.00000000000E+00 -0.00000000000E+00 -0.42597665320E+03  0.42597665320E+03  0.00000000000E+00 0. -1.
         25    1    1    2    0    0  0.14366661999E+03  0.25766121002E+02  0.13053941095E+03  0.23231342729E+03  0.12500000000E+03 0.  0.
         25    1    1    2    0    0  0.69791466928E+02  0.59167080108E+02 -0.41169415139E+02  0.16028572291E+03  0.12500000000E+03 0.  0.
         25    1    1    2    0    0 -0.21345808691E+03 -0.84933201109E+02 -0.21203294098E+03  0.33669121103E+03  0.12500000000E+03 0.  0.
</event>
<event>
 5    0  0.5631475E-005  0.2689845E+03  0.7546771E-02  0.1101862E+00
         21   -1    0    0  502  501  0.00000000000E+00  0.00000000000E+00  0.16121218839E+03  0.16121218839E+03  0.00000000000E+00 0. -1.
         21   -1    0    0  501  502 -0.00000000000E+00 -0.00000000000E+00 -0.44880388580E+03  0.44880388580E+03  0.00000000000E+00 0. -1.
         25    1    1    2    0    0  0.45095844986E+02 -0.97493274106E+02 -0.12337876646E+02  0.16527491319E+03  0.12500000000E+03 0.  0.
         25    1    1    2    0    0  0.84179746079E+02  0.14925524873E+02 -0.11743371963E+03  0.19163684262E+03  0.12500000000E+03 0.  0.
         25    1    1    2    0    0 -0.12927559106E+03  0.82567749234E+02 -0.15782010113E+03  0.25310431837E+03  0.12500000000E+03 0.  0.
</event>
<event>
 5    0  0.5631475E-005  0.3336481E+03  0.7546771E-02  0.1069534E+00
         21   -1    0    0  502  501  0.00000000000E+00  0.00000000000E+00  0.74836954177E+02  0.74836954177E+02  0.00000000000E+00 0. -1.
         21   -1    0    0  501  502 -0.00000000000E+00 -0.00000000000E+00 -0.14875145239E+04  0.14875145239E+04  0.00000000000E+00 0. -1.
         25    1    1    2    0    0 -0.26323400273E+02  0.62158939953E+02 -0.98073040645E+03  0.99096608688E+03  0.12500000000E+03 0.  0.
         25    1    1    2    0    0 -0.46831617482E+02  0.90293196963E+02 -0.22113440379E+03  0.27362654541E+03  0.12500000000E+03 0.  0.
         25    1    1    2    0    0  0.73155017755E+02 -0.15245213692E+03 -0.21081275944E+03  0.29775884574E+03  0.12500000000E+03 0.  0.
</event>
<event>
 5    0  0.5631475E-005  0.2522017E+03  0.7546771E-02  0.1111921E+00
         21   -1    0    0  502  501  0.00000000000E+00  0.00000000000E+00  0.11870677362E+04  0.11870677362E+04  0.00000000000E+00 0. -1.
         21   -1    0    0  501  502 -0.00000000000E+00 -0.00000000000E+00 -0.53582186498E+02  0.53582186498E+02  0.00000000000E+00 0. -1.
         25    1    1    2    0    0  0.97133229872E+02  0.65212352203E+02  0.44579477137E+03  0.47754109080E+03  0.12500000000E+03 0.  0.
         25    1    1    2    0    0 -0.13230614022E+03  0.68870440221E+01  0.36910426348E+03  0.41160090310E+03  0.12500000000E+03 0.  0.
         25    1    1    2    0    0  0.35172910349E+02 -0.72099396226E+02  0.31858651486E+03  0.35150792880E+03  0.12500000000E+03 0.  0.
</event>
<event>
 5    0  0.5631475E-005  0.2291187E+03  0.7546771E-02  0.1127262E+00
         21   -1    0    0  502  501  0.00000000000E+00  0.00000000000E+00  0.57082880956E+02  0.57082880956E+02  0.00000000000E+00 0. -1.
         21   -1    0    0  501  502 -0.00000000000E+00 -0.00000000000E+00 -0.91963443159E+03  0.91963443159E+03  0.00000000000E+00 0. -1.
         25    1    1    2    0    0 -0.70842058226E+01 -0.45039685038E+02 -0.18705259499E+03  0.22954832278E+03  0.12500000000E+03 0.  0.
         25    1    1    2    0    0  0.84752286680E+01  0.11987610773E+03 -0.38087126951E+03  0.41848540553E+03  0.12500000000E+03 0.  0.
         25    1    1    2    0    0 -0.13910228453E+01 -0.74836422692E+02 -0.29462768614E+03  0.32868358423E+03  0.12500000000E+03 0.  0.
</event>
<event>
 5    0  0.5631475E-005  0.2594082E+03  0.7546771E-02  0.1107499E+00
         21   -1    0    0  502  501  0.00000000000E+00  0.00000000000E+00  0.40327662667E+02  0.40327662667E+02  0.00000000000E+00 0.  1.
         21   -1    0    0  501  502 -0.00000000000E+00 -0.00000000000E+00 -0.16686461756E+04  0.16686461756E+04  0.00000000000E+00 0.  1.
         25    1    1    2    0    0  0.90157979576E+02  0.67192507283E+02 -0.44887081445E+03  0.47932588328E+03  0.12500000000E+03 0.  0.
         25    1    1    2    0    0 -0.53682944960E+02 -0.11393425690E+03 -0.39408941487E+03  0.43219710826E+03  0.12500000000E+03 0.  0.
         25    1    1    2    0    0 -0.36475034617E+02  0.46741749621E+02 -0.78535828364E+03  0.79745084676E+03  0.12500000000E+03 0.  0.
</event>
<event>
 5    0  0.5631475E-005  0.2533131E+03  0.7546771E-02  0.1111229E+00
         21   -1    0    0  502  501  0.00000000000E+00  0.00000000000E+00  0.88596929563E+03  0.88596929563E+03  0.00000000000E+00 0.  1.
         21   -1    0    0  501  502 -0.00000000000E+00 -0.00000000000E+00 -0.72426350255E+02  0.72426350255E+02  0.00000000000E+00 0.  1.
         25    1    1    2    0    0  0.16348982587E+01 -0.30554806232E+02  0.46136601522E+03  0.47897794216E+03  0.12500000000E+03 0.  0.
         25    1    1    2    0    0  0.76706435960E+02 -0.44825290281E+02  0.12275610728E+03  0.19643636588E+03  0.12500000000E+03 0.  0.
         25    1    1    2    0    0 -0.78341334219E+02  0.75380096512E+02  0.22942082288E+03  0.28298133784E+03  0.12500000000E+03 0.  0.
</event>
<event>
 5    0  0.5631475E-005  0.2949784E+03  0.7546771E-02  0.1087778E+00
         21   -1    0    0  502  501  0.00000000000E+00  0.00000000000E+00  0.41807773292E+02  0.41807773292E+02  0.00000000000E+00 0.  1.
         21   -1    0    0  501  502 -0.00000000000E+00 -0.00000000000E+00 -0.20812456240E+04  0.20812456240E+04  0.00000000000E+00 0.  1.
         25    1    1    2    0    0  0.94707494771E+02  0.10119365433E+03 -0.50876455018E+03  0.54191884333E+03  0.12500000000E+03 0.  0.
         25    1    1    2    0    0 -0.27701187895E+02 -0.17416371444E+03 -0.62004939503E+03  0.65664800884E+03  0.12500000000E+03 0.  0.
         25    1    1    2    0    0 -0.67006306876E+02  0.72970060114E+02 -0.91062390552E+03  0.92448654513E+03  0.12500000000E+03 0.  0.
</event>
<event>
 5    0  0.5631475E-005  0.3126059E+03  0.7546771E-02  0.1079103E+00
         21   -1    0    0  502  501  0.00000000000E+00  0.00000000000E+00  0.50657627253E+03  0.50657627253E+03  0.00000000000E+00 0.  1.
         21   -1    0    0  501  502 -0.00000000000E+00 -0.00000000000E+00 -0.19290768842E+03  0.19290768842E+03  0.00000000000E+00 0.  1.
         25    1    1    2    0    0 -0.19450880404E+03  0.70231314206E+02  0.95303710559E+02  0.25975740526E+03  0.12500000000E+03 0.  0.
         25    1    1    2    0    0  0.15324313764E+03 -0.13575625120E+02  0.26110776332E+02  0.19993631354E+03  0.12500000000E+03 0.  0.
         25    1    1    2    0    0  0.41265666392E+02 -0.56655689086E+02  0.19225409722E+03  0.23979024214E+03  0.12500000000E+03 0.  0.
</event>
<event>
 5    0  0.5631475E-005  0.3266515E+03  0.7546771E-02  0.1072628E+00
         21   -1    0    0  502  501  0.00000000000E+00  0.00000000000E+00  0.34872614500E+02  0.34872614500E+02  0.00000000000E+00 0.  1.
         21   -1    0    0  501  502 -0.00000000000E+00 -0.00000000000E+00 -0.30597418482E+04  0.30597418482E+04  0.00000000000E+00 0.  1.
         25    1    1    2    0    0  0.92620261512E+01  0.74233018985E+02 -0.67009240249E+03  0.68574423375E+03  0.12500000000E+03 0.  0.
         25    1    1    2    0    0 -0.22926199485E+02  0.16839704757E+03 -0.13980787121E+04  0.14139067372E+04  0.12500000000E+03 0.  0.
         25    1    1    2    0    0  0.13664173334E+02 -0.24263006656E+03 -0.95669811909E+03  0.99496349175E+03  0.12500000000E+03 0.  0.
</event>
<event>
 5    0  0.5631475E-005  0.2367491E+03  0.7546771E-02  0.1121978E+00
         21   -1    0    0  502  501  0.00000000000E+00  0.00000000000E+00  0.13631412448E+03  0.13631412448E+03  0.00000000000E+00 0.  1.
         21   -1    0    0  501  502 -0.00000000000E+00 -0.00000000000E+00 -0.41118364452E+03  0.41118364452E+03  0.00000000000E+00 0.  1.
         25    1    1    2    0    0  0.40366495059E+02 -0.31550970678E+02 -0.12749300760E+03  0.18575355895E+03  0.12500000000E+03 0.  0.
         25    1    1    2    0    0 -0.65350371598E+02  0.39782921009E+02  0.23471778771E+02  0.14842262722E+03  0.12500000000E+03 0.  0.
         25    1    1    2    0    0  0.24983876539E+02 -0.82319503313E+01 -0.17084829121E+03  0.21332158283E+03  0.12500000000E+03 0.  0.
</event>
<event>
 5    0  0.5631475E-005  0.3270524E+03  0.7546771E-02  0.1072449E+00
         21   -1    0    0  502  501  0.00000000000E+00  0.00000000000E+00  0.78975100440E+03  0.78975100440E+03  0.00000000000E+00 0. -1.
         21   -1    0    0  501  502 -0.00000000000E+00 -0.00000000000E+00 -0.13543924414E+03  0.13543924414E+03  0.00000000000E+00 0. -1.
         25    1    1    2    0    0  0.70082998525E+02 -0.27335875217E+02 -0.55837904771E+02  0.15621058980E+03  0.12500000000E+03 0.  0.
         25    1    1    2    0    0 -0.28822624932E+02  0.46644573815E+02  0.20266211746E+03  0.24434277937E+03  0.12500000000E+03 0.  0.
         25    1    1    2    0    0 -0.41260373593E+02 -0.19308698598E+02  0.50748754757E+03  0.52463687938E+03  0.12500000000E+03 0.  0.
</event>
<event>
 5    0  0.7425933E-005  0.3366087E+03  0.7546771E-02  0.1068250E+00
         21   -1    0    0  502  501  0.00000000000E+00  0.00000000000E+00  0.42234614768E+03  0.42234614768E+03  0.00000000000E+00 0.  1.
         21   -1    0    0  501  502 -0.00000000000E+00 -0.00000000000E+00 -0.26827622198E+03  0.26827622198E+03  0.00000000000E+00 0.  1.
         25    1    1    2    0    0  0.11459125349E+03 -0.11229861008E+03 -0.66047901786E+02  0.21384447277E+03  0.12500000000E+03 0.  0.
         25    1    1    2    0    0 -0.26444411754E+00  0.10277706266E+02  0.24718767163E+03  0.27718666307E+03  0.12500000000E+03 0.  0.
         25    1    1    2    0    0 -0.11432680937E+03  0.10202090382E+03 -0.27069844156E+02  0.19959123382E+03  0.12500000000E+03 0.  0.
</event>
<event>
 5    0  0.5631475E-005  0.3478963E+03  0.7546771E-02  0.1063482E+00
         21   -1    0    0  502  501  0.00000000000E+00  0.00000000000E+00  0.30439686676E+03  0.30439686676E+03  0.00000000000E+00 0.  1.
         21   -1    0    0  501  502 -0.00000000000E+00 -0.00000000000E+00 -0.39761193235E+03  0.39761193235E+03  0.00000000000E+00 0.  1.
         25    1    1    2    0    0  0.65271670442E+02  0.18454383695E+03 -0.56874002543E+02  0.23911601972E+03  0.12500000000E+03 0.  0.
         25    1    1    2    0    0 -0.88176656711E+02  0.74498688064E+02 -0.38059677063E+02  0.17435227653E+03  0.12500000000E+03 0.  0.
         25    1    1    2    0    0  0.22904986269E+02 -0.25904252502E+03  0.17186140126E+01  0.28854050287E+03  0.12500000000E+03 0.  0.
</event>
<event>
 5    0  0.5631475E-005  0.4689188E+03  0.7546771E-02  0.1022226E+00
         21   -1    0    0  502  501  0.00000000000E+00  0.00000000000E+00  0.38544895554E+03  0.38544895554E+03  0.00000000000E+00 0.  1.
         21   -1    0    0  501  502 -0.00000000000E+00 -0.00000000000E+00 -0.57046430838E+03  0.57046430838E+03  0.00000000000E+00 0.  1.
         25    1    1    2    0    0 -0.33482145591E+03  0.86184294639E+02 -0.16849317308E+03  0.40441079282E+03  0.12500000000E+03 0.  0.
         25    1    1    2    0    0 -0.26411238665E+02  0.32530443354E+02 -0.67325723154E+02  0.14803221363E+03  0.12500000000E+03 0.  0.
         25    1    1    2    0    0  0.36123269457E+03 -0.11871473799E+03  0.50803543385E+02  0.40347025747E+03  0.12500000000E+03 0.  0.
</event>
<event>
 5    0  0.5631475E-005  0.3039488E+03  0.7546771E-02  0.1083283E+00
         21   -1    0    0  502  501  0.00000000000E+00  0.00000000000E+00  0.20124437603E+03  0.20124437603E+03  0.00000000000E+00 0. -1.
         21   -1    0    0  501  502 -0.00000000000E+00 -0.00000000000E+00 -0.45906823010E+03  0.45906823010E+03  0.00000000000E+00 0. -1.
         25    1    1    2    0    0  0.49062652611E+02  0.84316772180E+02 -0.13435906439E+03  0.20783122994E+03  0.12500000000E+03 0.  0.
         25    1    1    2    0    0 -0.10365018088E+03 -0.18697455137E+03 -0.10679838279E+02  0.24787477040E+03  0.12500000000E+03 0.  0.
         25    1    1    2    0    0  0.54587528268E+02  0.10265777919E+03 -0.11278495139E+03  0.20460660579E+03  0.12500000000E+03 0.  0.
</event>
<event>
 5    0  0.5631475E-005  0.4885838E+03  0.7546771E-02  0.1016802E+00
         21   -1    0    0  502  501  0.00000000000E+00  0.00000000000E+00  0.32325757971E+03  0.32325757971E+03  0.00000000000E+00 0. -1.
         21   -1    0    0  501  502 -0.00000000000E+00 -0.00000000000E+00 -0.73846422600E+03  0.73846422600E+03  0.00000000000E+00 0. -1.
         25    1    1    2    0    0  0.13247286843E+02  0.68874476950E+02 -0.33317348495E+03  0.36269650572E+03  0.12500000000E+03 0.  0.
         25    1    1    2    0    0 -0.17538229574E+03 -0.68060235976E+02 -0.31581515450E+03  0.38827227198E+03  0.12500000000E+03 0.  0.
         25    1    1    2    0    0  0.16213500889E+03 -0.81424097346E+00  0.23378199316E+03  0.31075302802E+03  0.12500000000E+03 0.  0.
</event>
<event>
 5    0  0.5631475E-005  0.3016483E+03  0.7546771E-02  0.1084420E+00
         21   -1    0    0  502  501  0.00000000000E+00  0.00000000000E+00  0.14017822575E+03  0.14017822575E+03  0.00000000000E+00 0.  1.
         21   -1    0    0  501  502 -0.00000000000E+00 -0.00000000000E+00 -0.64911427020E+03  0.64911427020E+03  0.00000000000E+00 0.  1.
         25    1    1    2    0    0 -0.39529693082E+02  0.10661918055E+03 -0.23030206243E+03  0.28564713591E+03  0.12500000000E+03 0.  0.
         25    1    1    2    0    0 -0.30160503869E+02 -0.49872851656E+02 -0.31637688617E+03  0.34513228105E+03  0.12500000000E+03 0.  0.
         25    1    1    2    0    0  0.69690196951E+02 -0.56746328892E+02  0.37742904148E+02  0.15851307898E+03  0.12500000000E+03 0.  0.
</event>
<event>
 5    0  0.5631475E-005  0.3899658E+03  0.7546771E-02  0.1047311E+00
         21   -1    0    0  502  501  0.00000000000E+00  0.00000000000E+00  0.11863463917E+03  0.11863463917E+03  0.00000000000E+00 0.  1.
         21   -1    0    0  501  502 -0.00000000000E+00 -0.00000000000E+00 -0.12818627170E+04  0.12818627170E+04  0.00000000000E+00 0.  1.
         25    1    1    2    0    0  0.39508294158E+02  0.18182603042E+02 -0.22021326489E+03  0.25692488084E+03  0.12500000000E+03 0.  0.
         25    1    1    2    0    0 -0.29549957152E+03  0.27901081888E+02 -0.68302280620E+03  0.75514476819E+03  0.12500000000E+03 0.  0.
         25    1    1    2    0    0  0.25599127736E+03 -0.46083684930E+02 -0.25999200676E+03  0.38842770715E+03  0.12500000000E+03 0.  0.
</event>
<event>
 5    0  0.5631475E-005  0.2887099E+03  0.7546771E-02  0.1091025E+00
         21   -1    0    0  502  501  0.00000000000E+00  0.00000000000E+00  0.75382564132E+03  0.75382564132E+03  0.00000000000E+00 0. -1.
         21   -1    0    0  501  502 -0.00000000000E+00 -0.00000000000E+00 -0.11057389183E+03  0.11057389183E+03  0.00000000000E+00 0. -1.
         25    1    1    2    0    0 -0.12263696101E+03 -0.12139131697E+01  0.12898468662E+03  0.21749332673E+03  0.12500000000E+03 0.  0.
         25    1    1    2    0    0 -0.74701634456E+01  0.11444215685E+02  0.28948597633E+02  0.12903408356E+03  0.12500000000E+03 0.  0.
         25    1    1    2    0    0  0.13010712446E+03 -0.10230302516E+02  0.48531846525E+03  0.51787212286E+03  0.12500000000E+03 0.  0.
</event>
<event>
 5    0  0.5631475E-005  0.4274543E+03  0.7546771E-02  0.1034667E+00
         21   -1    0    0  502  501  0.00000000000E+00  0.00000000000E+00  0.17547519183E+03  0.17547519183E+03  0.00000000000E+00 0.  1.
         21   -1    0    0  501  502 -0.00000000000E+00 -0.00000000000E+00 -0.10412704745E+04  0.10412704745E+04  0.00000000000E+00 0.  1.
         25    1    1    2    0    0  0.22312719161E+03 -0.11461460462E+02 -0.67766712676E+03  0.72441344784E+03  0.12500000000E+03 0.  0.
         25    1    1    2    0    0 -0.61286739786E+02  0.76201812385E+02 -0.22433857867E+03  0.27480097992E+03  0.12500000000E+03 0.  0.
         25    1    1    2    0    0 -0.16184045183E+03 -0.64740351924E+02  0.36210422804E+02  0.21753123853E+03  0.12500000000E+03 0.  0.
</event>
<event>
 5    0  0.5631475E-005  0.5231207E+03  0.7546771E-02  0.1007914E+00
         21   -1    0    0  502  501  0.00000000000E+00  0.00000000000E+00  0.23071384219E+04  0.23071384219E+04  0.00000000000E+00 0.  1.
         21   -1    0    0  501  502 -0.00000000000E+00 -0.00000000000E+00 -0.11861244002E+03  0.11861244002E+03  0.00000000000E+00 0.  1.
         25    1    1    2    0    0 -0.35159049111E+03  0.15774010012E+03  0.12429000964E+04  0.13072579937E+04  0.12500000000E+03 0.  0.
         25    1    1    2    0    0  0.34448644598E+03 -0.24353815272E+03  0.76548597351E+03  0.88293573885E+03  0.12500000000E+03 0.  0.
         25    1    1    2    0    0  0.71040451372E+01  0.85798052604E+02  0.18013991199E+03  0.23555712933E+03  0.12500000000E+03 0.  0.
</event>
<event>
 5    0  0.5631475E-005  0.2992694E+03  0.7546771E-02  0.1085606E+00
         21   -1    0    0  502  501  0.00000000000E+00  0.00000000000E+00  0.23816325070E+03  0.23816325070E+03  0.00000000000E+00 0.  1.
         21   -1    0    0  501  502 -0.00000000000E+00 -0.00000000000E+00 -0.37605369624E+03  0.37605369624E+03  0.00000000000E+00 0.  1.
         25    1    1    2    0    0 -0.36284913890E+02  0.67012953560E+02 -0.43677103106E+02  0.15277440969E+03  0.12500000000E+03 0.  0.
         25    1    1    2    0    0 -0.69164488144E+02 -0.19606112790E+03 -0.64469433474E+02  0.25100796829E+03  0.12500000000E+03 0.  0.
         25    1    1    2    0    0  0.10544940203E+03  0.12904817434E+03 -0.29743908962E+02  0.21043456895E+03  0.12500000000E+03 0.  0.
</event>
<event>
 5    0  0.6958605E-005  0.2707570E+03  0.7546771E-02  0.1100847E+00
         21   -1    0    0  502  501  0.00000000000E+00  0.00000000000E+00  0.30495120023E+03  0.30495120023E+03  0.00000000000E+00 0.  1.
         21   -1    0    0  501  502 -0.00000000000E+00 -0.00000000000E+00 -0.24039701135E+03  0.24039701135E+03  0.00000000000E+00 0.  1.
         25    1    1    2    0    0 -0.10650067328E+03  0.49942887946E+02  0.14394083375E+03  0.22401037718E+03  0.12500000000E+03 0.  0.
         25    1    1    2    0    0  0.93226191667E+02 -0.58045171825E+02  0.10299635261E+02  0.16670767010E+03  0.12500000000E+03 0.  0.
         25    1    1    2    0    0  0.13274481616E+02  0.81022838788E+01 -0.89686280133E+02  0.15463016430E+03  0.12500000000E+03 0.  0.
</event>
<event>
 5    0  0.5631475E-005  0.2041941E+03  0.7546771E-02  0.1146248E+00
         21   -1    0    0  502  501  0.00000000000E+00  0.00000000000E+00  0.99867367531E+02  0.99867367531E+02  0.00000000000E+00 0. -1.
         21   -1    0    0  501  502 -0.00000000000E+00 -0.00000000000E+00 -0.41750605939E+03  0.41750605939E+03  0.00000000000E+00 0. -1.
         25    1    1    2    0    0 -0.19366692034E+02  0.16817940812E+02 -0.82759629336E+02  0.15209230139E+03  0.12500000000E+03 0.  0.
         25    1    1    2    0    0 -0.36397800589E+00 -0.33845114505E+02 -0.46279462662E+02  0.13752240879E+03  0.12500000000E+03 0.  0.
         25    1    1    2    0    0  0.19730670040E+02  0.17027173692E+02 -0.18859959986E+03  0.22775871674E+03  0.12500000000E+03 0.  0.
</event>
<event>
 5    0  0.5631475E-005  0.3093189E+03  0.7546771E-02  0.1080673E+00
         21   -1    0    0  502  501  0.00000000000E+00  0.00000000000E+00  0.43546731662E+03  0.43546731662E+03  0.00000000000E+00 0. -1.
         21   -1    0    0  501  502 -0.00000000000E+00 -0.00000000000E+00 -0.21971379100E+03  0.21971379100E+03  0.00000000000E+00 0. -1.
         25    1    1    2    0    0 -0.11412357019E+03 -0.17317250738E+03  0.14188334510E+03  0.28065778129E+03  0.12500000000E+03 0.  0.
         25    1    1    2    0    0 -0.24916398213E+02  0.88563105962E+02 -0.33800216197E+01  0.15524392157E+03  0.12500000000E+03 0.  0.
         25    1    1    2    0    0  0.13903996840E+03  0.84609401417E+02  0.77250202145E+02  0.21927940476E+03  0.12500000000E+03 0.  0.
</event>
<event>
 5    0  0.5631475E-005  0.3259966E+03  0.7546771E-02  0.1072922E+00
         21   -1    0    0  502  501  0.00000000000E+00  0.00000000000E+00  0.16035847132E+03  0.16035847132E+03  0.00000000000E+00 0.  1.
         21   -1    0    0  501  502 -0.00000000000E+00 -0.00000000000E+00 -0.66272641030E+03  0.66272641030E+03  0.00000000000E+00 0.  1.
         25    1    1    2    0    0 -0.10409423468E+03  0.20462260783E+03 -0.16160675324E+03  0.30732354941E+03  0.12500000000E+03 0.  0.
         25    1    1    2    0    0  0.58114335936E+02 -0.10788012228E+02 -0.63399072748E+02  0.15211212862E+03  0.12500000000E+03 0.  0.
         25    1    1    2    0    0  0.45979898739E+02 -0.19383459560E+03 -0.27736211299E+03  0.36364920358E+03  0.12500000000E+03 0.  0.
</event>
<event>
 5    0  0.5631475E-005  0.4802830E+03  0.7546771E-02  0.1019057E+00
         21   -1    0    0  502  501  0.00000000000E+00  0.00000000000E+00  0.32087773669E+03  0.32087773669E+03  0.00000000000E+00 0. -1.
         21   -1    0    0  501  502 -0.00000000000E+00 -0.00000000000E+00 -0.71887755685E+03  0.71887755685E+03  0.00000000000E+00 0. -1.
         25    1    1    2    0    0  0.48536174629E+02  0.13575431687E+03 -0.16477283796E+03  0.25211125109E+03  0.12500000000E+03 0.  0.
         25    1    1    2    0    0  0.11361328124E+03  0.17936130110E+03 -0.31813525726E+03  0.40238476104E+03  0.12500000000E+03 0.  0.
         25    1    1    2    0    0 -0.16214945587E+03 -0.31511561798E+03  0.84908275059E+02  0.38525928140E+03  0.12500000000E+03 0.  0.
</event>
<event>
 5    0  0.5631475E-005  0.4115184E+03  0.7546771E-02  0.1039863E+00
         21   -1    0    0  502  501  0.00000000000E+00  0.00000000000E+00  0.26996276254E+04  0.26996276254E+04  0.00000000000E+00 0. -1.
         21   -1    0    0  501  502 -0.00000000000E+00 -0.00000000000E+00 -0.62729895689E+02  0.62729895689E+02  0.00000000000E+00 0. -1.
         25    1    1    2    0    0  0.13005287906E+03 -0.25391913276E+03  0.54506445010E+03  0.62778095869E+03  0.12500000000E+03 0.  0.
         25    1    1    2    0    0 -0.10498109412E+03  0.24863257292E+03  0.14666095800E+04  0.14964651171E+04  0.12500000000E+03 0.  0.
         25    1    1    2    0    0 -0.25071784937E+02  0.52865598394E+01  0.62522369967E+03  0.63811144539E+03  0.12500000000E+03 0.  0.
</event>
<event>
 5    0  0.5631475E-005  0.2667394E+03  0.7546771E-02  0.1103160E+00
         21   -1    0    0  502  501  0.00000000000E+00  0.00000000000E+00  0.76693269801E+03  0.76693269801E+03  0.00000000000E+00 0. -1.
         21   -1    0    0  501  502 -0.00000000000E+00 -0.00000000000E+00 -0.92772069831E+02  0.92772069831E+02  0.00000000000E+00 0. -1.
         25    1    1    2    0    0 -0.21299780700E+02 -0.18010303182E+02  0.18133581651E+03  0.22200389642E+03  0.12500000000E+03 0.  0.
         25    1    1    2    0    0 -0.14168856503E+03 -0.60750916217E+01  0.30208861035E+03  0.35636369723E+03  0.12500000000E+03 0.  0.
         25    1    1    2    0    0  0.16298834573E+03  0.24085394804E+02  0.19073620132E+03  0.28133717419E+03  0.12500000000E+03 0.  0.
</event>
<event>
 5    0  0.5631475E-005  0.2551536E+03  0.7546771E-02  0.1110091E+00
         21   -1    0    0  502  501  0.00000000000E+00  0.00000000000E+00  0.66940384938E+03  0.66940384938E+03  0.00000000000E+00 0. -1.
         21   -1    0    0  501  502 -0.00000000000E+00 -0.00000000000E+00 -0.97255693497E+02  0.97255693497E+02  0.00000000000E+00 0. -1.
         25    1    1    2    0    0  0.72466142023E+02 -0.51320571384E+02  0.92394564923E+02  0.17901647526E+03  0.12500000000E+03 0.  0.
         25    1    1    2    0    0 -0.51143533216E+02 -0.50575356995E+02  0.35330262843E+03  0.38160355735E+03  0.12500000000E+03 0.  0.
         25    1    1    2    0    0 -0.21322608807E+02  0.10189592838E+03  0.12645096252E+03  0.20603951026E+03  0.12500000000E+03 0.  0.
</event>
<event>
 5    0  0.5631475E-005  0.2600137E+03  0.7546771E-02  0.1107135E+00
         21   -1    0    0  502  501  0.00000000000E+00  0.00000000000E+00  0.12341855653E+03  0.12341855653E+03  0.00000000000E+00 0.  1.
         21   -1    0    0  501  502 -0.00000000000E+00 -0.00000000000E+00 -0.54778728549E+03  0.54778728549E+03  0.00000000000E+00 0.  1.
         25    1    1    2    0    0 -0.69317312494E+02  0.94296117875E+02 -0.95364720090E+02  0.19600019769E+03  0.12500000000E+03 0.  0.
         25    1    1    2    0    0  0.62111432857E+02 -0.15033128471E+03 -0.18350898330E+03  0.27524147981E+03  0.12500000000E+03 0.  0.
         25    1    1    2    0    0  0.72058796363E+01  0.56035166836E+02 -0.14549502558E+03  0.19996416452E+03  0.12500000000E+03 0.  0.
</event>
<event>
 5    0  0.5631475E-005  0.3332649E+03  0.7546771E-02  0.1069701E+00
         21   -1    0    0  502  501  0.00000000000E+00  0.00000000000E+00  0.11385753406E+03  0.11385753406E+03  0.00000000000E+00 0.  1.
         21   -1    0    0  501  502 -0.00000000000E+00 -0.00000000000E+00 -0.97547756230E+03  0.97547756230E+03  0.00000000000E+00 0.  1.
         25    1    1    2    0    0  0.20498571930E+02 -0.87197503291E+02 -0.11567758029E+03  0.19243154267E+03  0.12500000000E+03 0.  0.
         25    1    1    2    0    0  0.19481285452E+03  0.25255490262E+02 -0.43842976993E+03  0.49642275455E+03  0.12500000000E+03 0.  0.
         25    1    1    2    0    0 -0.21531142645E+03  0.61942013029E+02 -0.30751267802E+03  0.40048079914E+03  0.12500000000E+03 0.  0.
</event>
<event>
 5    0  0.5631475E-005  0.1961738E+03  0.7546771E-02  0.1153008E+00
         21   -1    0    0  502  501  0.00000000000E+00  0.00000000000E+00  0.89494798263E+02  0.89494798263E+02  0.00000000000E+00 0. -1.
         21   -1    0    0  501  502 -0.00000000000E+00 -0.00000000000E+00 -0.43001564064E+03  0.43001564064E+03  0.00000000000E+00 0. -1.
         25    1    1    2    0    0 -0.23564180013E+02  0.68997717750E+01 -0.81442112837E+02  0.15119753693E+03  0.12500000000E+03 0.  0.
         25    1    1    2    0    0  0.10109807541E+02  0.28867101948E+02 -0.15336875708E+03  0.20020612736E+03  0.12500000000E+03 0.  0.
         25    1    1    2    0    0  0.13454372472E+02 -0.35766873723E+02 -0.10570997246E+03  0.16810677462E+03  0.12500000000E+03 0.  0.
</event>
<event>
 5    0  0.5833836E-005  0.2991656E+03  0.7546771E-02  0.1085658E+00
         21   -1    0    0  502  501  0.00000000000E+00  0.00000000000E+00  0.37664984378E+03  0.37664984378E+03  0.00000000000E+00 0.  1.
         21   -1    0    0  501  502 -0.00000000000E+00 -0.00000000000E+00 -0.23762140091E+03  0.23762140091E+03  0.00000000000E+00 0.  1.
         25    1    1    2    0    0 -0.57444577053E+01 -0.12309480230E+02  0.21260740621E+03  0.24700492156E+03  0.12500000000E+03 0.  0.
         25    1    1    2    0    0  0.11397230063E+03 -0.40778249954E+01 -0.10362666330E+03  0.19841824340E+03  0.12500000000E+03 0.  0.
         25    1    1    2    0    0 -0.10822784292E+03  0.16387305225E+02  0.30047699949E+02  0.16884807973E+03  0.12500000000E+03 0.  0.
</event>
<event>
 5    0  0.5631475E-005  0.5937053E+03  0.7546771E-02  0.9918552E-01
         21   -1    0    0  502  501  0.00000000000E+00  0.00000000000E+00  0.15045086292E+04  0.15045086292E+04  0.00000000000E+00 0.  1.
         21   -1    0    0  501  502 -0.00000000000E+00 -0.00000000000E+00 -0.23428641686E+03  0.23428641686E+03  0.00000000000E+00 0.  1.
         25    1    1    2    0    0 -0.49932023851E+02 -0.30771381916E+02  0.13186698041E+03  0.19092926825E+03  0.12500000000E+03 0.  0.
         25    1    1    2    0    0 -0.46031881767E+03  0.45130746010E+02  0.76706906774E+03  0.90440596682E+03  0.12500000000E+03 0.  0.
         25    1    1    2    0    0  0.51025084152E+03 -0.14359364094E+02  0.37128616414E+03  0.64345981094E+03  0.12500000000E+03 0.  0.
</event>
<event>
 5    0  0.5631475E-005  0.3299001E+03  0.7546771E-02  0.1071181E+00
         21   -1    0    0  502  501  0.00000000000E+00  0.00000000000E+00  0.19962272367E+03  0.19962272367E+03  0.00000000000E+00 0.  1.
         21   -1    0    0  501  502 -0.00000000000E+00 -0.00000000000E+00 -0.54519893714E+03  0.54519893714E+03  0.00000000000E+00 0.  1.
         25    1    1    2    0    0 -0.51570941546E+01  0.32410740757E+02 -0.26262066351E+01  0.12926309875E+03  0.12500000000E+03 0.  0.
         25    1    1    2    0    0 -0.12145642128E+03 -0.17811363415E+03 -0.70406167860E+02  0.25895589859E+03  0.12500000000E+03 0.  0.
         25    1    1    2    0    0  0.12661351543E+03  0.14570289339E+03 -0.27254383897E+03  0.35660266347E+03  0.12500000000E+03 0.  0.
</event>
<event>
 5    0  0.5631475E-005  0.2980221E+03  0.7546771E-02  0.1086234E+00
         21   -1    0    0  502  501  0.00000000000E+00  0.00000000000E+00  0.25439763331E+03  0.25439763331E+03  0.00000000000E+00 0.  1.
         21   -1    0    0  501  502 -0.00000000000E+00 -0.00000000000E+00 -0.34912746850E+03  0.34912746850E+03  0.00000000000E+00 0.  1.
         25    1    1    2    0    0  0.15318433860E+02 -0.40787665003E+02 -0.71050314619E+01  0.13256609485E+03  0.12500000000E+03 0.  0.
         25    1    1    2    0    0  0.78544717479E+02 -0.48183510333E+02 -0.20425902419E+03  0.25658852717E+03  0.12500000000E+03 0.  0.
         25    1    1    2    0    0 -0.93863151339E+02  0.88971175336E+02  0.11663422046E+03  0.21437047978E+03  0.12500000000E+03 0.  0.
</event>
<event>
 5    0  0.5631475E-005  0.2402835E+03  0.7546771E-02  0.1119604E+00
         21   -1    0    0  502  501  0.00000000000E+00  0.00000000000E+00  0.93866510206E+02  0.93866510206E+02  0.00000000000E+00 0. -1.
         21   -1    0    0  501  502 -0.00000000000E+00 -0.00000000000E+00 -0.61508811935E+03  0.61508811935E+03  0.00000000000E+00 0. -1.
         25    1    1    2    0    0  0.50473516530E+02  0.59154774592E+02 -0.34703777964E+03  0.37697093220E+03  0.12500000000E+03 0.  0.
         25    1    1    2    0    0 -0.38593125104E+02 -0.77700769079E+02 -0.12083948023E+03  0.19430393409E+03  0.12500000000E+03 0.  0.
         25    1    1    2    0    0 -0.11880391427E+02  0.18545994487E+02 -0.53344349267E+02  0.13767976326E+03  0.12500000000E+03 0.  0.
</event>
<event>
 5    0  0.5631475E-005  0.3357282E+03  0.7546771E-02  0.1068630E+00
         21   -1    0    0  502  501  0.00000000000E+00  0.00000000000E+00  0.12488477336E+03  0.12488477336E+03  0.00000000000E+00 0.  1.
         21   -1    0    0  501  502 -0.00000000000E+00 -0.00000000000E+00 -0.90253957786E+03  0.90253957786E+03  0.00000000000E+00 0. -1.
         25    1    1    2    0    0 -0.11355394380E+03 -0.21093569717E+03 -0.52915717469E+03  0.59415543591E+03  0.12500000000E+03 0.  0.
         25    1    1    2    0    0  0.31143975036E+02  0.13601944361E+03 -0.13782784922E+03  0.23257848620E+03  0.12500000000E+03 0.  0.
         25    1    1    2    0    0  0.82409968760E+02  0.74916253569E+02 -0.11066978059E+03  0.20069042911E+03  0.12500000000E+03 0.  0.
</event>
<event>
 5    0  0.5631475E-005  0.2776840E+03  0.7546771E-02  0.1096961E+00
         21   -1    0    0  502  501  0.00000000000E+00  0.00000000000E+00  0.13418493272E+03  0.13418493272E+03  0.00000000000E+00 0. -1.
         21   -1    0    0  501  502 -0.00000000000E+00 -0.00000000000E+00 -0.57464270230E+03  0.57464270230E+03  0.00000000000E+00 0. -1.
         25    1    1    2    0    0 -0.58706501687E+02 -0.45983885933E+02  0.39020840392E+01  0.14560630950E+03  0.12500000000E+03 0.  0.
         25    1    1    2    0    0  0.11131189043E+03 -0.49674257622E+02 -0.27768722286E+03  0.32801381459E+03  0.12500000000E+03 0.  0.
         25    1    1    2    0    0 -0.52605388740E+02  0.95658143556E+02 -0.16667263076E+03  0.23520751093E+03  0.12500000000E+03 0.  0.
</event>
<event>
 5    0  0.5631475E-005  0.3197971E+03  0.7546771E-02  0.1075743E+00
         21   -1    0    0  502  501  0.00000000000E+00  0.00000000000E+00  0.82629707756E+03  0.82629707756E+03  0.00000000000E+00 0. -1.
         21   -1    0    0  501  502 -0.00000000000E+00 -0.00000000000E+00 -0.12376927966E+03  0.12376927966E+03  0.00000000000E+00 0. -1.
         25    1    1    2    0    0  0.19338983294E+03 -0.73301678256E+02  0.31192290945E+03  0.39458036565E+03  0.12500000000E+03 0.  0.
         25    1    1    2    0    0 -0.17758602705E+03  0.31140079424E+02  0.11089191320E+03  0.24582212668E+03  0.12500000000E+03 0.  0.
         25    1    1    2    0    0 -0.15803805890E+02  0.42161598832E+02  0.27971297526E+03  0.30966386490E+03  0.12500000000E+03 0.  0.
</event>
<event>
 5    0  0.5631475E-005  0.2821752E+03  0.7546771E-02  0.1094507E+00
         21   -1    0    0  502  501  0.00000000000E+00  0.00000000000E+00  0.60019841263E+03  0.60019841263E+03  0.00000000000E+00 0.  1.
         21   -1    0    0  501  502 -0.00000000000E+00 -0.00000000000E+00 -0.13266083884E+03  0.13266083884E+03  0.00000000000E+00 0.  1.
         25    1    1    2    0    0 -0.10601993890E+03 -0.59036385805E+02  0.34820325120E+03  0.38935334394E+03  0.12500000000E+03 0.  0.
         25    1    1    2    0    0  0.34771706326E+02 -0.51131064666E+02  0.68054733811E+02  0.15517700902E+03  0.12500000000E+03 0.  0.
         25    1    1    2    0    0  0.71248232576E+02  0.11016745047E+03  0.51279588786E+02  0.18832889851E+03  0.12500000000E+03 0.  0.
</event>
<event>
 5    0  0.5631475E-005  0.3135063E+03  0.7546771E-02  0.1078677E+00
         21   -1    0    0  502  501  0.00000000000E+00  0.00000000000E+00  0.20523499132E+04  0.20523499132E+04  0.00000000000E+00 0. -1.
         21   -1    0    0  501  502 -0.00000000000E+00 -0.00000000000E+00 -0.47889595961E+02  0.47889595961E+02  0.00000000000E+00 0. -1.
         25    1    1    2    0    0  0.25793299236E+02  0.18513586909E+03  0.88225635374E+03  0.91046244186E+03  0.12500000000E+03 0.  0.
         25    1    1    2    0    0  0.67821606586E+02 -0.55903896780E+02  0.23948691308E+03  0.28408449013E+03  0.12500000000E+03 0.  0.
         25    1    1    2    0    0 -0.93614905822E+02 -0.12923197231E+03  0.88271705046E+03  0.90569257722E+03  0.12500000000E+03 0.  0.
</event>
<event>
 5    0  0.5631475E-005  0.2196728E+03  0.7546771E-02  0.1134127E+00
         21   -1    0    0  502  501  0.00000000000E+00  0.00000000000E+00  0.56933026054E+03  0.56933026054E+03  0.00000000000E+00 0. -1.
         21   -1    0    0  501  502 -0.00000000000E+00 -0.00000000000E+00 -0.84759494935E+02  0.84759494935E+02  0.00000000000E+00 0. -1.
         25    1    1    2    0    0  0.15887610928E+02 -0.18719270538E+02  0.25880557320E+03  0.28845823266E+03  0.12500000000E+03 0.  0.
         25    1    1    2    0    0  0.14977990827E+02 -0.23641433110E+02  0.37165431228E+02  0.13337738507E+03  0.12500000000E+03 0.  0.
         25    1    1    2    0    0 -0.30865601755E+02  0.42360703648E+02  0.18859976117E+03  0.23225413775E+03  0.12500000000E+03 0.  0.
</event>
<event>
 5    0  0.5631475E-005  0.3721664E+03  0.7546771E-02  0.1053868E+00
         21   -1    0    0  502  501  0.00000000000E+00  0.00000000000E+00  0.11589931059E+03  0.11589931059E+03  0.00000000000E+00 0. -1.
         21   -1    0    0  501  502 -0.00000000000E+00 -0.00000000000E+00 -0.11950703093E+04  0.11950703093E+04  0.00000000000E+00 0. -1.
         25    1    1    2    0    0  0.64230049256E+02 -0.53672283859E+02 -0.49316385151E+03  0.51559848498E+03  0.12500000000E+03 0.  0.
         25    1    1    2    0    0 -0.25678816688E+03  0.64781815828E+02 -0.41927459717E+03  0.51142255928E+03  0.12500000000E+03 0.  0.
         25    1    1    2    0    0  0.19255811762E+03 -0.11109531969E+02 -0.16673255003E+03  0.28394857563E+03  0.12500000000E+03 0.  0.
</event>
<event>
 5    0  0.5631475E-005  0.2332777E+03  0.7546771E-02  0.1124354E+00
         21   -1    0    0  502  501  0.00000000000E+00  0.00000000000E+00  0.11329698229E+03  0.11329698229E+03  0.00000000000E+00 0. -1.
         21   -1    0    0  501  502 -0.00000000000E+00 -0.00000000000E+00 -0.48031720560E+03  0.48031720560E+03  0.00000000000E+00 0. -1.
         25    1    1    2    0    0 -0.14367769997E+02  0.44997070383E+02 -0.28472467214E+01  0.13365730796E+03  0.12500000000E+03 0.  0.
         25    1    1    2    0    0 -0.78798505168E+01  0.31029803893E+02 -0.20826086120E+03  0.24499495318E+03  0.12500000000E+03 0.  0.
         25    1    1    2    0    0  0.22247620514E+02 -0.76026874277E+02 -0.15591211538E+03  0.21496192675E+03  0.12500000000E+03 0.  0.
</event>
<event>
 5    0  0.5631475E-005  0.2621854E+03  0.7546771E-02  0.1105837E+00
         21   -1    0    0  502  501  0.00000000000E+00  0.00000000000E+00  0.36583809098E+03  0.36583809098E+03  0.00000000000E+00 0. -1.
         21   -1    0    0  501  502 -0.00000000000E+00 -0.00000000000E+00 -0.18790049930E+03  0.18790049930E+03  0.00000000000E+00 0. -1.
         25    1    1    2    0    0  0.87195489164E+02  0.31404000716E+02  0.63846870428E+02  0.16819835747E+03  0.12500000000E+03 0.  0.
         25    1    1    2    0    0  0.97832875334E+01 -0.43343945277E+02 -0.63773782622E+02  0.14719546752E+03  0.12500000000E+03 0.  0.
         25    1    1    2    0    0 -0.96978776697E+02  0.11939944560E+02  0.17786450388E+03  0.23834476530E+03  0.12500000000E+03 0.  0.
</event>
<event>
 5    0  0.5631475E-005  0.3889540E+03  0.7546771E-02  0.1047673E+00
         21   -1    0    0  502  501  0.00000000000E+00  0.00000000000E+00  0.41020616618E+03  0.41020616618E+03  0.00000000000E+00 0.  1.
         21   -1    0    0  501  502 -0.00000000000E+00 -0.00000000000E+00 -0.36880289165E+03  0.36880289165E+03  0.00000000000E+00 0.  1.
         25    1    1    2    0    0 -0.21110077931E+03 -0.17079090103E+03 -0.16336381401E+03  0.34065496712E+03  0.12500000000E+03 0.  0.
         25    1    1    2    0    0  0.13246596217E+03  0.32003991816E+02  0.99062177342E+02  0.20978513199E+03  0.12500000000E+03 0.  0.
         25    1    1    2    0    0  0.78634817140E+02  0.13878690921E+03  0.10570491120E+03  0.22856895871E+03  0.12500000000E+03 0.  0.
</event>
<event>
 5    0  0.5631475E-005  0.5602069E+03  0.7546771E-02  0.9991587E-01
         21   -1    0    0  502  501  0.00000000000E+00  0.00000000000E+00  0.28591962650E+03  0.28591962650E+03  0.00000000000E+00 0. -1.
         21   -1    0    0  501  502 -0.00000000000E+00 -0.00000000000E+00 -0.10976223936E+04  0.10976223936E+04  0.00000000000E+00 0. -1.
         25    1    1    2    0    0  0.49408536660E+03  0.29687923010E+02 -0.24938700342E+03  0.56817303679E+03  0.12500000000E+03 0.  0.
         25    1    1    2    0    0 -0.23098142929E+03 -0.75032038177E+02 -0.15982577220E+03  0.31646722562E+03  0.12500000000E+03 0.  0.
         25    1    1    2    0    0 -0.26310393730E+03  0.45344115168E+02 -0.40248999151E+03  0.49890175774E+03  0.12500000000E+03 0.  0.
</event>
<event>
 5    0  0.5631475E-005  0.3282485E+03  0.7546771E-02  0.1071914E+00
         21   -1    0    0  502  501  0.00000000000E+00  0.00000000000E+00  0.49649344279E+03  0.49649344279E+03  0.00000000000E+00 0. -1.
         21   -1    0    0  501  502 -0.00000000000E+00 -0.00000000000E+00 -0.21701611894E+03  0.21701611894E+03  0.00000000000E+00 0. -1.
         25    1    1    2    0    0 -0.31187546205E+02  0.37601155610E+02 -0.11666625779E+03  0.17782723540E+03  0.12500000000E+03 0.  0.
         25    1    1    2    0    0  0.73639715585E+01 -0.13501668000E+03  0.13142053685E+03  0.22623016921E+03  0.12500000000E+03 0.  0.
         25    1    1    2    0    0  0.23823574647E+02  0.97415524387E+02  0.26472304480E+03  0.30945215712E+03  0.12500000000E+03 0.  0.
</event>
<event>
 5    0  0.5631475E-005  0.4040953E+03  0.7546771E-02  0.1042371E+00
         21   -1    0    0  502  501  0.00000000000E+00  0.00000000000E+00  0.49087016032E+03  0.49087016032E+03  0.00000000000E+00 0.  1.
         21   -1    0    0  501  502 -0.00000000000E+00 -0.00000000000E+00 -0.33266028905E+03  0.33266028905E+03  0.00000000000E+00 0. -1.
         25    1    1    2    0    0 -0.19541005103E+03  0.78969269465E+02 -0.17647099569E+03  0.30197391590E+03  0.12500000000E+03 0.  0.
         25    1    1    2    0    0  0.52423527584E+02 -0.12138793198E+02  0.61368985755E+01  0.13622862426E+03  0.12500000000E+03 0.  0.
         25    1    1    2    0    0  0.14298652345E+03 -0.66830476267E+02  0.32854396839E+03  0.38532790921E+03  0.12500000000E+03 0.  0.
</event>
<event>
 5    0  0.5631475E-005  0.4395594E+03  0.7546771E-02  0.1030882E+00
         21   -1    0    0  502  501  0.00000000000E+00  0.00000000000E+00  0.22647028286E+03  0.22647028286E+03  0.00000000000E+00 0.  1.
         21   -1    0    0  501  502 -0.00000000000E+00 -0.00000000000E+00 -0.85314707535E+03  0.85314707535E+03  0.00000000000E+00 0.  1.
         25    1    1    2    0    0  0.20572858734E+03  0.22261610390E+03 -0.12321498908E+03  0.35027005996E+03  0.12500000000E+03 0.  0.
         25    1    1    2    0    0  0.75870696987E+02 -0.15233469853E+02 -0.20828033879E+03  0.25493944534E+03  0.12500000000E+03 0.  0.
         25    1    1    2    0    0 -0.28159928433E+03 -0.20738263405E+03 -0.29518146462E+03  0.47440785290E+03  0.12500000000E+03 0.  0.
</event>
<event>
 5    0  0.5631475E-005  0.3058955E+03  0.7546771E-02  0.1082330E+00
         21   -1    0    0  502  501  0.00000000000E+00  0.00000000000E+00  0.13266787998E+04  0.13266787998E+04  0.00000000000E+00 0. -1.
         21   -1    0    0  501  502 -0.00000000000E+00 -0.00000000000E+00 -0.70531042281E+02  0.70531042281E+02  0.00000000000E+00 0. -1.
         25    1    1    2    0    0  0.32979747647E+02 -0.94169713310E+02  0.10041177730E+04  0.10167758360E+04  0.12500000000E+03 0.  0.
         25    1    1    2    0    0 -0.47226724542E+02  0.21046522045E+02  0.89082204715E+02  0.16196900567E+03  0.12500000000E+03 0.  0.
         25    1    1    2    0    0  0.14246976895E+02  0.73123191264E+02  0.16294777979E+03  0.21846500038E+03  0.12500000000E+03 0.  0.
</event>
<event>
 5    0  0.5631475E-005  0.4038303E+03  0.7546771E-02  0.1042461E+00
         21   -1    0    0  502  501  0.00000000000E+00  0.00000000000E+00  0.38001256506E+03  0.38001256506E+03  0.00000000000E+00 0.  1.
         21   -1    0    0  501  502 -0.00000000000E+00 -0.00000000000E+00 -0.42914084986E+03  0.42914084986E+03  0.00000000000E+00 0.  1.
         25    1    1    2    0    0  0.12057317641E+03 -0.21789884605E+03 -0.13293423096E+03  0.30873015360E+03  0.12500000000E+03 0.  0.
         25    1    1    2    0    0 -0.16930120310E+03 -0.19796980600E+02 -0.10524727865E+02  0.21163786927E+03  0.12500000000E+03 0.  0.
         25    1    1    2    0    0  0.48728026694E+02  0.23769582665E+03  0.94330674033E+02  0.28878539204E+03  0.12500000000E+03 0.  0.
</event>
<event>
 5    0  0.6009989E-005  0.2436736E+03  0.7546771E-02  0.1117370E+00
         21   -1    0    0  502  501  0.00000000000E+00  0.00000000000E+00  0.13540386552E+03  0.13540386552E+03  0.00000000000E+00 0.  1.
         21   -1    0    0  501  502 -0.00000000000E+00 -0.00000000000E+00 -0.43851631852E+03  0.43851631852E+03  0.00000000000E+00 0.  1.
         25    1    1    2    0    0 -0.16396888855E+01  0.10492789449E+03 -0.79595235636E+02  0.18158456200E+03  0.12500000000E+03 0.  0.
         25    1    1    2    0    0 -0.64118553508E+02  0.69024685649E+01 -0.78577938459E+02  0.16111587566E+03  0.12500000000E+03 0.  0.
         25    1    1    2    0    0  0.65758242394E+02 -0.11183036305E+03 -0.14493927891E+03  0.23121974637E+03  0.12500000000E+03 0.  0.
</event>
<event>
 5    0  0.7504475E-005  0.4079286E+03  0.7546771E-02  0.1041068E+00
         21   -1    0    0  502  501  0.00000000000E+00  0.00000000000E+00  0.36123179279E+03  0.36123179279E+03  0.00000000000E+00 0.  1.
         21   -1    0    0  501  502 -0.00000000000E+00 -0.00000000000E+00 -0.46066193026E+03  0.46066193026E+03  0.00000000000E+00 0.  1.
         25    1    1    2    0    0  0.11976069537E+03 -0.19461438809E+03 -0.14908851694E+03  0.30011626096E+03  0.12500000000E+03 0.  0.
         25    1    1    2    0    0  0.17318021941E+02  0.14415029242E+03  0.20056980957E+03  0.27736702976E+03  0.12500000000E+03 0.  0.
         25    1    1    2    0    0 -0.13707871732E+03  0.50464095673E+02 -0.15091143011E+03  0.24441043233E+03  0.12500000000E+03 0.  0.
</event>
<event>
 5    0  0.5631475E-005  0.2772403E+03  0.7546771E-02  0.1097206E+00
         21   -1    0    0  502  501  0.00000000000E+00  0.00000000000E+00  0.14490027572E+04  0.14490027572E+04  0.00000000000E+00 0.  1.
         21   -1    0    0  501  502 -0.00000000000E+00 -0.00000000000E+00 -0.53044894402E+02  0.53044894402E+02  0.00000000000E+00 0.  1.
         25    1    1    2    0    0  0.58283980587E+02 -0.57207902843E+02  0.36229378228E+03  0.39185654418E+03  0.12500000000E+03 0.  0.
         25    1    1    2    0    0  0.44737555048E+02  0.16351475157E+03  0.50646827775E+03  0.54851949754E+03  0.12500000000E+03 0.  0.
         25    1    1    2    0    0 -0.10302153564E+03 -0.10630684873E+03  0.52719580281E+03  0.56167160992E+03  0.12500000000E+03 0.  0.
</event>
<event>
 5    0  0.5631475E-005  0.2264861E+03  0.7546771E-02  0.1129138E+00
         21   -1    0    0  502  501  0.00000000000E+00  0.00000000000E+00  0.37153736396E+03  0.37153736396E+03  0.00000000000E+00 0. -1.
         21   -1    0    0  501  502 -0.00000000000E+00 -0.00000000000E+00 -0.13806409378E+03  0.13806409378E+03  0.00000000000E+00 0. -1.
         25    1    1    2    0    0  0.77935648260E+01  0.38874007479E+02  0.96505589457E+02  0.16281970675E+03  0.12500000000E+03 0.  0.
         25    1    1    2    0    0  0.81314795300E+01 -0.10584277220E+03  0.26062025458E+02  0.16605132507E+03  0.12500000000E+03 0.  0.
         25    1    1    2    0    0 -0.15925044356E+02  0.66968764718E+02  0.11090565526E+03  0.18073042592E+03  0.12500000000E+03 0.  0.
</event>
<event>
 5    0  0.5631475E-005  0.2945266E+03  0.7546771E-02  0.1088009E+00
         21   -1    0    0  502  501  0.00000000000E+00  0.00000000000E+00  0.12558769922E+04  0.12558769922E+04  0.00000000000E+00 0. -1.
         21   -1    0    0  501  502 -0.00000000000E+00 -0.00000000000E+00 -0.69071972437E+02  0.69071972437E+02  0.00000000000E+00 0. -1.
         25    1    1    2    0    0  0.41571461420E+02  0.52093909977E+02  0.26049073500E+03  0.29651709037E+03  0.12500000000E+03 0.  0.
         25    1    1    2    0    0  0.13731260160E+03 -0.74553476792E+02  0.26754394406E+03  0.33409240258E+03  0.12500000000E+03 0.  0.
         25    1    1    2    0    0 -0.17888406303E+03  0.22459566815E+02  0.65877034072E+03  0.69433947169E+03  0.12500000000E+03 0.  0.
</event>
<event>
 5    0  0.5631475E-005  0.3089543E+03  0.7546771E-02  0.1080848E+00
         21   -1    0    0  502  501  0.00000000000E+00  0.00000000000E+00  0.94530304109E+02  0.94530304109E+02  0.00000000000E+00 0.  1.
         21   -1    0    0  501  502 -0.00000000000E+00 -0.00000000000E+00 -0.10097579795E+04  0.10097579795E+04  0.00000000000E+00 0.  1.
         25    1    1    2    0    0 -0.17060819603E+03 -0.10859473418E+02 -0.37789318795E+03  0.43318973466E+03  0.12500000000E+03 0.  0.
         25    1    1    2    0    0  0.14375762752E+03  0.12707092203E+03 -0.31865676279E+03  0.39240337303E+03  0.12500000000E+03 0.  0.
         25    1    1    2    0    0  0.26850568517E+02 -0.11621144861E+03 -0.21867772463E+03  0.27869517590E+03  0.12500000000E+03 0.  0.
</event>
<event>
 5    0  0.5631475E-005  0.2149414E+03  0.7546771E-02  0.1137712E+00
         21   -1    0    0  502  501  0.00000000000E+00  0.00000000000E+00  0.40501923051E+03  0.40501923051E+03  0.00000000000E+00 0.  1.
         21   -1    0    0  501  502 -0.00000000000E+00 -0.00000000000E+00 -0.11406819463E+03  0.11406819463E+03  0.00000000000E+00 0.  1.
         25    1    1    2    0    0  0.57446925468E+02  0.73321762798E+02  0.12974461775E+03  0.20281739565E+03  0.12500000000E+03 0.  0.
         25    1    1    2    0    0 -0.25906311970E+02 -0.14347336778E+02  0.95197542949E+02  0.15988919681E+03  0.12500000000E+03 0.  0.
         25    1    1    2    0    0 -0.31540613498E+02 -0.58974426019E+02  0.66008875185E+02  0.15638083267E+03  0.12500000000E+03 0.  0.
</event>
<event>
 5    0  0.5631475E-005  0.3438956E+03  0.7546771E-02  0.1065149E+00
         21   -1    0    0  502  501  0.00000000000E+00  0.00000000000E+00  0.12239863336E+04  0.12239863336E+04  0.00000000000E+00 0. -1.
         21   -1    0    0  501  502 -0.00000000000E+00 -0.00000000000E+00 -0.96622171976E+02  0.96622171976E+02  0.00000000000E+00 0. -1.
         25    1    1    2    0    0 -0.23691962943E+03 -0.95257671306E+02  0.38493913630E+03  0.47854787995E+03  0.12500000000E+03 0.  0.
         25    1    1    2    0    0  0.17014570819E+02 -0.15521646483E+01  0.25203173519E+03  0.28184552574E+03  0.12500000000E+03 0.  0.
         25    1    1    2    0    0  0.21990505861E+03  0.96809835955E+02  0.49039329016E+03  0.56021509992E+03  0.12500000000E+03 0.  0.
</event>
<event>
 5    0  0.5631475E-005  0.3242912E+03  0.7546771E-02  0.1073691E+00
         21   -1    0    0  502  501  0.00000000000E+00  0.00000000000E+00  0.12676753145E+04  0.12676753145E+04  0.00000000000E+00 0. -1.
         21   -1    0    0  501  502 -0.00000000000E+00 -0.00000000000E+00 -0.82958784475E+02  0.82958784475E+02  0.00000000000E+00 0. -1.
         25    1    1    2    0    0 -0.75387945494E+02  0.22240699313E+03  0.39644055737E+03  0.47742887266E+03  0.12500000000E+03 0.  0.
         25    1    1    2    0    0  0.11652083952E+03 -0.13134662015E+03  0.44322496911E+03  0.49285131015E+03  0.12500000000E+03 0.  0.
         25    1    1    2    0    0 -0.41132894023E+02 -0.91060372981E+02  0.34505100350E+03  0.38035391612E+03  0.12500000000E+03 0.  0.
</event>
<event>
 5    0  0.5631475E-005  0.2513833E+03  0.7546771E-02  0.1112434E+00
         21   -1    0    0  502  501  0.00000000000E+00  0.00000000000E+00  0.49745689950E+03  0.49745689950E+03  0.00000000000E+00 0.  1.
         21   -1    0    0  501  502 -0.00000000000E+00 -0.00000000000E+00 -0.12703327171E+03  0.12703327171E+03  0.00000000000E+00 0.  1.
         25    1    1    2    0    0 -0.14946619835E+00  0.31667186223E+02  0.23229127269E+03  0.26568226962E+03  0.12500000000E+03 0.  0.
         25    1    1    2    0    0  0.23551975290E+02 -0.11902382630E+03  0.95865698477E+02  0.19883812238E+03  0.12500000000E+03 0.  0.
         25    1    1    2    0    0 -0.23402509091E+02  0.87356640075E+02  0.42266656623E+02  0.15996977921E+03  0.12500000000E+03 0.  0.
</event>
<event>
 5    0  0.5631475E-005  0.2785905E+03  0.7546771E-02  0.1096461E+00
         21   -1    0    0  502  501  0.00000000000E+00  0.00000000000E+00  0.24327877648E+03  0.24327877648E+03  0.00000000000E+00 0.  1.
         21   -1    0    0  501  502 -0.00000000000E+00 -0.00000000000E+00 -0.31902768495E+03  0.31902768495E+03  0.00000000000E+00 0.  1.
         25    1    1    2    0    0  0.15590158760E+03  0.50224912295E+02 -0.11533666508E+03  0.23612579940E+03  0.12500000000E+03 0.  0.
         25    1    1    2    0    0 -0.11895045439E+03 -0.65604361933E+02  0.58327782965E+02  0.19359822616E+03  0.12500000000E+03 0.  0.
         25    1    1    2    0    0 -0.36951133204E+02  0.15379449638E+02 -0.18740026352E+02  0.13258243588E+03  0.12500000000E+03 0.  0.
</event>
<event>
 5    0  0.5631475E-005  0.4153443E+03  0.7546771E-02  0.1038592E+00
         21   -1    0    0  502  501  0.00000000000E+00  0.00000000000E+00  0.19543837229E+03  0.19543837229E+03  0.00000000000E+00 0. -1.
         21   -1    0    0  501  502 -0.00000000000E+00 -0.00000000000E+00 -0.88268677971E+03  0.88268677971E+03  0.00000000000E+00 0. -1.
         25    1    1    2    0    0 -0.27366190188E+03 -0.21117890388E+02 -0.20567216144E+02  0.30229920975E+03  0.12500000000E+03 0.  0.
         25    1    1    2    0    0  0.12890677222E+03 -0.57528504673E+02 -0.35109162216E+03  0.39851827051E+03  0.12500000000E+03 0.  0.
         25    1    1    2    0    0  0.14475512967E+03  0.78646395061E+02 -0.31558956911E+03  0.37730767174E+03  0.12500000000E+03 0.  0.
</event>
<event>
 5    0  0.5631475E-005  0.2551529E+03  0.7546771E-02  0.1110091E+00
         21   -1    0    0  502  501  0.00000000000E+00  0.00000000000E+00  0.12235894763E+03  0.12235894763E+03  0.00000000000E+00 0.  1.
         21   -1    0    0  501  502 -0.00000000000E+00 -0.00000000000E+00 -0.53206568178E+03  0.53206568178E+03  0.00000000000E+00 0.  1.
         25    1    1    2    0    0 -0.39627625907E+02 -0.53354824139E+02 -0.55326046781E+02  0.15199689946E+03  0.12500000000E+03 0.  0.
         25    1    1    2    0    0 -0.75639429319E+02  0.52756333193E+02 -0.68428691347E+02  0.16974109626E+03  0.12500000000E+03 0.  0.
         25    1    1    2    0    0  0.11526705523E+03  0.59849094534E+00 -0.28595199602E+03  0.33268663369E+03  0.12500000000E+03 0.  0.
</event>
<event>
 5    0  0.5631475E-005  0.2980256E+03  0.7546771E-02  0.1086232E+00
         21   -1    0    0  502  501  0.00000000000E+00  0.00000000000E+00  0.10230083760E+04  0.10230083760E+04  0.00000000000E+00 0. -1.
         21   -1    0    0  501  502 -0.00000000000E+00 -0.00000000000E+00 -0.86821641943E+02  0.86821641943E+02  0.00000000000E+00 0. -1.
         25    1    1    2    0    0 -0.96600187963E+02 -0.16925298431E+02  0.25033925932E+03  0.29650093895E+03  0.12500000000E+03 0.  0.
         25    1    1    2    0    0 -0.28207148776E+00 -0.14492565801E+03  0.19706454956E+03  0.27470522858E+03  0.12500000000E+03 0.  0.
         25    1    1    2    0    0  0.96882259451E+02  0.16185095644E+03  0.48878292520E+03  0.53862385044E+03  0.12500000000E+03 0.  0.
</event>
<event>
 5    0  0.5631475E-005  0.2820538E+03  0.7546771E-02  0.1094572E+00
         21   -1    0    0  502  501  0.00000000000E+00  0.00000000000E+00  0.33319119276E+03  0.33319119276E+03  0.00000000000E+00 0. -1.
         21   -1    0    0  501  502 -0.00000000000E+00 -0.00000000000E+00 -0.23876485339E+03  0.23876485339E+03  0.00000000000E+00 0. -1.
         25    1    1    2    0    0 -0.13258793388E+03  0.10418933389E+03  0.54685204482E+02  0.21691115485E+03  0.12500000000E+03 0.  0.
         25    1    1    2    0    0  0.13419745026E+03 -0.36565183629E+02 -0.41191943844E+02  0.19148823606E+03  0.12500000000E+03 0.  0.
         25    1    1    2    0    0 -0.16095163845E+01 -0.67624150262E+02  0.80933078738E+02  0.16355665525E+03  0.12500000000E+03 0.  0.
</event>
<event>
 5    0  0.5631475E-005  0.3473010E+03  0.7546771E-02  0.1063728E+00
         21   -1    0    0  502  501  0.00000000000E+00  0.00000000000E+00  0.23437943657E+03  0.23437943657E+03  0.00000000000E+00 0.  1.
         21   -1    0    0  501  502 -0.00000000000E+00 -0.00000000000E+00 -0.51462706672E+03  0.51462706672E+03  0.00000000000E+00 0.  1.
         25    1    1    2    0    0  0.15798658031E+03  0.16888807562E+03 -0.23994706928E+03  0.35592490459E+03  0.12500000000E+03 0.  0.
         25    1    1    2    0    0 -0.17673845951E+03 -0.14954461927E+03 -0.24708724173E+02  0.26426425652E+03  0.12500000000E+03 0.  0.
         25    1    1    2    0    0  0.18751879195E+02 -0.19343456350E+02 -0.15591836686E+02  0.12881734219E+03  0.12500000000E+03 0.  0.
</event>
<event>
 5    0  0.5631475E-005  0.2362897E+03  0.7546771E-02  0.1122289E+00
         21   -1    0    0  502  501  0.00000000000E+00  0.00000000000E+00  0.51667145197E+03  0.51667145197E+03  0.00000000000E+00 0. -1.
         21   -1    0    0  501  502 -0.00000000000E+00 -0.00000000000E+00 -0.10806255036E+03  0.10806255036E+03  0.00000000000E+00 0. -1.
         25    1    1    2    0    0  0.19031065358E+02 -0.60601495807E+02  0.31671762632E+02  0.14374568964E+03  0.12500000000E+03 0.  0.
         25    1    1    2    0    0 -0.57086969502E+02  0.50394538431E+02  0.10827804315E+03  0.18206500547E+03  0.12500000000E+03 0.  0.
         25    1    1    2    0    0  0.38055904144E+02  0.10206957375E+02  0.26865909584E+03  0.29892330722E+03  0.12500000000E+03 0.  0.
</event>
<event>
 5    0  0.5631475E-005  0.4166780E+03  0.7546771E-02  0.1038153E+00
         21   -1    0    0  502  501  0.00000000000E+00  0.00000000000E+00  0.29321905684E+03  0.29321905684E+03  0.00000000000E+00 0.  1.
         21   -1    0    0  501  502 -0.00000000000E+00 -0.00000000000E+00 -0.59211886087E+03  0.59211886087E+03  0.00000000000E+00 0. -1.
         25    1    1    2    0    0  0.72019806303E+02 -0.13750859001E+02 -0.60109582270E+02  0.15688881574E+03  0.12500000000E+03 0.  0.
         25    1    1    2    0    0  0.22518371819E+03 -0.58829454985E+01 -0.30445621433E+03  0.39882440049E+03  0.12500000000E+03 0.  0.
         25    1    1    2    0    0 -0.29720352449E+03  0.19633804500E+02  0.65665992566E+02  0.32962470149E+03  0.12500000000E+03 0.  0.
</event>
<event>
 5    0  0.5631475E-005  0.3380290E+03  0.7546771E-02  0.1067638E+00
         21   -1    0    0  502  501  0.00000000000E+00  0.00000000000E+00  0.14624279695E+04  0.14624279695E+04  0.00000000000E+00 0.  1.
         21   -1    0    0  501  502 -0.00000000000E+00 -0.00000000000E+00 -0.78132824922E+02  0.78132824922E+02  0.00000000000E+00 0.  1.
         25    1    1    2    0    0 -0.76026017486E+02  0.18586399997E+03  0.46900307783E+03  0.52527542189E+03  0.12500000000E+03 0.  0.
         25    1    1    2    0    0  0.15734339281E+03 -0.10911105698E+03  0.29803446270E+03  0.37564838210E+03  0.12500000000E+03 0.  0.
         25    1    1    2    0    0 -0.81317375327E+02 -0.76752942992E+02  0.61725760409E+03  0.63963699048E+03  0.12500000000E+03 0.  0.
</event>
<event>
 5    0  0.5631475E-005  0.2537728E+03  0.7546771E-02  0.1110943E+00
         21   -1    0    0  502  501  0.00000000000E+00  0.00000000000E+00  0.92369360126E+02  0.92369360126E+02  0.00000000000E+00 0. -1.
         21   -1    0    0  501  502 -0.00000000000E+00 -0.00000000000E+00 -0.69720785452E+03  0.69720785452E+03  0.00000000000E+00 0. -1.
         25    1    1    2    0    0 -0.13061875914E+03  0.71568177837E+02 -0.23515638028E+03  0.30513404842E+03  0.12500000000E+03 0.  0.
         25    1    1    2    0    0  0.12489893453E+03 -0.63203699706E+02 -0.22048297863E+03  0.28953789971E+03  0.12500000000E+03 0.  0.
         25    1    1    2    0    0  0.57198246125E+01 -0.83644781307E+01 -0.14919913548E+03  0.19490526652E+03  0.12500000000E+03 0.  0.
</event>
<event>
 5    0  0.5631475E-005  0.3539665E+03  0.7546771E-02  0.1060999E+00
         21   -1    0    0  502  501  0.00000000000E+00  0.00000000000E+00  0.25710558290E+03  0.25710558290E+03  0.00000000000E+00 0. -1.
         21   -1    0    0  501  502 -0.00000000000E+00 -0.00000000000E+00 -0.48731839362E+03  0.48731839362E+03  0.00000000000E+00 0. -1.
         25    1    1    2    0    0 -0.18593831110E+03 -0.11008494064E+03  0.16261517265E+02  0.25016232058E+03  0.12500000000E+03 0.  0.
         25    1    1    2    0    0  0.13730650366E+03  0.64841787269E+02 -0.28617791720E+03  0.34724679064E+03  0.12500000000E+03 0.  0.
         25    1    1    2    0    0  0.48631807447E+02  0.45243153376E+02  0.39703589209E+02  0.14701486530E+03  0.12500000000E+03 0.  0.
</event>
<event>
 5    0  0.5631475E-005  0.3520940E+03  0.7546771E-02  0.1061759E+00
         21   -1    0    0  502  501  0.00000000000E+00  0.00000000000E+00  0.10599580550E+04  0.10599580550E+04  0.00000000000E+00 0.  1.
         21   -1    0    0  501  502 -0.00000000000E+00 -0.00000000000E+00 -0.11695761746E+03  0.11695761746E+03  0.00000000000E+00 0.  1.
         25    1    1    2    0    0 -0.14594041733E+03 -0.16840972631E+03  0.66658118290E+03  0.71387387872E+03  0.12500000000E+03 0.  0.
         25    1    1    2    0    0  0.16356499249E+02  0.32289751858E+02  0.16837518788E+03  0.21280358793E+03  0.12500000000E+03 0.  0.
         25    1    1    2    0    0  0.12958391808E+03  0.13611997445E+03  0.10804406671E+03  0.25023820576E+03  0.12500000000E+03 0.  0.
</event>
<event>
 5    0  0.5631475E-005  0.4403582E+03  0.7546771E-02  0.1030637E+00
         21   -1    0    0  502  501  0.00000000000E+00  0.00000000000E+00  0.19569132270E+03  0.19569132270E+03  0.00000000000E+00 0. -1.
         21   -1    0    0  501  502 -0.00000000000E+00 -0.00000000000E+00 -0.99092469620E+03  0.99092469620E+03  0.00000000000E+00 0. -1.
         25    1    1    2    0    0 -0.67143685786E+02 -0.21226626427E+03 -0.18269256856E+03  0.31395352537E+03  0.12500000000E+03 0.  0.
         25    1    1    2    0    0 -0.14212043710E+03 -0.27757508860E+02 -0.25184591030E+02  0.19294548859E+03  0.12500000000E+03 0.  0.
         25    1    1    2    0    0  0.20926412289E+03  0.24002377313E+03 -0.58735621391E+03  0.67971700495E+03  0.12500000000E+03 0.  0.
</event>
<event>
 5    0  0.5631475E-005  0.2428694E+03  0.7546771E-02  0.1117896E+00
         21   -1    0    0  502  501  0.00000000000E+00  0.00000000000E+00  0.35179679818E+03  0.35179679818E+03  0.00000000000E+00 0.  1.
         21   -1    0    0  501  502 -0.00000000000E+00 -0.00000000000E+00 -0.16766936706E+03  0.16766936706E+03  0.00000000000E+00 0.  1.
         25    1    1    2    0    0  0.42948779624E+02 -0.67889028524E+02 -0.10078460545E+02  0.14892982654E+03  0.12500000000E+03 0.  0.
         25    1    1    2    0    0  0.46256449021E+01  0.10802197711E+03  0.15229959564E+03  0.22474499096E+03  0.12500000000E+03 0.  0.
         25    1    1    2    0    0 -0.47574424526E+02 -0.40132948586E+02  0.41906296017E+02  0.14579134774E+03  0.12500000000E+03 0.  0.
</event>
<event>
 5    0  0.5631475E-005  0.4610654E+03  0.7546771E-02  0.1024473E+00
         21   -1    0    0  502  501  0.00000000000E+00  0.00000000000E+00  0.16831271452E+04  0.16831271452E+04  0.00000000000E+00 0. -1.
         21   -1    0    0  501  502 -0.00000000000E+00 -0.00000000000E+00 -0.12630137745E+03  0.12630137745E+03  0.00000000000E+00 0. -1.
         25    1    1    2    0    0 -0.81595862757E+02 -0.57026236744E+02  0.31314084974E+03  0.35155663594E+03  0.12500000000E+03 0.  0.
         25    1    1    2    0    0  0.52245831515E+02 -0.32632787776E+03  0.64556846395E+03  0.73593692146E+03  0.12500000000E+03 0.  0.
         25    1    1    2    0    0  0.29350031243E+02  0.38335411450E+03  0.59811645403E+03  0.72193496523E+03  0.12500000000E+03 0.  0.
</event>
<event>
 5    0  0.5631475E-005  0.3480801E+03  0.7546771E-02  0.1063406E+00
         21   -1    0    0  502  501  0.00000000000E+00  0.00000000000E+00  0.15101070902E+03  0.15101070902E+03  0.00000000000E+00 0. -1.
         21   -1    0    0  501  502 -0.00000000000E+00 -0.00000000000E+00 -0.80232567820E+03  0.80232567820E+03  0.00000000000E+00 0. -1.
         25    1    1    2    0    0 -0.17412846921E+03  0.11656629681E+03 -0.33914784386E+03  0.41779742141E+03  0.12500000000E+03 0.  0.
         25    1    1    2    0    0  0.12845194926E+03 -0.13781521846E+03 -0.32955169781E+03  0.39965267325E+03  0.12500000000E+03 0.  0.
         25    1    1    2    0    0  0.45676519949E+02  0.21248921652E+02  0.17384572493E+02  0.13588629256E+03  0.12500000000E+03 0.  0.
</event>
<event>
 5    0  0.5631475E-005  0.3907711E+03  0.7546771E-02  0.1047023E+00
         21   -1    0    0  502  501  0.00000000000E+00  0.00000000000E+00  0.67932544379E+02  0.67932544379E+02  0.00000000000E+00 0. -1.
         21   -1    0    0  501  502 -0.00000000000E+00 -0.00000000000E+00 -0.22478481062E+04  0.22478481062E+04  0.00000000000E+00 0. -1.
         25    1    1    2    0    0 -0.12570224305E+03  0.80544762076E+02 -0.83415437642E+03  0.85657868075E+03  0.12500000000E+03 0.  0.
         25    1    1    2    0    0  0.30930362810E+02 -0.16734749969E+03 -0.12249473018E+04  0.12430135820E+04  0.12500000000E+03 0.  0.
         25    1    1    2    0    0  0.94771880241E+02  0.86802737617E+02 -0.12081388363E+03  0.21618838780E+03  0.12500000000E+03 0.  0.
</event>
<event>
 5    0  0.5631475E-005  0.2703027E+03  0.7546771E-02  0.1101107E+00
         21   -1    0    0  502  501  0.00000000000E+00  0.00000000000E+00  0.57081376929E+03  0.57081376929E+03  0.00000000000E+00 0.  1.
         21   -1    0    0  501  502 -0.00000000000E+00 -0.00000000000E+00 -0.12799890850E+03  0.12799890850E+03  0.00000000000E+00 0.  1.
         25    1    1    2    0    0  0.14144227387E+02  0.10953199515E+02  0.12042452406E+02  0.12684657034E+03  0.12500000000E+03 0.  0.
         25    1    1    2    0    0 -0.13440079904E+02 -0.17907369231E+02  0.42831807755E+03  0.44674677971E+03  0.12500000000E+03 0.  0.
         25    1    1    2    0    0 -0.70414748247E+00  0.69541697155E+01  0.24543308247E+01  0.12521932774E+03  0.12500000000E+03 0.  0.
</event>
<event>
 5    0  0.5631475E-005  0.2897674E+03  0.7546771E-02  0.1090471E+00
         21   -1    0    0  502  501  0.00000000000E+00  0.00000000000E+00  0.16281080439E+03  0.16281080439E+03  0.00000000000E+00 0.  1.
         21   -1    0    0  501  502 -0.00000000000E+00 -0.00000000000E+00 -0.51572209879E+03  0.51572209879E+03  0.00000000000E+00 0.  1.
         25    1    1    2    0    0  0.11952899394E+03  0.11749409879E+03 -0.17389349924E+03  0.27194851116E+03  0.12500000000E+03 0.  0.
         25    1    1    2    0    0 -0.76232093836E+02 -0.14077407042E+03 -0.28914099019E+02  0.20515773482E+03  0.12500000000E+03 0.  0.
         25    1    1    2    0    0 -0.43296900105E+02  0.23279971626E+02 -0.15010369613E+03  0.20142665720E+03  0.12500000000E+03 0.  0.
</event>
<event>
 5    0  0.5631475E-005  0.4190728E+03  0.7546771E-02  0.1037369E+00
         21   -1    0    0  502  501  0.00000000000E+00  0.00000000000E+00  0.14306317001E+04  0.14306317001E+04  0.00000000000E+00 0.  1.
         21   -1    0    0  501  502 -0.00000000000E+00 -0.00000000000E+00 -0.12275835280E+03  0.12275835280E+03  0.00000000000E+00 0.  1.
         25    1    1    2    0    0  0.92241234192E+02  0.14028674274E+03  0.25894845324E+03  0.33296864253E+03  0.12500000000E+03 0.  0.
         25    1    1    2    0    0  0.68594111337E+02  0.15562145086E+03  0.65083254767E+03  0.68420113503E+03  0.12500000000E+03 0.  0.
         25    1    1    2    0    0 -0.16083534553E+03 -0.29590819361E+03  0.39809234640E+03  0.53622027533E+03  0.12500000000E+03 0.  0.
</event>
<event>
 5    0  0.5941628E-005  0.2785416E+03  0.7546771E-02  0.1096488E+00
         21   -1    0    0  502  501  0.00000000000E+00  0.00000000000E+00  0.52335091009E+02  0.52335091009E+02  0.00000000000E+00 0.  1.
         21   -1    0    0  501  502 -0.00000000000E+00 -0.00000000000E+00 -0.14824741747E+04  0.14824741747E+04  0.00000000000E+00 0.  1.
         25    1    1    2    0    0 -0.14858062728E+03 -0.27134992192E+02 -0.87889822955E+03  0.90049964381E+03  0.12500000000E+03 0.  0.
         25    1    1    2    0    0  0.78997727252E+02  0.20095953699E+02 -0.16555561421E+03  0.22288595663E+03  0.12500000000E+03 0.  0.
         25    1    1    2    0    0  0.69582900027E+02  0.70390384931E+01 -0.38568523991E+03  0.41142366524E+03  0.12500000000E+03 0.  0.
</event>
<event>
 5    0  0.5631475E-005  0.2384594E+03  0.7546771E-02  0.1120823E+00
         21   -1    0    0  502  501  0.00000000000E+00  0.00000000000E+00  0.73098369379E+03  0.73098369379E+03  0.00000000000E+00 0.  1.
         21   -1    0    0  501  502 -0.00000000000E+00 -0.00000000000E+00 -0.77789561131E+02  0.77789561131E+02  0.00000000000E+00 0.  1.
         25    1    1    2    0    0 -0.25163930746E+02  0.15920479170E+00  0.18231990255E+03  0.22248324796E+03  0.12500000000E+03 0.  0.
         25    1    1    2    0    0 -0.16665518773E+02 -0.11682789579E+03  0.25859963090E+03  0.31052417917E+03  0.12500000000E+03 0.  0.
         25    1    1    2    0    0  0.41829449519E+02  0.11666869100E+03  0.21227459920E+03  0.27576582778E+03  0.12500000000E+03 0.  0.
</event>
<event>
 5    0  0.5631475E-005  0.3873529E+03  0.7546771E-02  0.1048249E+00
         21   -1    0    0  502  501  0.00000000000E+00  0.00000000000E+00  0.13236583359E+03  0.13236583359E+03  0.00000000000E+00 0. -1.
         21   -1    0    0  501  502 -0.00000000000E+00 -0.00000000000E+00 -0.11335420154E+04  0.11335420154E+04  0.00000000000E+00 0. -1.
         25    1    1    2    0    0 -0.92262195866E+02  0.56613008465E+02 -0.13955840223E+03  0.21637673892E+03  0.12500000000E+03 0.  0.
         25    1    1    2    0    0  0.11053060208E+03  0.22758035026E+03 -0.48473857308E+03  0.56089777505E+03  0.12500000000E+03 0.  0.
         25    1    1    2    0    0 -0.18268406212E+02 -0.28419335872E+03 -0.37687920649E+03  0.48863333502E+03  0.12500000000E+03 0.  0.
</event>
<event>
 5    0  0.5631475E-005  0.2648572E+03  0.7546771E-02  0.1104260E+00
         21   -1    0    0  502  501  0.00000000000E+00  0.00000000000E+00  0.22291882833E+04  0.22291882833E+04  0.00000000000E+00 0.  1.
         21   -1    0    0  501  502 -0.00000000000E+00 -0.00000000000E+00 -0.31468564173E+02  0.31468564173E+02  0.00000000000E+00 0.  1.
         25    1    1    2    0    0  0.19820393289E+02  0.99422648002E+02  0.44179559051E+03  0.47019788890E+03  0.12500000000E+03 0.  0.
         25    1    1    2    0    0  0.79987968525E+01 -0.68983142923E+02  0.14549623872E+04  0.14619723674E+04  0.12500000000E+03 0.  0.
         25    1    1    2    0    0 -0.27819190141E+02 -0.30439505079E+02  0.30096174133E+03  0.32848659113E+03  0.12500000000E+03 0.  0.
</event>
<event>
 5    0  0.5631475E-005  0.4599400E+03  0.7546771E-02  0.1024799E+00
         21   -1    0    0  502  501  0.00000000000E+00  0.00000000000E+00  0.71388379971E+02  0.71388379971E+02  0.00000000000E+00 0.  1.
         21   -1    0    0  501  502 -0.00000000000E+00 -0.00000000000E+00 -0.29632940160E+04  0.29632940160E+04  0.00000000000E+00 0.  1.
         25    1    1    2    0    0 -0.31237770750E+02  0.20802604044E+03 -0.27482501733E+03  0.36797339846E+03  0.12500000000E+03 0.  0.
         25    1    1    2    0    0 -0.11815514514E+03 -0.35412341250E+02 -0.43422348898E+03  0.46839055351E+03  0.12500000000E+03 0.  0.
         25    1    1    2    0    0  0.14939291589E+03 -0.17261369919E+03 -0.21828571297E+04  0.21983184440E+04  0.12500000000E+03 0.  0.
</event>
<event>
 5    0  0.5631475E-005  0.2390986E+03  0.7546771E-02  0.1120395E+00
         21   -1    0    0  502  501  0.00000000000E+00  0.00000000000E+00  0.11200922590E+03  0.11200922590E+03  0.00000000000E+00 0.  1.
         21   -1    0    0  501  502 -0.00000000000E+00 -0.00000000000E+00 -0.51038788605E+03  0.51038788605E+03  0.00000000000E+00 0.  1.
         25    1    1    2    0    0 -0.36988987467E+01  0.40630331114E+02 -0.23922205553E+03  0.27297746704E+03  0.12500000000E+03 0.  0.
         25    1    1    2    0    0  0.45981286239E+02  0.18817565747E+02 -0.15417278473E+03  0.20460358505E+03  0.12500000000E+03 0.  0.
         25    1    1    2    0    0 -0.42282387492E+02 -0.59447896861E+02 -0.49838198856E+01  0.14481605986E+03  0.12500000000E+03 0.  0.
</event>
<event>
 5    0  0.5631475E-005  0.3074099E+03  0.7546771E-02  0.1081594E+00
         21   -1    0    0  502  501  0.00000000000E+00  0.00000000000E+00  0.19058881261E+03  0.19058881261E+03  0.00000000000E+00 0.  1.
         21   -1    0    0  501  502 -0.00000000000E+00 -0.00000000000E+00 -0.49583613529E+03  0.49583613529E+03  0.00000000000E+00 0.  1.
         25    1    1    2    0    0 -0.36975102263E+02 -0.40728281558E+02 -0.20045570292E+03  0.24255605525E+03  0.12500000000E+03 0.  0.
         25    1    1    2    0    0 -0.15525491017E+03  0.16869677386E+02 -0.61763171051E+02  0.20935224490E+03  0.12500000000E+03 0.  0.
         25    1    1    2    0    0  0.19223001243E+03  0.23858604172E+02 -0.43028448713E+02  0.23451664775E+03  0.12500000000E+03 0.  0.
</event>
<event>
 5    0  0.5631475E-005  0.2647680E+03  0.7546771E-02  0.1104312E+00
         21   -1    0    0  502  501  0.00000000000E+00  0.00000000000E+00  0.36638276067E+03  0.36638276067E+03  0.00000000000E+00 0. -1.
         21   -1    0    0  501  502 -0.00000000000E+00 -0.00000000000E+00 -0.19133573659E+03  0.19133573659E+03  0.00000000000E+00 0. -1.
         25    1    1    2    0    0 -0.10636589785E+02 -0.14424670695E+03  0.26870120691E+02  0.19304728150E+03  0.12500000000E+03 0.  0.
         25    1    1    2    0    0 -0.12612263338E+02 -0.13381687391E+02  0.85961057042E+02  0.15281505839E+03  0.12500000000E+03 0.  0.
         25    1    1    2    0    0  0.23248853123E+02  0.15762839434E+03  0.62215846348E+02  0.21185615736E+03  0.12500000000E+03 0.  0.
</event>
<event>
 5    0  0.5631475E-005  0.2819621E+03  0.7546771E-02  0.1094622E+00
         21   -1    0    0  502  501  0.00000000000E+00  0.00000000000E+00  0.12942226806E+04  0.12942226806E+04  0.00000000000E+00 0.  1.
         21   -1    0    0  501  502 -0.00000000000E+00 -0.00000000000E+00 -0.61428840932E+02  0.61428840932E+02  0.00000000000E+00 0.  1.
         25    1    1    2    0    0  0.13816804805E+02  0.36304432035E+02  0.82834915307E+03  0.83862759034E+03  0.12500000000E+03 0.  0.
         25    1    1    2    0    0  0.66336966062E+02  0.10838856107E+02  0.95636320286E+02  0.17114140243E+03  0.12500000000E+03 0.  0.
         25    1    1    2    0    0 -0.80153770866E+02 -0.47143288142E+02  0.30880836630E+03  0.34588252875E+03  0.12500000000E+03 0.  0.
</event>
<event>
 5    0  0.5631475E-005  0.2970023E+03  0.7546771E-02  0.1086749E+00
         21   -1    0    0  502  501  0.00000000000E+00  0.00000000000E+00  0.14399658545E+03  0.14399658545E+03  0.00000000000E+00 0.  1.
         21   -1    0    0  501  502 -0.00000000000E+00 -0.00000000000E+00 -0.61258659569E+03  0.61258659569E+03  0.00000000000E+00 0.  1.
         25    1    1    2    0    0 -0.42793427847E+00  0.15118557474E+03 -0.24816999933E+03  0.31633939006E+03  0.12500000000E+03 0.  0.
         25    1    1    2    0    0 -0.83538983915E+02 -0.82721420665E+00 -0.27152269032E+02  0.15277988032E+03  0.12500000000E+03 0.  0.
         25    1    1    2    0    0  0.83966918194E+02 -0.15035836054E+03 -0.19326774188E+03  0.28746391075E+03  0.12500000000E+03 0.  0.
</event>
<event>
 5    0  0.5631475E-005  0.3020541E+03  0.7546771E-02  0.1084218E+00
         21   -1    0    0  502  501  0.00000000000E+00  0.00000000000E+00  0.21058383807E+04  0.21058383807E+04  0.00000000000E+00 0. -1.
         21   -1    0    0  501  502 -0.00000000000E+00 -0.00000000000E+00 -0.43325589134E+02  0.43325589134E+02  0.00000000000E+00 0. -1.
         25    1    1    2    0    0  0.36441174483E+02 -0.99206704253E+01  0.10899705820E+04  0.10977646599E+04  0.12500000000E+03 0.  0.
         25    1    1    2    0    0  0.82558663505E+02 -0.11389986931E+02  0.15613277305E+03  0.21667511981E+03  0.12500000000E+03 0.  0.
         25    1    1    2    0    0 -0.11899983799E+03  0.21310657356E+02  0.81640943652E+03  0.83472419014E+03  0.12500000000E+03 0.  0.
</event>
<event>
 5    0  0.5631475E-005  0.3485391E+03  0.7546771E-02  0.1063216E+00
         21   -1    0    0  502  501  0.00000000000E+00  0.00000000000E+00  0.70497993928E+02  0.70497993928E+02  0.00000000000E+00 0. -1.
         21   -1    0    0  501  502 -0.00000000000E+00 -0.00000000000E+00 -0.17231623013E+04  0.17231623013E+04  0.00000000000E+00 0. -1.
         25    1    1    2    0    0  0.35200632861E+01 -0.98631560649E+02 -0.29040612191E+03  0.33121185251E+03  0.12500000000E+03 0.  0.
         25    1    1    2    0    0  0.91328731886E+02  0.25029749003E+03 -0.58105707250E+03  0.65133869245E+03  0.12500000000E+03 0.  0.
         25    1    1    2    0    0 -0.94848795172E+02 -0.15166592938E+03 -0.78120111298E+03  0.81110975028E+03  0.12500000000E+03 0.  0.
</event>
<event>
 5    0  0.6857351E-005  0.2763633E+03  0.7546771E-02  0.1097692E+00
         21   -1    0    0  502  501  0.00000000000E+00  0.00000000000E+00  0.28922239676E+03  0.28922239676E+03  0.00000000000E+00 0. -1.
         21   -1    0    0  501  502 -0.00000000000E+00 -0.00000000000E+00 -0.26407592596E+03  0.26407592596E+03  0.00000000000E+00 0. -1.
         25    1    1    2    0    0  0.29426817889E+02  0.51152791384E+02 -0.41783939929E+02  0.14440721351E+03  0.12500000000E+03 0.  0.
         25    1    1    2    0    0 -0.12147600001E+03 -0.77567904440E+02  0.13866748199E+03  0.23585349041E+03  0.12500000000E+03 0.  0.
         25    1    1    2    0    0  0.92049182125E+02  0.26415113057E+02 -0.71737071250E+02  0.17303761880E+03  0.12500000000E+03 0.  0.
</event>
<event>
 5    0  0.5631475E-005  0.3119866E+03  0.7546771E-02  0.1079398E+00
         21   -1    0    0  502  501  0.00000000000E+00  0.00000000000E+00  0.11155735828E+04  0.11155735828E+04  0.00000000000E+00 0. -1.
         21   -1    0    0  501  502 -0.00000000000E+00 -0.00000000000E+00 -0.87251650995E+02  0.87251650995E+02  0.00000000000E+00 0. -1.
         25    1    1    2    0    0  0.65307280258E+02 -0.53570923051E+02  0.41740608308E+03  0.44383298981E+03  0.12500000000E+03 0.  0.
         25    1    1    2    0    0 -0.14346253367E+03  0.91400849567E+02  0.11529264972E+03  0.24052652442E+03  0.12500000000E+03 0.  0.
         25    1    1    2    0    0  0.78155253411E+02 -0.37829926516E+02  0.49562319897E+03  0.51846571954E+03  0.12500000000E+03 0.  0.
</event>
<event>
 5    0  0.5631475E-005  0.2147088E+03  0.7546771E-02  0.1137890E+00
         21   -1    0    0  502  501  0.00000000000E+00  0.00000000000E+00  0.37408805200E+03  0.37408805200E+03  0.00000000000E+00 0. -1.
         21   -1    0    0  501  502 -0.00000000000E+00 -0.00000000000E+00 -0.12323266512E+03  0.12323266512E+03  0.00000000000E+00 0. -1.
         25    1    1    2    0    0  0.60765887654E+00 -0.24209260760E+01  0.10742145116E+03  0.16483506394E+03  0.12500000000E+03 0.  0.
         25    1    1    2    0    0 -0.18624521989E+02  0.79239850170E+02  0.95366232041E+02  0.17704673080E+03  0.12500000000E+03 0.  0.
         25    1    1    2    0    0  0.18016863112E+02 -0.76818924094E+02  0.48067703667E+02  0.15543892238E+03  0.12500000000E+03 0.  0.
</event>
<event>
 5    0  0.5631475E-005  0.3558975E+03  0.7546771E-02  0.1060220E+00
         21   -1    0    0  502  501  0.00000000000E+00  0.00000000000E+00  0.11545258972E+03  0.11545258972E+03  0.00000000000E+00 0. -1.
         21   -1    0    0  501  502 -0.00000000000E+00 -0.00000000000E+00 -0.10971000023E+04  0.10971000023E+04  0.00000000000E+00 0. -1.
         25    1    1    2    0    0  0.63807344161E+02  0.63555421068E+02 -0.38788027195E+03  0.41735689055E+03  0.12500000000E+03 0.  0.
         25    1    1    2    0    0 -0.10813178243E+02  0.16053419966E+03 -0.80792996510E+02  0.21918180210E+03  0.12500000000E+03 0.  0.
         25    1    1    2    0    0 -0.52994165918E+02 -0.22408962073E+03 -0.51297414417E+03  0.57601389942E+03  0.12500000000E+03 0.  0.
</event>
<event>
 5    0  0.5631475E-005  0.3495347E+03  0.7546771E-02  0.1062806E+00
         21   -1    0    0  502  501  0.00000000000E+00  0.00000000000E+00  0.13593979631E+04  0.13593979631E+04  0.00000000000E+00 0.  1.
         21   -1    0    0  501  502 -0.00000000000E+00 -0.00000000000E+00 -0.89873972727E+02  0.89873972727E+02  0.00000000000E+00 0.  1.
         25    1    1    2    0    0  0.16489394290E+03  0.91507369332E+02  0.34459327736E+03  0.41222947232E+03  0.12500000000E+03 0.  0.
         25    1    1    2    0    0 -0.78509104205E+02 -0.21701818697E+03  0.62823812381E+03  0.68085880557E+03  0.12500000000E+03 0.  0.
         25    1    1    2    0    0 -0.86384838693E+02  0.12551081763E+03  0.29669258924E+03  0.35618365798E+03  0.12500000000E+03 0.  0.
</event>
<event>
 5    0  0.5631475E-005  0.3304862E+03  0.7546771E-02  0.1070922E+00
         21   -1    0    0  502  501  0.00000000000E+00  0.00000000000E+00  0.15483528004E+04  0.15483528004E+04  0.00000000000E+00 0.  1.
         21   -1    0    0  501  502 -0.00000000000E+00 -0.00000000000E+00 -0.70540220380E+02  0.70540220380E+02  0.00000000000E+00 0.  1.
         25    1    1    2    0    0 -0.67626844783E+02  0.37878338956E+01  0.39855464275E+03  0.42315309414E+03  0.12500000000E+03 0.  0.
         25    1    1    2    0    0  0.49352810845E+02 -0.14850525942E+03  0.93311843236E+03  0.95437126991E+03  0.12500000000E+03 0.  0.
         25    1    1    2    0    0  0.18274033938E+02  0.14471742553E+03  0.14613950495E+03  0.24136865678E+03  0.12500000000E+03 0.  0.
</event>
<event>
 5    0  0.5631475E-005  0.2605464E+03  0.7546771E-02  0.1106815E+00
         21   -1    0    0  502  501  0.00000000000E+00  0.00000000000E+00  0.95040597276E+02  0.95040597276E+02  0.00000000000E+00 0. -1.
         21   -1    0    0  501  502 -0.00000000000E+00 -0.00000000000E+00 -0.71426775853E+03  0.71426775853E+03  0.00000000000E+00 0. -1.
         25    1    1    2    0    0  0.19790758805E+02  0.97308128411E+02 -0.34816547010E+03  0.38302054848E+03  0.12500000000E+03 0.  0.
         25    1    1    2    0    0  0.66251537194E+00  0.10532407139E+02 -0.22883562329E+02  0.12751481464E+03  0.12500000000E+03 0.  0.
         25    1    1    2    0    0 -0.20453274177E+02 -0.10784053555E+03 -0.24817812882E+03  0.29877299268E+03  0.12500000000E+03 0.  0.
</event>
<event>
 5    0  0.5631475E-005  0.3209475E+03  0.7546771E-02  0.1075214E+00
         21   -1    0    0  502  501  0.00000000000E+00  0.00000000000E+00  0.62010224345E+02  0.62010224345E+02  0.00000000000E+00 0. -1.
         21   -1    0    0  501  502 -0.00000000000E+00 -0.00000000000E+00 -0.16611337908E+04  0.16611337908E+04  0.00000000000E+00 0. -1.
         25    1    1    2    0    0  0.24865157744E+02  0.39323670700E+02 -0.74734813338E+03  0.75915667659E+03  0.12500000000E+03 0.  0.
         25    1    1    2    0    0  0.41679913157E+02  0.15369247478E+03 -0.29346830907E+03  0.35652102378E+03  0.12500000000E+03 0.  0.
         25    1    1    2    0    0 -0.66545070901E+02 -0.19301614548E+03 -0.55830712398E+03  0.60746631476E+03  0.12500000000E+03 0.  0.
</event>
<event>
 5    0  0.5631475E-005  0.3057955E+03  0.7546771E-02  0.1082379E+00
         21   -1    0    0  502  501  0.00000000000E+00  0.00000000000E+00  0.17169296456E+04  0.17169296456E+04  0.00000000000E+00 0.  1.
         21   -1    0    0  501  502 -0.00000000000E+00 -0.00000000000E+00 -0.54464018637E+02  0.54464018637E+02  0.00000000000E+00 0.  1.
         25    1    1    2    0    0 -0.36987274907E+02 -0.15661876382E+02  0.94075023565E+03  0.94986807439E+03  0.12500000000E+03 0.  0.
         25    1    1    2    0    0  0.13901116443E+03  0.98044197421E+02  0.40165130117E+03  0.45374611427E+03  0.12500000000E+03 0.  0.
         25    1    1    2    0    0 -0.10202388952E+03 -0.82382321040E+02  0.32006409016E+03  0.36777947558E+03  0.12500000000E+03 0.  0.
</event>
<event>
 5    0  0.5631475E-005  0.3447136E+03  0.7546771E-02  0.1064806E+00
         21   -1    0    0  502  501  0.00000000000E+00  0.00000000000E+00  0.86099265240E+03  0.86099265240E+03  0.00000000000E+00 0. -1.
         21   -1    0    0  501  502 -0.00000000000E+00 -0.00000000000E+00 -0.13801214777E+03  0.13801214777E+03  0.00000000000E+00 0. -1.
         25    1    1    2    0    0  0.32659098505E+02  0.21716985644E+03  0.37726764547E+03  0.45407624864E+03  0.12500000000E+03 0.  0.
         25    1    1    2    0    0 -0.10875233091E+03 -0.92411891920E+01  0.15520458386E+03  0.22721340609E+03  0.12500000000E+03 0.  0.
         25    1    1    2    0    0  0.76093232406E+02 -0.20792866725E+03  0.19050827530E+03  0.31771514544E+03  0.12500000000E+03 0.  0.
</event>
<event>
 5    0  0.5631475E-005  0.2890107E+03  0.7546771E-02  0.1090867E+00
         21   -1    0    0  502  501  0.00000000000E+00  0.00000000000E+00  0.86211760057E+03  0.86211760057E+03  0.00000000000E+00 0.  1.
         21   -1    0    0  501  502 -0.00000000000E+00 -0.00000000000E+00 -0.96886096099E+02  0.96886096099E+02  0.00000000000E+00 0.  1.
         25    1    1    2    0    0  0.43746763127E+02  0.66719242964E+02  0.25996970676E+03  0.29928996825E+03  0.12500000000E+03 0.  0.
         25    1    1    2    0    0 -0.51465032032E+02  0.26119625583E+02  0.72496538041E+01  0.13787110590E+03  0.12500000000E+03 0.  0.
         25    1    1    2    0    0  0.77182689054E+01 -0.92838868547E+02  0.49801214391E+03  0.52184262251E+03  0.12500000000E+03 0.  0.
</event>
<event>
 5    0  0.5631475E-005  0.2725880E+03  0.7546771E-02  0.1099807E+00
         21   -1    0    0  502  501  0.00000000000E+00  0.00000000000E+00  0.38535403530E+03  0.38535403530E+03  0.00000000000E+00 0. -1.
         21   -1    0    0  501  502 -0.00000000000E+00 -0.00000000000E+00 -0.19282071938E+03  0.19282071938E+03  0.00000000000E+00 0. -1.
         25    1    1    2    0    0 -0.25797192632E+02 -0.17598963473E+03  0.10141921997E+03  0.23989311132E+03  0.12500000000E+03 0.  0.
         25    1    1    2    0    0  0.59080197158E+02  0.12522931080E+03  0.59143251819E+02  0.19569306124E+03  0.12500000000E+03 0.  0.
         25    1    1    2    0    0 -0.33283004526E+02  0.50760323933E+02  0.31970844134E+02  0.14258858212E+03  0.12500000000E+03 0.  0.
</event>
<event>
 5    0  0.5631475E-005  0.3770435E+03  0.7546771E-02  0.1052032E+00
         21   -1    0    0  502  501  0.00000000000E+00  0.00000000000E+00  0.17801384788E+04  0.17801384788E+04  0.00000000000E+00 0. -1.
         21   -1    0    0  501  502 -0.00000000000E+00 -0.00000000000E+00 -0.79859959099E+02  0.79859959099E+02  0.00000000000E+00 0. -1.
         25    1    1    2    0    0 -0.94865306547E+02 -0.76117890374E+02  0.13454118048E+03  0.22027185219E+03  0.12500000000E+03 0.  0.
         25    1    1    2    0    0 -0.68494564937E+02 -0.72806879035E+02  0.23090766053E+03  0.28095496926E+03  0.12500000000E+03 0.  0.
         25    1    1    2    0    0  0.16335987148E+03  0.14892476941E+03  0.13348296786E+04  0.13587716164E+04  0.12500000000E+03 0.  0.
</event>
<event>
 5    0  0.5631475E-005  0.3470302E+03  0.7546771E-02  0.1063841E+00
         21   -1    0    0  502  501  0.00000000000E+00  0.00000000000E+00  0.93464342103E+03  0.93464342103E+03  0.00000000000E+00 0. -1.
         21   -1    0    0  501  502 -0.00000000000E+00 -0.00000000000E+00 -0.12885120756E+03  0.12885120756E+03  0.00000000000E+00 0. -1.
         25    1    1    2    0    0  0.13183361427E+03 -0.14050100211E+03  0.83713238341E+02  0.24444537164E+03  0.12500000000E+03 0.  0.
         25    1    1    2    0    0 -0.32404585694E+02  0.13612289320E+03  0.20525726222E+03  0.27809178866E+03  0.12500000000E+03 0.  0.
         25    1    1    2    0    0 -0.99429028574E+02  0.43781089050E+01  0.51682171291E+03  0.54095746828E+03  0.12500000000E+03 0.  0.
</event>
<event>
 5    0  0.5631475E-005  0.2509708E+03  0.7546771E-02  0.1112693E+00
         21   -1    0    0  502  501  0.00000000000E+00  0.00000000000E+00  0.46544009446E+03  0.46544009446E+03  0.00000000000E+00 0.  1.
         21   -1    0    0  501  502 -0.00000000000E+00 -0.00000000000E+00 -0.13532645544E+03  0.13532645544E+03  0.00000000000E+00 0.  1.
         25    1    1    2    0    0  0.55713764345E+02 -0.89644782854E+02  0.25594377583E+03  0.30376376844E+03  0.12500000000E+03 0.  0.
         25    1    1    2    0    0  0.82033941220E+01  0.71196824517E+02  0.20343616581E+02  0.14551682457E+03  0.12500000000E+03 0.  0.
         25    1    1    2    0    0 -0.63917158467E+02  0.18447958336E+02  0.53826246600E+02  0.15148595689E+03  0.12500000000E+03 0.  0.
</event>
<event>
 5    0  0.5631475E-005  0.4774473E+03  0.7546771E-02  0.1019839E+00
         21   -1    0    0  502  501  0.00000000000E+00  0.00000000000E+00  0.12225672820E+03  0.12225672820E+03  0.00000000000E+00 0. -1.
         21   -1    0    0  501  502 -0.00000000000E+00 -0.00000000000E+00 -0.18645672210E+04  0.18645672210E+04  0.00000000000E+00 0. -1.
         25    1    1    2    0    0  0.10237227761E+03 -0.26919584235E+03 -0.24944961200E+03  0.40099450581E+03  0.12500000000E+03 0.  0.
         25    1    1    2    0    0  0.26655081028E+02  0.10175276971E+03 -0.11639074307E+04  0.11753168197E+04  0.12500000000E+03 0.  0.
         25    1    1    2    0    0 -0.12902735864E+03  0.16744307264E+03 -0.32895345012E+03  0.41051262368E+03  0.12500000000E+03 0.  0.
</event>
<event>
 5    0  0.6704530E-005  0.6210966E+03  0.7546771E-02  0.9862579E-01
         21   -1    0    0  502  501  0.00000000000E+00  0.00000000000E+00  0.24849427378E+03  0.24849427378E+03  0.00000000000E+00 0. -1.
         21   -1    0    0  501  502 -0.00000000000E+00 -0.00000000000E+00 -0.15523938408E+04  0.15523938408E+04  0.00000000000E+00 0. -1.
         25    1    1    2    0    0 -0.44017422731E+02 -0.35590959712E+03 -0.40597098812E+03  0.55591961471E+03  0.12500000000E+03 0.  0.
         25    1    1    2    0    0 -0.10090500769E+03  0.26731765399E+03 -0.97249590081E+03  0.10212804834E+04  0.12500000000E+03 0.  0.
         25    1    1    2    0    0  0.14492243042E+03  0.88591943134E+02  0.74567321870E+02  0.22368801648E+03  0.12500000000E+03 0.  0.
</event>
<event>
 5    0  0.5631475E-005  0.3466308E+03  0.7546771E-02  0.1064006E+00
         21   -1    0    0  502  501  0.00000000000E+00  0.00000000000E+00  0.36781614361E+03  0.36781614361E+03  0.00000000000E+00 0.  1.
         21   -1    0    0  501  502 -0.00000000000E+00 -0.00000000000E+00 -0.32666565562E+03  0.32666565562E+03  0.00000000000E+00 0.  1.
         25    1    1    2    0    0  0.61607287557E+02  0.98908273579E+02  0.17231697303E+03  0.24268589505E+03  0.12500000000E+03 0.  0.
         25    1    1    2    0    0 -0.79436325822E+02 -0.59517109201E+02  0.97926650073E+02  0.18726196876E+03  0.12500000000E+03 0.  0.
         25    1    1    2    0    0  0.17829038265E+02 -0.39391164378E+02 -0.22909313511E+03  0.26453393542E+03  0.12500000000E+03 0.  0.
</event>
<event>
 5    0  0.5631475E-005  0.2945345E+03  0.7546771E-02  0.1088005E+00
         21   -1    0    0  502  501  0.00000000000E+00  0.00000000000E+00  0.24819397071E+03  0.24819397071E+03  0.00000000000E+00 0.  1.
         21   -1    0    0  501  502 -0.00000000000E+00 -0.00000000000E+00 -0.34952730200E+03  0.34952730200E+03  0.00000000000E+00 0.  1.
         25    1    1    2    0    0  0.49672032798E+02  0.16519966920E+03 -0.25611728579E+02  0.21456747701E+03  0.12500000000E+03 0.  0.
         25    1    1    2    0    0 -0.10322734083E+03 -0.13734618512E+03  0.21681882636E+02  0.21357659632E+03  0.12500000000E+03 0.  0.
         25    1    1    2    0    0  0.53555308033E+02 -0.27853484081E+02 -0.97403485339E+02  0.16957719938E+03  0.12500000000E+03 0.  0.
</event>
<event>
 5    0  0.5631475E-005  0.3773573E+03  0.7546771E-02  0.1051915E+00
         21   -1    0    0  502  501  0.00000000000E+00  0.00000000000E+00  0.41432104827E+03  0.41432104827E+03  0.00000000000E+00 0. -1.
         21   -1    0    0  501  502 -0.00000000000E+00 -0.00000000000E+00 -0.34369125557E+03  0.34369125557E+03  0.00000000000E+00 0. -1.
         25    1    1    2    0    0  0.15200691005E+03 -0.92875418665E+02 -0.30229207963E+02  0.21970605160E+03  0.12500000000E+03 0.  0.
         25    1    1    2    0    0 -0.24966659994E+03  0.17327424049E+03 -0.99744702778E+01  0.32875806241E+03  0.12500000000E+03 0.  0.
         25    1    1    2    0    0  0.97659689891E+02 -0.80398821823E+02  0.11083347094E+03  0.20954818983E+03  0.12500000000E+03 0.  0.
</event>
<event>
 5    0  0.5631475E-005  0.4108613E+03  0.7546771E-02  0.1040082E+00
         21   -1    0    0  502  501  0.00000000000E+00  0.00000000000E+00  0.17412543833E+03  0.17412543833E+03  0.00000000000E+00 0. -1.
         21   -1    0    0  501  502 -0.00000000000E+00 -0.00000000000E+00 -0.96945628415E+03  0.96945628415E+03  0.00000000000E+00 0. -1.
         25    1    1    2    0    0  0.17813577771E+03 -0.11633077709E+03 -0.21658201467E+03  0.32832601797E+03  0.12500000000E+03 0.  0.
         25    1    1    2    0    0 -0.10394776488E+03  0.47234819304E+02  0.41630224922E+02  0.17433973043E+03  0.12500000000E+03 0.  0.
         25    1    1    2    0    0 -0.74188012828E+02  0.69095957790E+02 -0.62037905607E+03  0.64091597408E+03  0.12500000000E+03 0.  0.
</event>
<event>
 5    0  0.5644011E-005  0.3770339E+03  0.7546771E-02  0.1052036E+00
         21   -1    0    0  502  501  0.00000000000E+00  0.00000000000E+00  0.11667636838E+03  0.11667636838E+03  0.00000000000E+00 0. -1.
         21   -1    0    0  501  502 -0.00000000000E+00 -0.00000000000E+00 -0.12183661758E+04  0.12183661758E+04  0.00000000000E+00 0. -1.
         25    1    1    2    0    0  0.26507969977E+02 -0.88312747583E+02 -0.48753440210E+03  0.51168018047E+03  0.12500000000E+03 0.  0.
         25    1    1    2    0    0  0.14853229324E+03  0.13670550264E+03 -0.54143986657E+03  0.59121262309E+03  0.12500000000E+03 0.  0.
         25    1    1    2    0    0 -0.17504026322E+03 -0.48392755061E+02 -0.72715538742E+02  0.23214974061E+03  0.12500000000E+03 0.  0.
</event>
<event>
 5    0  0.5631475E-005  0.4813000E+03  0.7546771E-02  0.1018778E+00
         21   -1    0    0  502  501  0.00000000000E+00  0.00000000000E+00  0.40415143675E+03  0.40415143675E+03  0.00000000000E+00 0.  1.
         21   -1    0    0  501  502 -0.00000000000E+00 -0.00000000000E+00 -0.57317558294E+03  0.57317558294E+03  0.00000000000E+00 0.  1.
         25    1    1    2    0    0 -0.71302840665E+02 -0.14768507328E+03 -0.92208242781E+02  0.22588124312E+03  0.12500000000E+03 0.  0.
         25    1    1    2    0    0 -0.11794082560E+03 -0.15440872952E+03  0.18151137775E+03  0.29380856752E+03  0.12500000000E+03 0.  0.
         25    1    1    2    0    0  0.18924366626E+03  0.30209380280E+03 -0.25832728116E+03  0.45763720904E+03  0.12500000000E+03 0.  0.
</event>
<event>
 5    0  0.5631475E-005  0.3021971E+03  0.7546771E-02  0.1084147E+00
         21   -1    0    0  502  501  0.00000000000E+00  0.00000000000E+00  0.14490487184E+03  0.14490487184E+03  0.00000000000E+00 0.  1.
         21   -1    0    0  501  502 -0.00000000000E+00 -0.00000000000E+00 -0.63022794056E+03  0.63022794056E+03  0.00000000000E+00 0.  1.
         25    1    1    2    0    0  0.80923747791E+02  0.44658645034E+02 -0.29136376987E+02  0.15816755671E+03  0.12500000000E+03 0.  0.
         25    1    1    2    0    0 -0.18567432053E+03 -0.24538987605E+02 -0.15338810507E+03  0.27245187831E+03  0.12500000000E+03 0.  0.
         25    1    1    2    0    0  0.10475057274E+03 -0.20119657429E+02 -0.30279858667E+03  0.34451337738E+03  0.12500000000E+03 0.  0.
</event>
<event>
 5    0  0.5927448E-005  0.6685218E+03  0.7546771E-02  0.9772632E-01
         21   -1    0    0  502  501  0.00000000000E+00  0.00000000000E+00  0.68631503839E+03  0.68631503839E+03  0.00000000000E+00 0. -1.
         21   -1    0    0  501  502 -0.00000000000E+00 -0.00000000000E+00 -0.65118983619E+03  0.65118983619E+03  0.00000000000E+00 0. -1.
         25    1    1    2    0    0  0.37538924988E+03 -0.15851668797E+03  0.24615791398E+03  0.49220254764E+03  0.12500000000E+03 0.  0.
         25    1    1    2    0    0  0.10380377264E+03 -0.11090982801E+03 -0.20126885602E+03  0.28144336121E+03  0.12500000000E+03 0.  0.
         25    1    1    2    0    0 -0.47919302252E+03  0.26942651599E+03 -0.97638557551E+01  0.56385896573E+03  0.12500000000E+03 0.  0.
</event>
<event>
 5    0  0.5631475E-005  0.3842876E+03  0.7546771E-02  0.1049360E+00
         21   -1    0    0  502  501  0.00000000000E+00  0.00000000000E+00  0.10560644432E+04  0.10560644432E+04  0.00000000000E+00 0. -1.
         21   -1    0    0  501  502 -0.00000000000E+00 -0.00000000000E+00 -0.13983706555E+03  0.13983706555E+03  0.00000000000E+00 0. -1.
         25    1    1    2    0    0  0.24494329188E+02 -0.12793475456E+03  0.28789204920E+03  0.33981481071E+03  0.12500000000E+03 0.  0.
         25    1    1    2    0    0 -0.83092983142E+02 -0.66574366039E+02  0.59256934139E+03  0.61489837731E+03  0.12500000000E+03 0.  0.
         25    1    1    2    0    0  0.58598653954E+02  0.19450912060E+03  0.35765987110E+02  0.24118832077E+03  0.12500000000E+03 0.  0.
</event>
<event>
 5    0  0.5631475E-005  0.1967878E+03  0.7546771E-02  0.1152478E+00
         21   -1    0    0  502  501  0.00000000000E+00  0.00000000000E+00  0.16063910729E+03  0.16063910729E+03  0.00000000000E+00 0.  1.
         21   -1    0    0  501  502 -0.00000000000E+00 -0.00000000000E+00 -0.24107097547E+03  0.24107097547E+03  0.00000000000E+00 0.  1.
         25    1    1    2    0    0 -0.55756357302E+01 -0.23710262227E+02 -0.75577732400E+02  0.14808868250E+03  0.12500000000E+03 0.  0.
         25    1    1    2    0    0 -0.11641842124E+02  0.11203995244E+02 -0.12078247993E+02  0.12661732137E+03  0.12500000000E+03 0.  0.
         25    1    1    2    0    0  0.17217477854E+02  0.12506266983E+02  0.72241122056E+01  0.12700407889E+03  0.12500000000E+03 0.  0.
</event>
<event>
 5    0  0.5631475E-005  0.2633923E+03  0.7546771E-02  0.1105122E+00
         21   -1    0    0  502  501  0.00000000000E+00  0.00000000000E+00  0.15394216594E+04  0.15394216594E+04  0.00000000000E+00 0. -1.
         21   -1    0    0  501  502 -0.00000000000E+00 -0.00000000000E+00 -0.45065945402E+02  0.45065945402E+02  0.00000000000E+00 0. -1.
         25    1    1    2    0    0 -0.29074704195E+01 -0.11095973050E+03  0.42901559376E+03  0.46043446316E+03  0.12500000000E+03 0.  0.
         25    1    1    2    0    0 -0.77842103269E+02  0.55892525843E+02  0.26615668505E+03  0.30926970185E+03  0.12500000000E+03 0.  0.
         25    1    1    2    0    0  0.80749573688E+02  0.55067204652E+02  0.79918343515E+03  0.81478343976E+03  0.12500000000E+03 0.  0.
</event>
<event>
 5    0  0.5631475E-005  0.3635490E+03  0.7546771E-02  0.1057187E+00
         21   -1    0    0  502  501  0.00000000000E+00  0.00000000000E+00  0.46204322949E+03  0.46204322949E+03  0.00000000000E+00 0.  1.
         21   -1    0    0  501  502 -0.00000000000E+00 -0.00000000000E+00 -0.28605087883E+03  0.28605087883E+03  0.00000000000E+00 0.  1.
         25    1    1    2    0    0 -0.74634881284E+02 -0.16126354691E+03  0.15215012315E+03  0.26523754832E+03  0.12500000000E+03 0.  0.
         25    1    1    2    0    0  0.17999714300E+03 -0.20901999074E+02 -0.52780927259E+02  0.22637732072E+03  0.12500000000E+03 0.  0.
         25    1    1    2    0    0 -0.10536226172E+03  0.18216554598E+03  0.76623154772E+02  0.25647923928E+03  0.12500000000E+03 0.  0.
</event>
<event>
 5    0  0.5631475E-005  0.4073106E+03  0.7546771E-02  0.1041277E+00
         21   -1    0    0  502  501  0.00000000000E+00  0.00000000000E+00  0.15470239963E+03  0.15470239963E+03  0.00000000000E+00 0. -1.
         21   -1    0    0  501  502 -0.00000000000E+00 -0.00000000000E+00 -0.10723939021E+04  0.10723939021E+04  0.00000000000E+00 0. -1.
         25    1    1    2    0    0  0.12187814790E+03  0.59645272527E+02 -0.19448404563E+03  0.26806880736E+03  0.12500000000E+03 0.  0.
         25    1    1    2    0    0 -0.33173396570E+02 -0.21934425552E+03 -0.68963582600E+03  0.73514280870E+03  0.12500000000E+03 0.  0.
         25    1    1    2    0    0 -0.88704751333E+02  0.15969898299E+03 -0.33571630816E+02  0.22388468566E+03  0.12500000000E+03 0.  0.
</event>
<event>
 5    0  0.5631475E-005  0.3612388E+03  0.7546771E-02  0.1058094E+00
         21   -1    0    0  502  501  0.00000000000E+00  0.00000000000E+00  0.56215579388E+03  0.56215579388E+03  0.00000000000E+00 0. -1.
         21   -1    0    0  501  502 -0.00000000000E+00 -0.00000000000E+00 -0.23213049687E+03  0.23213049687E+03  0.00000000000E+00 0. -1.
         25    1    1    2    0    0 -0.23116225596E+01 -0.29043296803E+02  0.39051265456E+02  0.13415982268E+03  0.12500000000E+03 0.  0.
         25    1    1    2    0    0 -0.22905157879E+03  0.39104421401E+02  0.29650380194E+03  0.39690463097E+03  0.12500000000E+03 0.  0.
         25    1    1    2    0    0  0.23136320135E+03 -0.10061124599E+02 -0.55297703856E+01  0.26322183711E+03  0.12500000000E+03 0.  0.
</event>
<event>
 5    0  0.5631475E-005  0.2740063E+03  0.7546771E-02  0.1099008E+00
         21   -1    0    0  502  501  0.00000000000E+00  0.00000000000E+00  0.13142763441E+03  0.13142763441E+03  0.00000000000E+00 0. -1.
         21   -1    0    0  501  502 -0.00000000000E+00 -0.00000000000E+00 -0.57126075092E+03  0.57126075092E+03  0.00000000000E+00 0. -1.
         25    1    1    2    0    0 -0.39727342411E+02  0.11129367998E+03 -0.71282556333E+02  0.18620082647E+03  0.12500000000E+03 0.  0.
         25    1    1    2    0    0 -0.81246849419E+02 -0.24553753639E+02 -0.23947232407E+03  0.28315354731E+03  0.12500000000E+03 0.  0.
         25    1    1    2    0    0  0.12097419183E+03 -0.86739926344E+02 -0.12907823610E+03  0.23333401155E+03  0.12500000000E+03 0.  0.
</event>
<event>
 5    0  0.5631475E-005  0.2945728E+03  0.7546771E-02  0.1087986E+00
         21   -1    0    0  502  501  0.00000000000E+00  0.00000000000E+00  0.54939658046E+03  0.54939658046E+03  0.00000000000E+00 0. -1.
         21   -1    0    0  501  502 -0.00000000000E+00 -0.00000000000E+00 -0.15794259954E+03  0.15794259954E+03  0.00000000000E+00 0. -1.
         25    1    1    2    0    0 -0.14707919114E+03  0.13114186692E+03  0.18367167376E+03  0.29696929381E+03  0.12500000000E+03 0.  0.
         25    1    1    2    0    0  0.10908278288E+03 -0.18280296054E+02  0.16005596535E+03  0.23124907522E+03  0.12500000000E+03 0.  0.
         25    1    1    2    0    0  0.37996408258E+02 -0.11286157087E+03  0.47726341823E+02  0.17912081097E+03  0.12500000000E+03 0.  0.
</event>
<event>
 5    0  0.5631475E-005  0.3333143E+03  0.7546771E-02  0.1069680E+00
         21   -1    0    0  502  501  0.00000000000E+00  0.00000000000E+00  0.28017435505E+03  0.28017435505E+03  0.00000000000E+00 0. -1.
         21   -1    0    0  501  502 -0.00000000000E+00 -0.00000000000E+00 -0.39653311000E+03  0.39653311000E+03  0.00000000000E+00 0. -1.
         25    1    1    2    0    0 -0.19142963471E+03 -0.91222035198E+02 -0.51859708425E+00  0.24615449152E+03  0.12500000000E+03 0.  0.
         25    1    1    2    0    0  0.16974584438E+02  0.11801638411E+03  0.21911282486E+02  0.17412957168E+03  0.12500000000E+03 0.  0.
         25    1    1    2    0    0  0.17445505028E+03 -0.26794348910E+02 -0.13775144035E+03  0.25642340186E+03  0.12500000000E+03 0.  0.
</event>
<event>
 5    0  0.6020334E-005  0.3588248E+03  0.7546771E-02  0.1059050E+00
         21   -1    0    0  502  501  0.00000000000E+00  0.00000000000E+00  0.17575471427E+03  0.17575471427E+03  0.00000000000E+00 0. -1.
         21   -1    0    0  501  502 -0.00000000000E+00 -0.00000000000E+00 -0.73258496465E+03  0.73258496465E+03  0.00000000000E+00 0. -1.
         25    1    1    2    0    0 -0.17011777540E+03 -0.10774881928E+03 -0.39235794135E+03  0.45838806671E+03  0.12500000000E+03 0.  0.
         25    1    1    2    0    0  0.16406118375E+03 -0.16357545601E+02 -0.17834218354E+03  0.27315668716E+03  0.12500000000E+03 0.  0.
         25    1    1    2    0    0  0.60565916460E+01  0.12410636488E+03  0.13869874503E+02  0.17679492505E+03  0.12500000000E+03 0.  0.
</event>
<event>
 5    0  0.5631475E-005  0.2793381E+03  0.7546771E-02  0.1096051E+00
         21   -1    0    0  502  501  0.00000000000E+00  0.00000000000E+00  0.48387665179E+02  0.48387665179E+02  0.00000000000E+00 0. -1.
         21   -1    0    0  501  502 -0.00000000000E+00 -0.00000000000E+00 -0.16125969132E+04  0.16125969132E+04  0.00000000000E+00 0. -1.
         25    1    1    2    0    0  0.63827504626E+02 -0.50381406811E+02 -0.31870958758E+03  0.35187076849E+03  0.12500000000E+03 0.  0.
         25    1    1    2    0    0 -0.15431878112E+03  0.17284990551E+02 -0.37768612473E+03  0.42706541176E+03  0.12500000000E+03 0.  0.
         25    1    1    2    0    0  0.90491276497E+02  0.33096416260E+02 -0.86781353567E+03  0.88204839809E+03  0.12500000000E+03 0.  0.
</event>
<event>
 5    0  0.5631475E-005  0.2135283E+03  0.7546771E-02  0.1138802E+00
         21   -1    0    0  502  501  0.00000000000E+00  0.00000000000E+00  0.22765572378E+03  0.22765572378E+03  0.00000000000E+00 0. -1.
         21   -1    0    0  501  502 -0.00000000000E+00 -0.00000000000E+00 -0.20027749013E+03  0.20027749013E+03  0.00000000000E+00 0. -1.
         25    1    1    2    0    0 -0.54283446371E+02  0.34061676078E+02 -0.42602329787E+02  0.14678844924E+03  0.12500000000E+03 0.  0.
         25    1    1    2    0    0  0.49500870201E+02 -0.22841277860E+02 -0.20014432236E+01  0.13638572469E+03  0.12500000000E+03 0.  0.
         25    1    1    2    0    0  0.47825761700E+01 -0.11220398218E+02  0.71982006664E+02  0.14475903997E+03  0.12500000000E+03 0.  0.
</event>
<event>
 5    0  0.5631475E-005  0.3224087E+03  0.7546771E-02  0.1074546E+00
         21   -1    0    0  502  501  0.00000000000E+00  0.00000000000E+00  0.16113728132E+03  0.16113728132E+03  0.00000000000E+00 0. -1.
         21   -1    0    0  501  502 -0.00000000000E+00 -0.00000000000E+00 -0.64508593870E+03  0.64508593870E+03  0.00000000000E+00 0. -1.
         25    1    1    2    0    0  0.33599417126E+02  0.80376514904E+02 -0.20193196958E+03  0.25296407910E+03  0.12500000000E+03 0.  0.
         25    1    1    2    0    0 -0.82217709966E+02  0.11259730631E+02  0.70005437469E+02  0.16556658673E+03  0.12500000000E+03 0.  0.
         25    1    1    2    0    0  0.48618292840E+02 -0.91636245535E+02 -0.35202212527E+03  0.38769255419E+03  0.12500000000E+03 0.  0.
</event>
<event>
 5    0  0.5631475E-005  0.2475943E+03  0.7546771E-02  0.1114835E+00
         21   -1    0    0  502  501  0.00000000000E+00  0.00000000000E+00  0.23339231289E+02  0.23339231289E+02  0.00000000000E+00 0.  1.
         21   -1    0    0  501  502 -0.00000000000E+00 -0.00000000000E+00 -0.26266046124E+04  0.26266046124E+04  0.00000000000E+00 0.  1.
         25    1    1    2    0    0 -0.99020111787E+02 -0.18613231812E+02 -0.49855506229E+03  0.52376863697E+03  0.12500000000E+03 0.  0.
         25    1    1    2    0    0  0.18330061318E+02 -0.34815521059E+02 -0.12602932180E+04  0.12670880423E+04  0.12500000000E+03 0.  0.
         25    1    1    2    0    0  0.80690050469E+02  0.53428752871E+02 -0.84441710080E+03  0.85908716438E+03  0.12500000000E+03 0.  0.
</event>
<event>
 5    0  0.5631475E-005  0.2813157E+03  0.7546771E-02  0.1094972E+00
         21   -1    0    0  502  501  0.00000000000E+00  0.00000000000E+00  0.55386973812E+03  0.55386973812E+03  0.00000000000E+00 0.  1.
         21   -1    0    0  501  502 -0.00000000000E+00 -0.00000000000E+00 -0.14288291986E+03  0.14288291986E+03  0.00000000000E+00 0.  1.
         25    1    1    2    0    0 -0.15659973578E+03  0.61640313979E+02  0.62637273732E+02  0.21879541498E+03  0.12500000000E+03 0.  0.
         25    1    1    2    0    0  0.69726766857E+02 -0.93502058630E+02  0.16604567318E+03  0.23832881187E+03  0.12500000000E+03 0.  0.
         25    1    1    2    0    0  0.86872968927E+02  0.31861744651E+02  0.18230387135E+03  0.23962843114E+03  0.12500000000E+03 0.  0.
</event>
<event>
 5    0  0.5631475E-005  0.3453074E+03  0.7546771E-02  0.1064558E+00
         21   -1    0    0  502  501  0.00000000000E+00  0.00000000000E+00  0.61469885272E+03  0.61469885272E+03  0.00000000000E+00 0. -1.
         21   -1    0    0  501  502 -0.00000000000E+00 -0.00000000000E+00 -0.19397662406E+03  0.19397662406E+03  0.00000000000E+00 0. -1.
         25    1    1    2    0    0  0.24263565777E+03  0.53122971581E+02  0.21830290132E+03  0.35351841431E+03  0.12500000000E+03 0.  0.
         25    1    1    2    0    0 -0.46332074328E+02 -0.10442715005E+03  0.82080444326E+02  0.18818578618E+03  0.12500000000E+03 0.  0.
         25    1    1    2    0    0 -0.19630358344E+03  0.51304178466E+02  0.12033888301E+03  0.26697127629E+03  0.12500000000E+03 0.  0.
</event>
<event>
 5    0  0.5631475E-005  0.4198924E+03  0.7546771E-02  0.1037101E+00
         21   -1    0    0  502  501  0.00000000000E+00  0.00000000000E+00  0.69765631387E+03  0.69765631387E+03  0.00000000000E+00 0. -1.
         21   -1    0    0  501  502 -0.00000000000E+00 -0.00000000000E+00 -0.25271697509E+03  0.25271697509E+03  0.00000000000E+00 0. -1.
         25    1    1    2    0    0  0.26464321292E+03 -0.96112621618E+02  0.20064166655E+03  0.36763534179E+03  0.12500000000E+03 0.  0.
         25    1    1    2    0    0 -0.27886689683E+03 -0.68695543098E+02  0.95256921115E+02  0.32739075248E+03  0.12500000000E+03 0.  0.
         25    1    1    2    0    0  0.14223683908E+02  0.16480816472E+03  0.14904075112E+03  0.25534719469E+03  0.12500000000E+03 0.  0.
</event>
<event>
 5    0  0.5631475E-005  0.4476492E+03  0.7546771E-02  0.1028425E+00
         21   -1    0    0  502  501  0.00000000000E+00  0.00000000000E+00  0.18762625998E+03  0.18762625998E+03  0.00000000000E+00 0.  1.
         21   -1    0    0  501  502 -0.00000000000E+00 -0.00000000000E+00 -0.10680263930E+04  0.10680263930E+04  0.00000000000E+00 0.  1.
         25    1    1    2    0    0 -0.11416970646E+03  0.10198702463E+03 -0.21764827748E+03  0.29399293828E+03  0.12500000000E+03 0.  0.
         25    1    1    2    0    0 -0.12928615743E+03  0.12524929654E+03 -0.11328661208E+02  0.21944392302E+03  0.12500000000E+03 0.  0.
         25    1    1    2    0    0  0.24345586388E+03 -0.22723632117E+03 -0.65142319437E+03  0.74221579172E+03  0.12500000000E+03 0.  0.
</event>
<event>
 5    0  0.5631475E-005  0.3839472E+03  0.7546771E-02  0.1049484E+00
         21   -1    0    0  502  501  0.00000000000E+00  0.00000000000E+00  0.14650022114E+04  0.14650022114E+04  0.00000000000E+00 0. -1.
         21   -1    0    0  501  502 -0.00000000000E+00 -0.00000000000E+00 -0.10062470942E+03  0.10062470942E+03  0.00000000000E+00 0. -1.
         25    1    1    2    0    0 -0.80511465107E+02  0.56557338280E+02  0.38320713626E+02  0.16362855991E+03  0.12500000000E+03 0.  0.
         25    1    1    2    0    0 -0.13074250483E+03  0.37250190168E+02  0.42465961457E+03  0.46307879187E+03  0.12500000000E+03 0.  0.
         25    1    1    2    0    0  0.21125396993E+03 -0.93807528448E+02  0.90139717380E+03  0.93891956905E+03  0.12500000000E+03 0.  0.
</event>
<event>
 5    0  0.5631475E-005  0.3135863E+03  0.7546771E-02  0.1078640E+00
         21   -1    0    0  502  501  0.00000000000E+00  0.00000000000E+00  0.36795123937E+03  0.36795123937E+03  0.00000000000E+00 0. -1.
         21   -1    0    0  501  502 -0.00000000000E+00 -0.00000000000E+00 -0.26725382046E+03  0.26725382046E+03  0.00000000000E+00 0. -1.
         25    1    1    2    0    0  0.11090293253E+02 -0.14638804159E+02  0.13016457897E+03  0.18139764830E+03  0.12500000000E+03 0.  0.
         25    1    1    2    0    0 -0.82673068304E+02 -0.73737755171E+02  0.13742582614E+03  0.21629366715E+03  0.12500000000E+03 0.  0.
         25    1    1    2    0    0  0.71582775051E+02  0.88376559329E+02 -0.16689298620E+03  0.23751374437E+03  0.12500000000E+03 0.  0.
</event>
<event>
 5    0  0.5631475E-005  0.3214498E+03  0.7546771E-02  0.1074984E+00
         21   -1    0    0  502  501  0.00000000000E+00  0.00000000000E+00  0.11682964151E+03  0.11682964151E+03  0.00000000000E+00 0.  1.
         21   -1    0    0  501  502 -0.00000000000E+00 -0.00000000000E+00 -0.88444987631E+03  0.88444987631E+03  0.00000000000E+00 0.  1.
         25    1    1    2    0    0  0.14875201649E+03  0.12399541612E+03 -0.24004332188E+03  0.33278795352E+03  0.12500000000E+03 0.  0.
         25    1    1    2    0    0 -0.20994431749E+03 -0.11460982160E+03 -0.32345499856E+03  0.42126020907E+03  0.12500000000E+03 0.  0.
         25    1    1    2    0    0  0.61192300996E+02 -0.93855945223E+01 -0.20412191436E+03  0.24723135523E+03  0.12500000000E+03 0.  0.
</event>
<event>
 5    0  0.5648015E-005  0.3576371E+03  0.7546771E-02  0.1059523E+00
         21   -1    0    0  502  501  0.00000000000E+00  0.00000000000E+00  0.45785737044E+03  0.45785737044E+03  0.00000000000E+00 0. -1.
         21   -1    0    0  501  502 -0.00000000000E+00 -0.00000000000E+00 -0.27935395774E+03  0.27935395774E+03  0.00000000000E+00 0. -1.
         25    1    1    2    0    0 -0.13214004125E+03 -0.41434535458E+02 -0.96987448814E+02  0.21026025886E+03  0.12500000000E+03 0.  0.
         25    1    1    2    0    0  0.35477881153E+01  0.17955629400E+03  0.10023490164E+03  0.24067630756E+03  0.12500000000E+03 0.  0.
         25    1    1    2    0    0  0.12859225314E+03 -0.13812175854E+03  0.17525595987E+03  0.28627476176E+03  0.12500000000E+03 0.  0.
</event>
<event>
 5    0  0.5631475E-005  0.3551720E+03  0.7546771E-02  0.1060512E+00
         21   -1    0    0  502  501  0.00000000000E+00  0.00000000000E+00  0.10959123959E+04  0.10959123959E+04  0.00000000000E+00 0. -1.
         21   -1    0    0  501  502 -0.00000000000E+00 -0.00000000000E+00 -0.11510694149E+03  0.11510694149E+03  0.00000000000E+00 0. -1.
         25    1    1    2    0    0  0.96191365173E+02 -0.88504545775E+02  0.33648594418E+02  0.18396483703E+03  0.12500000000E+03 0.  0.
         25    1    1    2    0    0 -0.22039426488E+02  0.14058626527E+02  0.79055389995E+03  0.80080200426E+03  0.12500000000E+03 0.  0.
         25    1    1    2    0    0 -0.74151938684E+02  0.74445919249E+02  0.15660296008E+03  0.22625249614E+03  0.12500000000E+03 0.  0.
</event>
<event>
 5    0  0.5631475E-005  0.3728904E+03  0.7546771E-02  0.1053593E+00
         21   -1    0    0  502  501  0.00000000000E+00  0.00000000000E+00  0.58545809303E+02  0.58545809303E+02  0.00000000000E+00 0.  1.
         21   -1    0    0  501  502 -0.00000000000E+00 -0.00000000000E+00 -0.23750165971E+04  0.23750165971E+04  0.00000000000E+00 0.  1.
         25    1    1    2    0    0  0.98633966743E+02 -0.71226039371E+02 -0.19662025117E+03  0.26284278809E+03  0.12500000000E+03 0.  0.
         25    1    1    2    0    0  0.10094420884E+03  0.14814560403E+03 -0.92663790026E+03  0.95206073939E+03  0.12500000000E+03 0.  0.
         25    1    1    2    0    0 -0.19957817558E+03 -0.76919564662E+02 -0.11932126363E+04  0.12186588789E+04  0.12500000000E+03 0.  0.
</event>
<event>
 5    0  0.5631475E-005  0.2794958E+03  0.7546771E-02  0.1095965E+00
         21   -1    0    0  502  501  0.00000000000E+00  0.00000000000E+00  0.68877294307E+03  0.68877294307E+03  0.00000000000E+00 0.  1.
         21   -1    0    0  501  502 -0.00000000000E+00 -0.00000000000E+00 -0.11341604521E+03  0.11341604521E+03  0.00000000000E+00 0.  1.
         25    1    1    2    0    0  0.12192967652E+03 -0.10727394185E+03  0.21817446529E+03  0.29933199281E+03  0.12500000000E+03 0.  0.
         25    1    1    2    0    0 -0.12623224020E+03  0.13765074511E+03  0.21399793314E+03  0.31032631452E+03  0.12500000000E+03 0.  0.
         25    1    1    2    0    0  0.43025636824E+01 -0.30376803260E+02  0.14318449943E+03  0.19253068095E+03  0.12500000000E+03 0.  0.
</event>
<event>
 5    0  0.5631475E-005  0.3002517E+03  0.7546771E-02  0.1085115E+00
         21   -1    0    0  502  501  0.00000000000E+00  0.00000000000E+00  0.31117114769E+03  0.31117114769E+03  0.00000000000E+00 0.  1.
         21   -1    0    0  501  502 -0.00000000000E+00 -0.00000000000E+00 -0.28971545716E+03  0.28971545716E+03  0.00000000000E+00 0.  1.
         25    1    1    2    0    0  0.40588807238E+02 -0.80908480684E+02 -0.29223283599E+02  0.15707524892E+03  0.12500000000E+03 0.  0.
         25    1    1    2    0    0  0.94041671823E+02 -0.83072151415E+02 -0.39678297069E+02  0.18150533226E+03  0.12500000000E+03 0.  0.
         25    1    1    2    0    0 -0.13463047906E+03  0.16398063210E+03  0.90357271198E+02  0.26230602367E+03  0.12500000000E+03 0.  0.
</event>
<event>
 5    0  0.5730758E-005  0.3096332E+03  0.7546771E-02  0.1080522E+00
         21   -1    0    0  502  501  0.00000000000E+00  0.00000000000E+00  0.86103569096E+03  0.86103569096E+03  0.00000000000E+00 0.  1.
         21   -1    0    0  501  502 -0.00000000000E+00 -0.00000000000E+00 -0.11134580093E+03  0.11134580093E+03  0.00000000000E+00 0.  1.
         25    1    1    2    0    0  0.74047878917E+02  0.42379573732E+02  0.52223859221E+03  0.54372535700E+03  0.12500000000E+03 0.  0.
         25    1    1    2    0    0 -0.45467432552E+02  0.91993497146E+02  0.44017886567E+02  0.16760866707E+03  0.12500000000E+03 0.  0.
         25    1    1    2    0    0 -0.28580446364E+02 -0.13437307088E+03  0.18343341126E+03  0.26104746782E+03  0.12500000000E+03 0.  0.
</event>
<event>
 5    0  0.6477688E-005  0.4220113E+03  0.7546771E-02  0.1036414E+00
         21   -1    0    0  502  501  0.00000000000E+00  0.00000000000E+00  0.11670043017E+03  0.11670043017E+03  0.00000000000E+00 0.  1.
         21   -1    0    0  501  502 -0.00000000000E+00 -0.00000000000E+00 -0.15260740652E+04  0.15260740652E+04  0.00000000000E+00 0.  1.
         25    1    1    2    0    0  0.13665809016E+03  0.39502487832E+01 -0.26268463654E+02  0.18709909207E+03  0.12500000000E+03 0.  0.
         25    1    1    2    0    0  0.36293371767E+02  0.13961482109E+03 -0.70667754654E+03  0.73200250128E+03  0.12500000000E+03 0.  0.
         25    1    1    2    0    0 -0.17295146192E+03 -0.14356506987E+03 -0.67642762479E+03  0.72367290197E+03  0.12500000000E+03 0.  0.
</event>
<event>
 5    0  0.5631475E-005  0.2390313E+03  0.7546771E-02  0.1120440E+00
         21   -1    0    0  502  501  0.00000000000E+00  0.00000000000E+00  0.45800440562E+03  0.45800440562E+03  0.00000000000E+00 0.  1.
         21   -1    0    0  501  502 -0.00000000000E+00 -0.00000000000E+00 -0.12474982003E+03  0.12474982003E+03  0.00000000000E+00 0.  1.
         25    1    1    2    0    0  0.49708954212E+02 -0.71117918251E+02  0.82229884328E+02  0.17296095600E+03  0.12500000000E+03 0.  0.
         25    1    1    2    0    0  0.53684853197E+02  0.19211104189E+02  0.17703942118E+03  0.22409615490E+03  0.12500000000E+03 0.  0.
         25    1    1    2    0    0 -0.10339380741E+03  0.51906814062E+02  0.73985280081E+02  0.18569711475E+03  0.12500000000E+03 0.  0.
</event>
<event>
 5    0  0.5631475E-005  0.3783214E+03  0.7546771E-02  0.1051556E+00
         21   -1    0    0  502  501  0.00000000000E+00  0.00000000000E+00  0.20368693792E+03  0.20368693792E+03  0.00000000000E+00 0. -1.
         21   -1    0    0  501  502 -0.00000000000E+00 -0.00000000000E+00 -0.70268177105E+03  0.70268177105E+03  0.00000000000E+00 0. -1.
         25    1    1    2    0    0 -0.28526185500E+02 -0.20669615167E+03 -0.23698842446E+03  0.33959616562E+03  0.12500000000E+03 0.  0.
         25    1    1    2    0    0 -0.93001019204E+02  0.24841766673E+03 -0.64876159534E+02  0.30032389647E+03  0.12500000000E+03 0.  0.
         25    1    1    2    0    0  0.12152720470E+03 -0.41721515058E+02 -0.19713024913E+03  0.26644864688E+03  0.12500000000E+03 0.  0.
</event>
<event>
 5    0  0.5631475E-005  0.4249639E+03  0.7546771E-02  0.1035463E+00
         21   -1    0    0  502  501  0.00000000000E+00  0.00000000000E+00  0.97333343795E+03  0.97333343795E+03  0.00000000000E+00 0. -1.
         21   -1    0    0  501  502 -0.00000000000E+00 -0.00000000000E+00 -0.18554207782E+03  0.18554207782E+03  0.00000000000E+00 0. -1.
         25    1    1    2    0    0  0.35181333635E+02 -0.23326486182E+03  0.61819722518E+02  0.27403813619E+03  0.12500000000E+03 0.  0.
         25    1    1    2    0    0 -0.16731804867E+03  0.23072950197E+03  0.54881865723E+03  0.63091865642E+03  0.12500000000E+03 0.  0.
         25    1    1    2    0    0  0.13213671504E+03  0.25353598519E+01  0.17715298038E+03  0.25391872315E+03  0.12500000000E+03 0.  0.
</event>
<event>
 5    0  0.5631475E-005  0.3574216E+03  0.7546771E-02  0.1059609E+00
         21   -1    0    0  502  501  0.00000000000E+00  0.00000000000E+00  0.77514700753E+03  0.77514700753E+03  0.00000000000E+00 0. -1.
         21   -1    0    0  501  502 -0.00000000000E+00 -0.00000000000E+00 -0.16480773168E+03  0.16480773168E+03  0.00000000000E+00 0. -1.
         25    1    1    2    0    0  0.18626556127E+03 -0.41514292564E+02 -0.61590724401E-01  0.22813000590E+03  0.12500000000E+03 0.  0.
         25    1    1    2    0    0 -0.12602691762E+03 -0.17048553733E+02  0.48193759023E+03  0.51386990379E+03  0.12500000000E+03 0.  0.
         25    1    1    2    0    0 -0.60238643648E+02  0.58562846297E+02  0.12846327635E+03  0.19795482951E+03  0.12500000000E+03 0.  0.
</event>
<event>
 5    0  0.6173318E-005  0.4128265E+03  0.7546771E-02  0.1039427E+00
         21   -1    0    0  502  501  0.00000000000E+00  0.00000000000E+00  0.14036631878E+03  0.14036631878E+03  0.00000000000E+00 0. -1.
         21   -1    0    0  501  502 -0.00000000000E+00 -0.00000000000E+00 -0.12141496694E+04  0.12141496694E+04  0.00000000000E+00 0. -1.
         25    1    1    2    0    0  0.21335228716E+03  0.76289250409E+02 -0.38186585977E+03  0.46128709393E+03  0.12500000000E+03 0.  0.
         25    1    1    2    0    0 -0.71370866906E+02 -0.20874303759E+03 -0.58732060195E+03  0.63971708267E+03  0.12500000000E+03 0.  0.
         25    1    1    2    0    0 -0.14198142026E+03  0.13245378718E+03 -0.10459688889E+03  0.25351181156E+03  0.12500000000E+03 0.  0.
</event>
<event>
 5    0  0.5631475E-005  0.2499210E+03  0.7546771E-02  0.1113355E+00
         21   -1    0    0  502  501  0.00000000000E+00  0.00000000000E+00  0.10108016728E+04  0.10108016728E+04  0.00000000000E+00 0.  1.
         21   -1    0    0  501  502 -0.00000000000E+00 -0.00000000000E+00 -0.61793050937E+02  0.61793050937E+02  0.00000000000E+00 0.  1.
         25    1    1    2    0    0  0.37312488774E+02 -0.78006589464E+02  0.40136084472E+03  0.42917686038E+03  0.12500000000E+03 0.  0.
         25    1    1    2    0    0 -0.53624666738E+02 -0.61233410256E+02  0.22127907929E+03  0.26686057473E+03  0.12500000000E+03 0.  0.
         25    1    1    2    0    0  0.16312177964E+02  0.13923999972E+03  0.32636869784E+03  0.37655728861E+03  0.12500000000E+03 0.  0.
</event>
<event>
 5    0  0.5631475E-005  0.3157522E+03  0.7546771E-02  0.1077621E+00
         21   -1    0    0  502  501  0.00000000000E+00  0.00000000000E+00  0.40145763030E+03  0.40145763030E+03  0.00000000000E+00 0. -1.
         21   -1    0    0  501  502 -0.00000000000E+00 -0.00000000000E+00 -0.24834365861E+03  0.24834365861E+03  0.00000000000E+00 0. -1.
         25    1    1    2    0    0  0.68811726864E+02  0.79182994975E+02 -0.46276634618E+00  0.16318766681E+03  0.12500000000E+03 0.  0.
         25    1    1    2    0    0  0.92503125800E+02 -0.83981867247E+02 -0.64283092182E+02  0.18806142148E+03  0.12500000000E+03 0.  0.
         25    1    1    2    0    0 -0.16131485266E+03  0.47988722716E+01  0.21785983022E+03  0.29855220061E+03  0.12500000000E+03 0.  0.
</event>
<event>
 5    0  0.5631475E-005  0.2568945E+03  0.7546771E-02  0.1109024E+00
         21   -1    0    0  502  501  0.00000000000E+00  0.00000000000E+00  0.14057464546E+03  0.14057464546E+03  0.00000000000E+00 0.  1.
         21   -1    0    0  501  502 -0.00000000000E+00 -0.00000000000E+00 -0.46946423721E+03  0.46946423721E+03  0.00000000000E+00 0.  1.
         25    1    1    2    0    0 -0.30512078901E+02 -0.56128394228E+02 -0.47472679666E+00  0.14038022996E+03  0.12500000000E+03 0.  0.
         25    1    1    2    0    0  0.11559477292E+03  0.12505625257E+02 -0.12077193458E+03  0.20911576309E+03  0.12500000000E+03 0.  0.
         25    1    1    2    0    0 -0.85082694022E+02  0.43622768970E+02 -0.20764293038E+03  0.26054288962E+03  0.12500000000E+03 0.  0.
</event>
<event>
 5    0  0.5631475E-005  0.1977976E+03  0.7546771E-02  0.1151611E+00
         21   -1    0    0  502  501  0.00000000000E+00  0.00000000000E+00  0.36280358207E+02  0.36280358207E+02  0.00000000000E+00 0.  1.
         21   -1    0    0  501  502 -0.00000000000E+00 -0.00000000000E+00 -0.10783770262E+04  0.10783770262E+04  0.00000000000E+00 0.  1.
         25    1    1    2    0    0  0.29083538824E+02  0.13753030689E+02 -0.23367444012E+03  0.26695269627E+03  0.12500000000E+03 0.  0.
         25    1    1    2    0    0 -0.72245863300E+01 -0.14448956791E+02 -0.45744489521E+03  0.47449109492E+03  0.12500000000E+03 0.  0.
         25    1    1    2    0    0 -0.21858952494E+02  0.69592610275E+00 -0.35097733266E+03  0.37321359321E+03  0.12500000000E+03 0.  0.
</event>
<event>
 5    0  0.5631475E-005  0.3210480E+03  0.7546771E-02  0.1075168E+00
         21   -1    0    0  502  501  0.00000000000E+00  0.00000000000E+00  0.48055309005E+03  0.48055309005E+03  0.00000000000E+00 0.  1.
         21   -1    0    0  501  502 -0.00000000000E+00 -0.00000000000E+00 -0.21448575121E+03  0.21448575121E+03  0.00000000000E+00 0.  1.
         25    1    1    2    0    0 -0.90224854370E+02 -0.19900010551E+03  0.65742395402E+02  0.26017038435E+03  0.12500000000E+03 0.  0.
         25    1    1    2    0    0  0.12299598597E+03  0.10132373724E+03  0.18119616510E+03  0.27175643974E+03  0.12500000000E+03 0.  0.
         25    1    1    2    0    0 -0.32771131595E+02  0.97676368269E+02  0.19128778341E+02  0.16311201717E+03  0.12500000000E+03 0.  0.
</event>
<event>
 5    0  0.5631475E-005  0.2267896E+03  0.7546771E-02  0.1128920E+00
         21   -1    0    0  502  501  0.00000000000E+00  0.00000000000E+00  0.34393179239E+02  0.34393179239E+02  0.00000000000E+00 0. -1.
         21   -1    0    0  501  502 -0.00000000000E+00 -0.00000000000E+00 -0.14954575042E+04  0.14954575042E+04  0.00000000000E+00 0. -1.
         25    1    1    2    0    0  0.32116117727E+02 -0.72824923068E+02 -0.31213213233E+03  0.34552334577E+03  0.12500000000E+03 0.  0.
         25    1    1    2    0    0 -0.44265820393E+02  0.70971373638E+02 -0.45777077914E+03  0.48184591413E+03  0.12500000000E+03 0.  0.
         25    1    1    2    0    0  0.12149702666E+02  0.18535494299E+01 -0.69116141352E+03  0.70248142357E+03  0.12500000000E+03 0.  0.
</event>
<event>
 5    0  0.5631475E-005  0.3027210E+03  0.7546771E-02  0.1083888E+00
         21   -1    0    0  502  501  0.00000000000E+00  0.00000000000E+00  0.85378044001E+02  0.85378044001E+02  0.00000000000E+00 0.  1.
         21   -1    0    0  501  502 -0.00000000000E+00 -0.00000000000E+00 -0.10733435607E+04  0.10733435607E+04  0.00000000000E+00 0.  1.
         25    1    1    2    0    0  0.24831958914E+02 -0.13589392002E+03 -0.18052809371E+03  0.25942084785E+03  0.12500000000E+03 0.  0.
         25    1    1    2    0    0  0.54317917016E+01  0.20919337412E+03 -0.56348238489E+03  0.61394525018E+03  0.12500000000E+03 0.  0.
         25    1    1    2    0    0 -0.30263750616E+02 -0.73299454096E+02 -0.24395503812E+03  0.28535550669E+03  0.12500000000E+03 0.  0.
</event>
<event>
 5    0  0.5631475E-005  0.3535960E+03  0.7546771E-02  0.1061149E+00
         21   -1    0    0  502  501  0.00000000000E+00  0.00000000000E+00  0.67161784239E+03  0.67161784239E+03  0.00000000000E+00 0.  1.
         21   -1    0    0  501  502 -0.00000000000E+00 -0.00000000000E+00 -0.18616256327E+03  0.18616256327E+03  0.00000000000E+00 0.  1.
         25    1    1    2    0    0  0.63699808993E+02  0.21929623472E+02  0.29250806086E+03  0.32515310196E+03  0.12500000000E+03 0.  0.
         25    1    1    2    0    0 -0.39252279304E+02  0.96496345567E+02  0.29068395639E+03  0.33312827655E+03  0.12500000000E+03 0.  0.
         25    1    1    2    0    0 -0.24447529689E+02 -0.11842596904E+03 -0.97736738126E+02  0.19949902714E+03  0.12500000000E+03 0.  0.
</event>
<event>
 5    0  0.5631475E-005  0.2186856E+03  0.7546771E-02  0.1134867E+00
         21   -1    0    0  502  501  0.00000000000E+00  0.00000000000E+00  0.45149615171E+02  0.45149615171E+02  0.00000000000E+00 0.  1.
         21   -1    0    0  501  502 -0.00000000000E+00 -0.00000000000E+00 -0.10592207664E+04  0.10592207664E+04  0.00000000000E+00 0.  1.
         25    1    1    2    0    0 -0.48885568765E+02  0.25803324652E+02 -0.37667138395E+03  0.40070181168E+03  0.12500000000E+03 0.  0.
         25    1    1    2    0    0  0.96637411307E+02 -0.14281113395E+02 -0.27928670095E+03  0.32119900496E+03  0.12500000000E+03 0.  0.
         25    1    1    2    0    0 -0.47751842542E+02 -0.11522211257E+02 -0.35811306633E+03  0.38246956493E+03  0.12500000000E+03 0.  0.
</event>
<event>
 5    0  0.5631475E-005  0.4551663E+03  0.7546771E-02  0.1026193E+00
         21   -1    0    0  502  501  0.00000000000E+00  0.00000000000E+00  0.19678205264E+03  0.19678205264E+03  0.00000000000E+00 0.  1.
         21   -1    0    0  501  502 -0.00000000000E+00 -0.00000000000E+00 -0.10528212701E+04  0.10528212701E+04  0.00000000000E+00 0.  1.
         25    1    1    2    0    0  0.12640485124E+03  0.11066977940E+03 -0.58047071873E+03  0.61708770997E+03  0.12500000000E+03 0.  0.
         25    1    1    2    0    0 -0.25229002662E+03 -0.20614150680E+03 -0.94212334031E+02  0.36144922498E+03  0.12500000000E+03 0.  0.
         25    1    1    2    0    0  0.12588517538E+03  0.95471727400E+02 -0.18135616466E+03  0.27106638776E+03  0.12500000000E+03 0.  0.
</event>
<event>
 5    0  0.5631475E-005  0.2528262E+03  0.7546771E-02  0.1111532E+00
         21   -1    0    0  502  501  0.00000000000E+00  0.00000000000E+00  0.16285852933E+03  0.16285852933E+03  0.00000000000E+00 0. -1.
         21   -1    0    0  501  502 -0.00000000000E+00 -0.00000000000E+00 -0.39249448951E+03  0.39249448951E+03  0.00000000000E+00 0. -1.
         25    1    1    2    0    0 -0.81439529614E+02 -0.25494923170E+02 -0.92177927950E+02  0.17721218494E+03  0.12500000000E+03 0.  0.
         25    1    1    2    0    0  0.78356519510E+02  0.54944701846E+02  0.36779883731E+02  0.16166763516E+03  0.12500000000E+03 0.  0.
         25    1    1    2    0    0  0.30830101041E+01 -0.29449778675E+02 -0.17423791596E+03  0.21647319874E+03  0.12500000000E+03 0.  0.
</event>
<event>
 5    0  0.5631475E-005  0.3382351E+03  0.7546771E-02  0.1067550E+00
         21   -1    0    0  502  501  0.00000000000E+00  0.00000000000E+00  0.21097996694E+03  0.21097996694E+03  0.00000000000E+00 0. -1.
         21   -1    0    0  501  502 -0.00000000000E+00 -0.00000000000E+00 -0.54224558045E+03  0.54224558045E+03  0.00000000000E+00 0. -1.
         25    1    1    2    0    0 -0.22576876454E+03 -0.41609671529E+02 -0.45805117115E+02  0.26537899043E+03  0.12500000000E+03 0.  0.
         25    1    1    2    0    0  0.57410655705E+02 -0.15978349260E+02 -0.12766035847E+02  0.13906567767E+03  0.12500000000E+03 0.  0.
         25    1    1    2    0    0  0.16835810884E+03  0.57588020789E+02 -0.27269446055E+03  0.34878087930E+03  0.12500000000E+03 0.  0.
</event>
<event>
 5    0  0.5631475E-005  0.2205637E+03  0.7546771E-02  0.1133463E+00
         21   -1    0    0  502  501  0.00000000000E+00  0.00000000000E+00  0.29156554457E+03  0.29156554457E+03  0.00000000000E+00 0.  1.
         21   -1    0    0  501  502 -0.00000000000E+00 -0.00000000000E+00 -0.16685225034E+03  0.16685225034E+03  0.00000000000E+00 0.  1.
         25    1    1    2    0    0  0.69127402506E+01 -0.59499440103E+02 -0.14276833263E+02  0.13934416858E+03  0.12500000000E+03 0.  0.
         25    1    1    2    0    0 -0.22886375650E+02  0.40094951613E+01  0.12883579070E+03  0.18100697005E+03  0.12500000000E+03 0.  0.
         25    1    1    2    0    0  0.15973635400E+02  0.55489944942E+02  0.10154336790E+02  0.13806665627E+03  0.12500000000E+03 0.  0.
</event>
<event>
 5    0  0.5631475E-005  0.4374557E+03  0.7546771E-02  0.1031530E+00
         21   -1    0    0  502  501  0.00000000000E+00  0.00000000000E+00  0.12093999495E+03  0.12093999495E+03  0.00000000000E+00 0.  1.
         21   -1    0    0  501  502 -0.00000000000E+00 -0.00000000000E+00 -0.15823342049E+04  0.15823342049E+04  0.00000000000E+00 0.  1.
         25    1    1    2    0    0  0.13737729644E+03  0.28421377093E+03 -0.71438817885E+03  0.79096489128E+03  0.12500000000E+03 0.  0.
         25    1    1    2    0    0 -0.14255936296E+03 -0.31839813540E+03 -0.65746307706E+03  0.75470738853E+03  0.12500000000E+03 0.  0.
         25    1    1    2    0    0  0.51820665181E+01  0.34184364465E+02 -0.89542954069E+02  0.15760192007E+03  0.12500000000E+03 0.  0.
</event>
<event>
 5    0  0.5631475E-005  0.7574998E+03  0.7546771E-02  0.9623657E-01
         21   -1    0    0  502  501  0.00000000000E+00  0.00000000000E+00  0.52395930425E+03  0.52395930425E+03  0.00000000000E+00 0. -1.
         21   -1    0    0  501  502 -0.00000000000E+00 -0.00000000000E+00 -0.10951344987E+04  0.10951344987E+04  0.00000000000E+00 0. -1.
         25    1    1    2    0    0  0.24798738811E+03 -0.95742498386E+02 -0.53488862892E+02  0.29858069112E+03  0.12500000000E+03 0.  0.
         25    1    1    2    0    0 -0.47542573561E+03  0.23858783482E+03 -0.76120990091E+03  0.93702683966E+03  0.12500000000E+03 0.  0.
         25    1    1    2    0    0  0.22743834750E+03 -0.14284533643E+03  0.24352356939E+03  0.38348627212E+03  0.12500000000E+03 0.  0.
</event>
<event>
 5    0  0.5631475E-005  0.2381535E+03  0.7546771E-02  0.1121029E+00
         21   -1    0    0  502  501  0.00000000000E+00  0.00000000000E+00  0.25247080991E+03  0.25247080991E+03  0.00000000000E+00 0. -1.
         21   -1    0    0  501  502 -0.00000000000E+00 -0.00000000000E+00 -0.22464809949E+03  0.22464809949E+03  0.00000000000E+00 0. -1.
         25    1    1    2    0    0 -0.59917053490E+02  0.71867348875E+02  0.33866582777E+02  0.15977144476E+03  0.12500000000E+03 0.  0.
         25    1    1    2    0    0  0.74144006384E+02 -0.90029767762E+02  0.50446859528E+02  0.17824864208E+03  0.12500000000E+03 0.  0.
         25    1    1    2    0    0 -0.14226952894E+02  0.18162418886E+02 -0.56490731891E+02  0.13909882256E+03  0.12500000000E+03 0.  0.
</event>
<event>
 5    0  0.6858218E-005  0.4411217E+03  0.7546771E-02  0.1030403E+00
         21   -1    0    0  502  501  0.00000000000E+00  0.00000000000E+00  0.36911477856E+03  0.36911477856E+03  0.00000000000E+00 0.  1.
         21   -1    0    0  501  502 -0.00000000000E+00 -0.00000000000E+00 -0.52717567223E+03  0.52717567223E+03  0.00000000000E+00 0.  1.
         25    1    1    2    0    0  0.12778064689E+03  0.31284402183E+03 -0.12359372006E+03  0.38091952346E+03  0.12500000000E+03 0.  0.
         25    1    1    2    0    0  0.24133674908E+02 -0.21712178803E+03  0.85546208353E+02  0.26583351720E+03  0.12500000000E+03 0.  0.
         25    1    1    2    0    0 -0.15191432180E+03 -0.95722233799E+02 -0.12001338196E+03  0.24953741014E+03  0.12500000000E+03 0.  0.
</event>
<event>
 5    0  0.5631475E-005  0.3107196E+03  0.7546771E-02  0.1080001E+00
         21   -1    0    0  502  501  0.00000000000E+00  0.00000000000E+00  0.11347984481E+04  0.11347984481E+04  0.00000000000E+00 0. -1.
         21   -1    0    0  501  502 -0.00000000000E+00 -0.00000000000E+00 -0.85078229228E+02  0.85078229228E+02  0.00000000000E+00 0. -1.
         25    1    1    2    0    0  0.63463663606E+02  0.38012175403E+02  0.12259560400E+03  0.19007168173E+03  0.12500000000E+03 0.  0.
         25    1    1    2    0    0 -0.10601678507E+03  0.13213102075E+03  0.61939077509E+03  0.65419270680E+03  0.12500000000E+03 0.  0.
         25    1    1    2    0    0  0.42553121461E+02 -0.17014319615E+03  0.30773383975E+03  0.37561228876E+03  0.12500000000E+03 0.  0.
</event>
<event>
 5    0  0.5631475E-005  0.4468963E+03  0.7546771E-02  0.1028652E+00
         21   -1    0    0  502  501  0.00000000000E+00  0.00000000000E+00  0.46893482361E+03  0.46893482361E+03  0.00000000000E+00 0. -1.
         21   -1    0    0  501  502 -0.00000000000E+00 -0.00000000000E+00 -0.42589348496E+03  0.42589348496E+03  0.00000000000E+00 0.  1.
         25    1    1    2    0    0  0.44879122401E+01  0.33304642272E+02  0.63560468446E+02  0.14420219729E+03  0.12500000000E+03 0.  0.
         25    1    1    2    0    0 -0.32629494611E+03  0.12273761013E+03 -0.30809043972E+02  0.37162764965E+03  0.12500000000E+03 0.  0.
         25    1    1    2    0    0  0.32180703387E+03 -0.15604225240E+03  0.10289914178E+02  0.37899846163E+03  0.12500000000E+03 0.  0.
</event>
<event>
 5    0  0.5631475E-005  0.2426598E+03  0.7546771E-02  0.1118034E+00
         21   -1    0    0  502  501  0.00000000000E+00  0.00000000000E+00  0.95423155549E+03  0.95423155549E+03  0.00000000000E+00 0. -1.
         21   -1    0    0  501  502 -0.00000000000E+00 -0.00000000000E+00 -0.61708036728E+02  0.61708036728E+02  0.00000000000E+00 0.  1.
         25    1    1    2    0    0 -0.41803483591E+02  0.54145182421E+02  0.27893607711E+03  0.31322446765E+03  0.12500000000E+03 0.  0.
         25    1    1    2    0    0 -0.68418286226E+02  0.13559322670E+02  0.39192532215E+03  0.41724737898E+03  0.12500000000E+03 0.  0.
         25    1    1    2    0    0  0.11022176982E+03 -0.67704505091E+02  0.22166211950E+03  0.28546774559E+03  0.12500000000E+03 0.  0.
</event>
<event>
 5    0  0.5947986E-005  0.4278295E+03  0.7546771E-02  0.1034548E+00
         21   -1    0    0  502  501  0.00000000000E+00  0.00000000000E+00  0.30511458564E+03  0.30511458564E+03  0.00000000000E+00 0.  1.
         21   -1    0    0  501  502 -0.00000000000E+00 -0.00000000000E+00 -0.59989943518E+03  0.59989943518E+03  0.00000000000E+00 0.  1.
         25    1    1    2    0    0 -0.55150769798E+02 -0.31273377415E+03 -0.20687469772E+03  0.39908164761E+03  0.12500000000E+03 0.  0.
         25    1    1    2    0    0  0.16519032185E+03  0.12567891314E+03 -0.57900815734E+01  0.24236657501E+03  0.12500000000E+03 0.  0.
         25    1    1    2    0    0 -0.11003955205E+03  0.18705486101E+03 -0.82120070234E+02  0.26356579819E+03  0.12500000000E+03 0.  0.
</event>
<event>
 5    0  0.5631475E-005  0.3105448E+03  0.7546771E-02  0.1080085E+00
         21   -1    0    0  502  501  0.00000000000E+00  0.00000000000E+00  0.29631562355E+03  0.29631562355E+03  0.00000000000E+00 0. -1.
         21   -1    0    0  501  502 -0.00000000000E+00 -0.00000000000E+00 -0.32545726945E+03  0.32545726945E+03  0.00000000000E+00 0. -1.
         25    1    1    2    0    0  0.13023830387E+03 -0.10476132433E+03  0.76723174095E+02  0.22236995371E+03  0.12500000000E+03 0.  0.
         25    1    1    2    0    0  0.60185595007E+02  0.15574706843E+02 -0.25491957694E+02  0.14191447159E+03  0.12500000000E+03 0.  0.
         25    1    1    2    0    0 -0.19042389888E+03  0.89186617485E+02 -0.80372862299E+02  0.25748846770E+03  0.12500000000E+03 0.  0.
</event>
<event>
 5    0  0.5631475E-005  0.2559198E+03  0.7546771E-02  0.1109620E+00
         21   -1    0    0  502  501  0.00000000000E+00  0.00000000000E+00  0.22959083646E+03  0.22959083646E+03  0.00000000000E+00 0. -1.
         21   -1    0    0  501  502 -0.00000000000E+00 -0.00000000000E+00 -0.28526811490E+03  0.28526811490E+03  0.00000000000E+00 0. -1.
         25    1    1    2    0    0  0.83267167258E+02 -0.13446211105E+02 -0.67904393548E+02  0.16537904462E+03  0.12500000000E+03 0.  0.
         25    1    1    2    0    0 -0.76636028874E+02  0.27055142000E+02 -0.10104718203E+03  0.18011272755E+03  0.12500000000E+03 0.  0.
         25    1    1    2    0    0 -0.66311383835E+01 -0.13608930895E+02  0.11327429714E+03  0.16936717919E+03  0.12500000000E+03 0.  0.
</event>
<event>
 5    0  0.5631475E-005  0.2377728E+03  0.7546771E-02  0.1121285E+00
         21   -1    0    0  502  501  0.00000000000E+00  0.00000000000E+00  0.14670950110E+03  0.14670950110E+03  0.00000000000E+00 0.  1.
         21   -1    0    0  501  502 -0.00000000000E+00 -0.00000000000E+00 -0.38535967727E+03  0.38535967727E+03  0.00000000000E+00 0.  1.
         25    1    1    2    0    0  0.10608113368E+03 -0.80124488294E+02 -0.94578639682E+02  0.20553165116E+03  0.12500000000E+03 0.  0.
         25    1    1    2    0    0 -0.21636130237E+02  0.58372845802E+02 -0.55572709938E+02  0.15029583277E+03  0.12500000000E+03 0.  0.
         25    1    1    2    0    0 -0.84445003439E+02  0.21751642492E+02 -0.88498826546E+02  0.17624169443E+03  0.12500000000E+03 0.  0.
</event>
<event>
 5    0  0.5631475E-005  0.4072499E+03  0.7546771E-02  0.1041298E+00
         21   -1    0    0  502  501  0.00000000000E+00  0.00000000000E+00  0.62237527402E+03  0.62237527402E+03  0.00000000000E+00 0. -1.
         21   -1    0    0  501  502 -0.00000000000E+00 -0.00000000000E+00 -0.26648310335E+03  0.26648310335E+03  0.00000000000E+00 0. -1.
         25    1    1    2    0    0 -0.13297877690E+03 -0.11926861701E+03 -0.57913734956E+02  0.22558226616E+03  0.12500000000E+03 0.  0.
         25    1    1    2    0    0  0.55990951675E+01  0.23013307312E+03  0.36208643613E+03  0.44690510004E+03  0.12500000000E+03 0.  0.
         25    1    1    2    0    0  0.12737968174E+03 -0.11086445612E+03  0.51719469494E+02  0.21637101117E+03  0.12500000000E+03 0.  0.
</event>
<event>
 5    0  0.5631475E-005  0.4139962E+03  0.7546771E-02  0.1039038E+00
         21   -1    0    0  502  501  0.00000000000E+00  0.00000000000E+00  0.54234194855E+03  0.54234194855E+03  0.00000000000E+00 0. -1.
         21   -1    0    0  501  502 -0.00000000000E+00 -0.00000000000E+00 -0.31602363053E+03  0.31602363053E+03  0.00000000000E+00 0. -1.
         25    1    1    2    0    0 -0.14106502794E+03 -0.20568647995E+03  0.70237875528E+02  0.28768842400E+03  0.12500000000E+03 0.  0.
         25    1    1    2    0    0 -0.53362352099E+02 -0.95692710360E+02  0.20917050010E+02  0.16753255928E+03  0.12500000000E+03 0.  0.
         25    1    1    2    0    0  0.19442738004E+03  0.30137919031E+03  0.13516339249E+03  0.40314459581E+03  0.12500000000E+03 0.  0.
</event>
<event>
 5    0  0.6040224E-005  0.5014452E+03  0.7546771E-02  0.1013402E+00
         21   -1    0    0  502  501  0.00000000000E+00  0.00000000000E+00  0.10954983679E+04  0.10954983679E+04  0.00000000000E+00 0. -1.
         21   -1    0    0  501  502 -0.00000000000E+00 -0.00000000000E+00 -0.22952774969E+03  0.22952774969E+03  0.00000000000E+00 0. -1.
         25    1    1    2    0    0  0.21265985444E+03 -0.16678202690E+03 -0.13669266494E+02  0.29808104104E+03  0.12500000000E+03 0.  0.
         25    1    1    2    0    0 -0.21220725765E+02  0.55089494378E+02  0.70475056049E+03  0.71818070435E+03  0.12500000000E+03 0.  0.
         25    1    1    2    0    0 -0.19143912867E+03  0.11169253252E+03  0.17488932421E+03  0.30876437218E+03  0.12500000000E+03 0.  0.
</event>
<event>
 5    0  0.5743513E-005  0.2540820E+03  0.7546771E-02  0.1110752E+00
         21   -1    0    0  502  501  0.00000000000E+00  0.00000000000E+00  0.26314783755E+03  0.26314783755E+03  0.00000000000E+00 0. -1.
         21   -1    0    0  501  502 -0.00000000000E+00 -0.00000000000E+00 -0.24532845341E+03  0.24532845341E+03  0.00000000000E+00 0. -1.
         25    1    1    2    0    0 -0.57258714776E+02 -0.11101691907E+03  0.67303205643E+02  0.18909795934E+03  0.12500000000E+03 0.  0.
         25    1    1    2    0    0 -0.10615020641E+02 -0.13381722871E+02 -0.27675228182E+02  0.12916140068E+03  0.12500000000E+03 0.  0.
         25    1    1    2    0    0  0.67873735417E+02  0.12439864194E+03 -0.21808593327E+02  0.19021693095E+03  0.12500000000E+03 0.  0.
</event>
<event>
 5    0  0.5631475E-005  0.4045275E+03  0.7546771E-02  0.1042223E+00
         21   -1    0    0  502  501  0.00000000000E+00  0.00000000000E+00  0.61153437101E+03  0.61153437101E+03  0.00000000000E+00 0.  1.
         21   -1    0    0  501  502 -0.00000000000E+00 -0.00000000000E+00 -0.26759326394E+03  0.26759326394E+03  0.00000000000E+00 0.  1.
         25    1    1    2    0    0 -0.24015972601E+02  0.17920740159E+03  0.31289491557E+03  0.38238761475E+03  0.12500000000E+03 0.  0.
         25    1    1    2    0    0 -0.41943622382E+01 -0.10292459345E+03  0.20909113249E+03  0.26449038980E+03  0.12500000000E+03 0.  0.
         25    1    1    2    0    0  0.28210334839E+02 -0.76282808141E+02 -0.17804494098E+03  0.23224963040E+03  0.12500000000E+03 0.  0.
</event>
<event>
 5    0  0.6876977E-005  0.3726508E+03  0.7546771E-02  0.1053684E+00
         21   -1    0    0  502  501  0.00000000000E+00  0.00000000000E+00  0.10814171575E+04  0.10814171575E+04  0.00000000000E+00 0. -1.
         21   -1    0    0  501  502 -0.00000000000E+00 -0.00000000000E+00 -0.12841353036E+03  0.12841353036E+03  0.00000000000E+00 0. -1.
         25    1    1    2    0    0  0.69429858712E+02  0.14551665818E+03  0.53674436902E+03  0.57420825557E+03  0.12500000000E+03 0.  0.
         25    1    1    2    0    0  0.12539912420E+03  0.22925796149E+02  0.84813613180E+02  0.19765849706E+03  0.12500000000E+03 0.  0.
         25    1    1    2    0    0 -0.19482898291E+03 -0.16844245433E+03  0.33144564489E+03  0.43796393518E+03  0.12500000000E+03 0.  0.
</event>
<event>
 5    0  0.5631475E-005  0.3318530E+03  0.7546771E-02  0.1070320E+00
         21   -1    0    0  502  501  0.00000000000E+00  0.00000000000E+00  0.24907969924E+02  0.24907969924E+02  0.00000000000E+00 0. -1.
         21   -1    0    0  501  502 -0.00000000000E+00 -0.00000000000E+00 -0.44213333608E+04  0.44213333608E+04  0.00000000000E+00 0. -1.
         25    1    1    2    0    0  0.14315561337E+03  0.13496898689E+03 -0.31385616004E+04  0.31472057570E+04  0.12500000000E+03 0.  0.
         25    1    1    2    0    0 -0.84884667841E+02 -0.37825257997E+02 -0.60086262776E+03  0.62072300941E+03  0.12500000000E+03 0.  0.
         25    1    1    2    0    0 -0.58270945530E+02 -0.97143728898E+02 -0.65700116264E+03  0.67831256429E+03  0.12500000000E+03 0.  0.
</event>
<event>
 5    0  0.5631475E-005  0.3373468E+03  0.7546771E-02  0.1067932E+00
         21   -1    0    0  502  501  0.00000000000E+00  0.00000000000E+00  0.54307989646E+03  0.54307989646E+03  0.00000000000E+00 0.  1.
         21   -1    0    0  501  502 -0.00000000000E+00 -0.00000000000E+00 -0.20955089564E+03  0.20955089564E+03  0.00000000000E+00 0.  1.
         25    1    1    2    0    0 -0.10393180636E+03  0.11942404794E+03  0.18988871925E+02  0.20260676409E+03  0.12500000000E+03 0.  0.
         25    1    1    2    0    0  0.13272164995E+02 -0.97922422192E+02  0.35485680214E+03  0.38899010418E+03  0.12500000000E+03 0.  0.
         25    1    1    2    0    0  0.90659641360E+02 -0.21501625753E+02 -0.40316673239E+02  0.16103392383E+03  0.12500000000E+03 0.  0.
</event>
<event>
 5    0  0.5631475E-005  0.3098719E+03  0.7546771E-02  0.1080407E+00
         21   -1    0    0  502  501  0.00000000000E+00  0.00000000000E+00  0.10685139991E+03  0.10685139991E+03  0.00000000000E+00 0.  1.
         21   -1    0    0  501  502 -0.00000000000E+00 -0.00000000000E+00 -0.89863671260E+03  0.89863671260E+03  0.00000000000E+00 0.  1.
         25    1    1    2    0    0  0.80773657103E+01 -0.77420035812E+02 -0.95916901287E+02  0.17573889079E+03  0.12500000000E+03 0.  0.
         25    1    1    2    0    0  0.60507488196E+01  0.14605980764E+03 -0.99789730237E+02  0.21668656910E+03  0.12500000000E+03 0.  0.
         25    1    1    2    0    0 -0.14128114530E+02 -0.68639771829E+02 -0.59607868117E+03  0.61306265262E+03  0.12500000000E+03 0.  0.
</event>
<event>
 5    0  0.5631475E-005  0.3852715E+03  0.7546771E-02  0.1049002E+00
         21   -1    0    0  502  501  0.00000000000E+00  0.00000000000E+00  0.94989348433E+02  0.94989348433E+02  0.00000000000E+00 0. -1.
         21   -1    0    0  501  502 -0.00000000000E+00 -0.00000000000E+00 -0.15626398315E+04  0.15626398315E+04  0.00000000000E+00 0. -1.
         25    1    1    2    0    0 -0.17263498713E+03 -0.14532584156E+02 -0.39917838159E+03  0.45274983723E+03  0.12500000000E+03 0.  0.
         25    1    1    2    0    0  0.19085513596E+03  0.74760635947E+01 -0.13990152161E+03  0.26772935999E+03  0.12500000000E+03 0.  0.
         25    1    1    2    0    0 -0.18220148831E+02  0.70565205617E+01 -0.92857057989E+03  0.93714998274E+03  0.12500000000E+03 0.  0.
</event>
<event>
 5    0  0.5631475E-005  0.2489835E+03  0.7546771E-02  0.1113949E+00
         21   -1    0    0  502  501  0.00000000000E+00  0.00000000000E+00  0.13990411285E+04  0.13990411285E+04  0.00000000000E+00 0.  1.
         21   -1    0    0  501  502 -0.00000000000E+00 -0.00000000000E+00 -0.44310891127E+02  0.44310891127E+02  0.00000000000E+00 0.  1.
         25    1    1    2    0    0 -0.75207325944E+02 -0.48122463541E+02  0.42945008761E+03  0.45609680016E+03  0.12500000000E+03 0.  0.
         25    1    1    2    0    0  0.14108884636E+03  0.60019588832E+02  0.45703470759E+03  0.49801017816E+03  0.12500000000E+03 0.  0.
         25    1    1    2    0    0 -0.65881520416E+02 -0.11897125291E+02  0.46824544220E+03  0.48924504133E+03  0.12500000000E+03 0.  0.
</event>
<event>
 5    0  0.5631475E-005  0.4056546E+03  0.7546771E-02  0.1041839E+00
         21   -1    0    0  502  501  0.00000000000E+00  0.00000000000E+00  0.62466812923E+02  0.62466812923E+02  0.00000000000E+00 0. -1.
         21   -1    0    0  501  502 -0.00000000000E+00 -0.00000000000E+00 -0.26342888444E+04  0.26342888444E+04  0.00000000000E+00 0. -1.
         25    1    1    2    0    0  0.17246081687E+03  0.82498498437E+02 -0.40313791929E+03  0.46335075004E+03  0.12500000000E+03 0.  0.
         25    1    1    2    0    0 -0.24545006544E+03 -0.12883221090E+03 -0.79222731977E+03  0.84858270038E+03  0.12500000000E+03 0.  0.
         25    1    1    2    0    0  0.72989248570E+02  0.46333712466E+02 -0.13764567924E+04  0.13848222069E+04  0.12500000000E+03 0.  0.
</event>
<event>
 5    0  0.5631475E-005  0.3753966E+03  0.7546771E-02  0.1052648E+00
         21   -1    0    0  502  501  0.00000000000E+00  0.00000000000E+00  0.59205158813E+03  0.59205158813E+03  0.00000000000E+00 0.  1.
         21   -1    0    0  501  502 -0.00000000000E+00 -0.00000000000E+00 -0.23802418129E+03  0.23802418129E+03  0.00000000000E+00 0.  1.
         25    1    1    2    0    0 -0.11634607078E+03  0.26537050808E+02  0.18228100577E+02  0.17377539211E+03  0.12500000000E+03 0.  0.
         25    1    1    2    0    0  0.25262356629E+03  0.12888106932E+03  0.25574562874E+03  0.40182063522E+03  0.12500000000E+03 0.  0.
         25    1    1    2    0    0 -0.13627749551E+03 -0.15541812013E+03  0.80053677530E+02  0.25447974208E+03  0.12500000000E+03 0.  0.
</event>
<event>
 5    0  0.5631475E-005  0.2144151E+03  0.7546771E-02  0.1138117E+00
         21   -1    0    0  502  501  0.00000000000E+00  0.00000000000E+00  0.97372927618E+03  0.97372927618E+03  0.00000000000E+00 0.  1.
         21   -1    0    0  501  502 -0.00000000000E+00 -0.00000000000E+00 -0.47214189097E+02  0.47214189097E+02  0.00000000000E+00 0.  1.
         25    1    1    2    0    0  0.66878646690E+02  0.27093723353E+02  0.40929474745E+03  0.43399771142E+03  0.12500000000E+03 0.  0.
         25    1    1    2    0    0 -0.15936726034E+02  0.28846355810E+02  0.20720964278E+03  0.24422720475E+03  0.12500000000E+03 0.  0.
         25    1    1    2    0    0 -0.50941920656E+02 -0.55940079163E+02  0.31001069685E+03  0.34271854910E+03  0.12500000000E+03 0.  0.
</event>
<event>
 5    0  0.5631475E-005  0.2501263E+03  0.7546771E-02  0.1113225E+00
         21   -1    0    0  502  501  0.00000000000E+00  0.00000000000E+00  0.85147231836E+03  0.85147231836E+03  0.00000000000E+00 0. -1.
         21   -1    0    0  501  502 -0.00000000000E+00 -0.00000000000E+00 -0.73476427912E+02  0.73476427912E+02  0.00000000000E+00 0. -1.
         25    1    1    2    0    0 -0.61862944570E+01 -0.27521262234E+01  0.40784192613E+03  0.42662147291E+03  0.12500000000E+03 0.  0.
         25    1    1    2    0    0 -0.25562815678E+02  0.48010925669E+02  0.32814943604E+03  0.35533865382E+03  0.12500000000E+03 0.  0.
         25    1    1    2    0    0  0.31749110135E+02 -0.45258799446E+02  0.42004528279E+02  0.14298861954E+03  0.12500000000E+03 0.  0.
</event>
<event>
 5    0  0.5631475E-005  0.4187357E+03  0.7546771E-02  0.1037479E+00
         21   -1    0    0  502  501  0.00000000000E+00  0.00000000000E+00  0.73298724624E+03  0.73298724624E+03  0.00000000000E+00 0. -1.
         21   -1    0    0  501  502 -0.00000000000E+00 -0.00000000000E+00 -0.23921231480E+03  0.23921231480E+03  0.00000000000E+00 0.  1.
         25    1    1    2    0    0  0.87653515541E+02  0.69184503858E+01  0.27562330412E+01  0.15285156382E+03  0.12500000000E+03 0.  0.
         25    1    1    2    0    0  0.84907731728E+01 -0.26915085314E+03  0.40374498184E+03  0.50114796750E+03  0.12500000000E+03 0.  0.
         25    1    1    2    0    0 -0.96144288714E+02  0.26223240275E+03  0.87273716555E+02  0.31820002971E+03  0.12500000000E+03 0.  0.
</event>
<event>
 5    0  0.5631475E-005  0.3299880E+03  0.7546771E-02  0.1071142E+00
         21   -1    0    0  502  501  0.00000000000E+00  0.00000000000E+00  0.15681074895E+04  0.15681074895E+04  0.00000000000E+00 0. -1.
         21   -1    0    0  501  502 -0.00000000000E+00 -0.00000000000E+00 -0.69441699001E+02  0.69441699001E+02  0.00000000000E+00 0. -1.
         25    1    1    2    0    0  0.93498644030E+02  0.22939099026E+03  0.45364997930E+03  0.53177582361E+03  0.12500000000E+03 0.  0.
         25    1    1    2    0    0 -0.54224468491E+02 -0.16595550055E+03  0.66621788661E+03  0.69996628032E+03  0.12500000000E+03 0.  0.
         25    1    1    2    0    0 -0.39274175539E+02 -0.63435489713E+02  0.37879792455E+03  0.40580708454E+03  0.12500000000E+03 0.  0.
</event>
<event>
 5    0  0.5631475E-005  0.3775544E+03  0.7546771E-02  0.1051841E+00
         21   -1    0    0  502  501  0.00000000000E+00  0.00000000000E+00  0.55801147050E+03  0.55801147050E+03  0.00000000000E+00 0.  1.
         21   -1    0    0  501  502 -0.00000000000E+00 -0.00000000000E+00 -0.25545596641E+03  0.25545596641E+03  0.00000000000E+00 0.  1.
         25    1    1    2    0    0 -0.10799141476E+03 -0.78526858547E+02  0.17137222138E+03  0.25064327526E+03  0.12500000000E+03 0.  0.
         25    1    1    2    0    0 -0.12312370405E+03  0.65020374525E+00 -0.10203707132E+03  0.20296904490E+03  0.12500000000E+03 0.  0.
         25    1    1    2    0    0  0.23111511881E+03  0.77876654802E+02  0.23322035404E+03  0.35985511674E+03  0.12500000000E+03 0.  0.
</event>
<event>
 5    0  0.5631475E-005  0.3991510E+03  0.7546771E-02  0.1044074E+00
         21   -1    0    0  502  501  0.00000000000E+00  0.00000000000E+00  0.35895971355E+03  0.35895971355E+03  0.00000000000E+00 0. -1.
         21   -1    0    0  501  502 -0.00000000000E+00 -0.00000000000E+00 -0.44384239936E+03  0.44384239936E+03  0.00000000000E+00 0. -1.
         25    1    1    2    0    0  0.12953630098E+02  0.95429972718E+01  0.14723252145E+03  0.19380732882E+03  0.12500000000E+03 0.  0.
         25    1    1    2    0    0  0.15067920372E+03 -0.69255469453E+02 -0.31653451831E+03  0.37857580980E+03  0.12500000000E+03 0.  0.
         25    1    1    2    0    0 -0.16363283382E+03  0.59712472181E+02  0.84419311050E+02  0.23041897430E+03  0.12500000000E+03 0.  0.
</event>
<event>
 5    0  0.6204134E-005  0.2634025E+03  0.7546771E-02  0.1105116E+00
         21   -1    0    0  502  501  0.00000000000E+00  0.00000000000E+00  0.27665301691E+03  0.27665301691E+03  0.00000000000E+00 0.  1.
         21   -1    0    0  501  502 -0.00000000000E+00 -0.00000000000E+00 -0.25078659643E+03  0.25078659643E+03  0.00000000000E+00 0.  1.
         25    1    1    2    0    0  0.31675181196E+02 -0.18590466832E+02  0.91884365272E+02  0.15942603032E+03  0.12500000000E+03 0.  0.
         25    1    1    2    0    0 -0.37382478753E+02  0.71496507767E+02  0.79708649955E+02  0.16878290559E+03  0.12500000000E+03 0.  0.
         25    1    1    2    0    0  0.57072975569E+01 -0.52906040935E+02 -0.14572659475E+03  0.19923067743E+03  0.12500000000E+03 0.  0.
</event>
<event>
 5    0  0.5631475E-005  0.2592376E+03  0.7546771E-02  0.1107602E+00
         21   -1    0    0  502  501  0.00000000000E+00  0.00000000000E+00  0.67962228667E+03  0.67962228667E+03  0.00000000000E+00 0. -1.
         21   -1    0    0  501  502 -0.00000000000E+00 -0.00000000000E+00 -0.98884560943E+02  0.98884560943E+02  0.00000000000E+00 0. -1.
         25    1    1    2    0    0 -0.42354129439E+02  0.88878557912E+02  0.13684471329E+03  0.20986840136E+03  0.12500000000E+03 0.  0.
         25    1    1    2    0    0  0.55864612799E+02 -0.15516269246E+03  0.31424370268E+03  0.37625844943E+03  0.12500000000E+03 0.  0.
         25    1    1    2    0    0 -0.13510483360E+02  0.66284134550E+02  0.12964930976E+03  0.19237999682E+03  0.12500000000E+03 0.  0.
</event>
<event>
 5    0  0.5631475E-005  0.2660502E+03  0.7546771E-02  0.1103562E+00
         21   -1    0    0  502  501  0.00000000000E+00  0.00000000000E+00  0.86481491303E+03  0.86481491303E+03  0.00000000000E+00 0. -1.
         21   -1    0    0  501  502 -0.00000000000E+00 -0.00000000000E+00 -0.81847210252E+02  0.81847210252E+02  0.00000000000E+00 0. -1.
         25    1    1    2    0    0  0.12157636722E+02 -0.10014289840E+03  0.25414516446E+03  0.30065124787E+03  0.12500000000E+03 0.  0.
         25    1    1    2    0    0  0.40637106933E+02  0.81290196118E+02  0.74657749975E+02  0.17163405861E+03  0.12500000000E+03 0.  0.
         25    1    1    2    0    0 -0.52794743655E+02  0.18852702280E+02  0.45416478835E+03  0.47437681680E+03  0.12500000000E+03 0.  0.
</event>
<event>
 5    0  0.5631475E-005  0.3404650E+03  0.7546771E-02  0.1066598E+00
         21   -1    0    0  502  501  0.00000000000E+00  0.00000000000E+00  0.32354146479E+03  0.32354146479E+03  0.00000000000E+00 0.  1.
         21   -1    0    0  501  502 -0.00000000000E+00 -0.00000000000E+00 -0.35827370815E+03  0.35827370815E+03  0.00000000000E+00 0.  1.
         25    1    1    2    0    0  0.21414960586E+03 -0.31107111451E+02  0.84402023972E+02  0.26377340223E+03  0.12500000000E+03 0.  0.
         25    1    1    2    0    0 -0.20077683920E+03  0.14444848350E+02 -0.15871726735E+03  0.28519495746E+03  0.12500000000E+03 0.  0.
         25    1    1    2    0    0 -0.13372766657E+02  0.16662263101E+02  0.39583000020E+02  0.13284681325E+03  0.12500000000E+03 0.  0.
</event>
<event>
 5    0  0.5631475E-005  0.4293094E+03  0.7546771E-02  0.1034078E+00
         21   -1    0    0  502  501  0.00000000000E+00  0.00000000000E+00  0.60542614721E+02  0.60542614721E+02  0.00000000000E+00 0.  1.
         21   -1    0    0  501  502 -0.00000000000E+00 -0.00000000000E+00 -0.30442447277E+04  0.30442447277E+04  0.00000000000E+00 0.  1.
         25    1    1    2    0    0 -0.23948415217E+03 -0.52218245036E+02 -0.51793196780E+03  0.58647926436E+03  0.12500000000E+03 0.  0.
         25    1    1    2    0    0 -0.76655125751E+02  0.32926474658E+02 -0.11242343674E+04  0.11342345763E+04  0.12500000000E+03 0.  0.
         25    1    1    2    0    0  0.31613927792E+03  0.19291770378E+02 -0.13415357777E+04  0.13840735018E+04  0.12500000000E+03 0.  0.
</event>
<event>
 5    0  0.5631475E-005  0.2816022E+03  0.7546771E-02  0.1094817E+00
         21   -1    0    0  502  501  0.00000000000E+00  0.00000000000E+00  0.10999773676E+04  0.10999773676E+04  0.00000000000E+00 0. -1.
         21   -1    0    0  501  502 -0.00000000000E+00 -0.00000000000E+00 -0.72092233034E+02  0.72092233034E+02  0.00000000000E+00 0. -1.
         25    1    1    2    0    0 -0.22828042191E+02  0.10621704479E+03  0.38682658051E+03  0.42078852587E+03  0.12500000000E+03 0.  0.
         25    1    1    2    0    0 -0.65627286280E+02 -0.12557897742E+03  0.52558112015E+03  0.55851368303E+03  0.12500000000E+03 0.  0.
         25    1    1    2    0    0  0.88455328471E+02  0.19361932635E+02  0.11547743388E+03  0.19276739171E+03  0.12500000000E+03 0.  0.
</event>
<event>
 5    0  0.5631475E-005  0.3739524E+03  0.7546771E-02  0.1053192E+00
         21   -1    0    0  502  501  0.00000000000E+00  0.00000000000E+00  0.10380839866E+03  0.10380839866E+03  0.00000000000E+00 0. -1.
         21   -1    0    0  501  502 -0.00000000000E+00 -0.00000000000E+00 -0.13471013335E+04  0.13471013335E+04  0.00000000000E+00 0. -1.
         25    1    1    2    0    0  0.66075738679E+02  0.53669593102E+02 -0.41070275571E+03  0.43766217795E+03  0.12500000000E+03 0.  0.
         25    1    1    2    0    0 -0.24386838152E+03  0.10325619108E+03 -0.55395154853E+03  0.62659472278E+03  0.12500000000E+03 0.  0.
         25    1    1    2    0    0  0.17779264284E+03 -0.15692578418E+03 -0.27863863062E+03  0.38665283144E+03  0.12500000000E+03 0.  0.
</event>
<event>
 5    0  0.5631475E-005  0.2329939E+03  0.7546771E-02  0.1124550E+00
         21   -1    0    0  502  501  0.00000000000E+00  0.00000000000E+00  0.19760300695E+04  0.19760300695E+04  0.00000000000E+00 0. -1.
         21   -1    0    0  501  502 -0.00000000000E+00 -0.00000000000E+00 -0.27472323221E+02  0.27472323221E+02  0.00000000000E+00 0. -1.
         25    1    1    2    0    0 -0.54541192124E+02  0.32424641566E+02  0.77837641233E+03  0.79089881672E+03  0.12500000000E+03 0.  0.
         25    1    1    2    0    0 -0.57329015725E+01 -0.94891538218E+01  0.23043596346E+03  0.26239025031E+03  0.12500000000E+03 0.  0.
         25    1    1    2    0    0  0.60274093696E+02 -0.22935487744E+02  0.93974537050E+03  0.95021332571E+03  0.12500000000E+03 0.  0.
</event>
<event>
 5    0  0.5740303E-005  0.4456452E+03  0.7546771E-02  0.1029029E+00
         21   -1    0    0  502  501  0.00000000000E+00  0.00000000000E+00  0.77088859494E+03  0.77088859494E+03  0.00000000000E+00 0. -1.
         21   -1    0    0  501  502 -0.00000000000E+00 -0.00000000000E+00 -0.25762426324E+03  0.25762426324E+03  0.00000000000E+00 0. -1.
         25    1    1    2    0    0  0.26327221856E+03 -0.12878165406E+03  0.24207094568E+03  0.40015036953E+03  0.12500000000E+03 0.  0.
         25    1    1    2    0    0 -0.71833381820E+02 -0.13172923867E+03  0.12186886664E+02  0.19566846264E+03  0.12500000000E+03 0.  0.
         25    1    1    2    0    0 -0.19143883674E+03  0.26051089272E+03  0.25900649936E+03  0.43269402602E+03  0.12500000000E+03 0.  0.
</event>
<event>
 5    0  0.5631475E-005  0.3645589E+03  0.7546771E-02  0.1056793E+00
         21   -1    0    0  502  501  0.00000000000E+00  0.00000000000E+00  0.13824696655E+03  0.13824696655E+03  0.00000000000E+00 0.  1.
         21   -1    0    0  501  502 -0.00000000000E+00 -0.00000000000E+00 -0.96134630062E+03  0.96134630062E+03  0.00000000000E+00 0.  1.
         25    1    1    2    0    0 -0.14360156206E+03 -0.17729585799E+03 -0.20506072425E+03  0.33125538564E+03  0.12500000000E+03 0.  0.
         25    1    1    2    0    0  0.17520718594E+03  0.13147723592E+03 -0.57002149838E+03  0.62332441809E+03  0.12500000000E+03 0.  0.
         25    1    1    2    0    0 -0.31605623879E+02  0.45818622074E+02 -0.48017111439E+02  0.14501346345E+03  0.12500000000E+03 0.  0.
</event>
<event>
 5    0  0.5631475E-005  0.3016590E+03  0.7546771E-02  0.1084414E+00
         21   -1    0    0  502  501  0.00000000000E+00  0.00000000000E+00  0.60607797849E+03  0.60607797849E+03  0.00000000000E+00 0.  1.
         21   -1    0    0  501  502 -0.00000000000E+00 -0.00000000000E+00 -0.15014263878E+03  0.15014263878E+03  0.00000000000E+00 0.  1.
         25    1    1    2    0    0  0.10713788857E+03 -0.68812014014E+02  0.13720122446E+03  0.22508397640E+03  0.12500000000E+03 0.  0.
         25    1    1    2    0    0  0.86180499028E+02  0.11415381451E+03  0.13301613381E+03  0.23189752830E+03  0.12500000000E+03 0.  0.
         25    1    1    2    0    0 -0.19331838760E+03 -0.45341800493E+02  0.18571798144E+03  0.29923911256E+03  0.12500000000E+03 0.  0.
</event>
<event>
 5    0  0.5631475E-005  0.3080742E+03  0.7546771E-02  0.1081273E+00
         21   -1    0    0  502  501  0.00000000000E+00  0.00000000000E+00  0.66096197062E+02  0.66096197062E+02  0.00000000000E+00 0. -1.
         21   -1    0    0  501  502 -0.00000000000E+00 -0.00000000000E+00 -0.14359333198E+04  0.14359333198E+04  0.00000000000E+00 0. -1.
         25    1    1    2    0    0 -0.13944852240E+03 -0.12051136691E+02 -0.35223025434E+03  0.39910183208E+03  0.12500000000E+03 0.  0.
         25    1    1    2    0    0 -0.59176272901E+02 -0.74949745560E+02 -0.55608323558E+03  0.57790385059E+03  0.12500000000E+03 0.  0.
         25    1    1    2    0    0  0.19862479530E+03  0.87000882251E+02 -0.46152363282E+03  0.52502383419E+03  0.12500000000E+03 0.  0.
</event>
<event>
 5    0  0.5631475E-005  0.6068367E+03  0.7546771E-02  0.9891323E-01
         21   -1    0    0  502  501  0.00000000000E+00  0.00000000000E+00  0.77761524632E+03  0.77761524632E+03  0.00000000000E+00 0.  1.
         21   -1    0    0  501  502 -0.00000000000E+00 -0.00000000000E+00 -0.47356422895E+03  0.47356422895E+03  0.00000000000E+00 0.  1.
         25    1    1    2    0    0  0.12769757106E+03 -0.48193360650E+02 -0.36254430136E+03  0.40705360841E+03  0.12500000000E+03 0.  0.
         25    1    1    2    0    0  0.60223051030E+01 -0.16694061458E+03  0.42081520297E+03  0.46969763891E+03  0.12500000000E+03 0.  0.
         25    1    1    2    0    0 -0.13371987617E+03  0.21513397523E+03  0.24578011577E+03  0.37442822795E+03  0.12500000000E+03 0.  0.
</event>
<event>
 5    0  0.5631475E-005  0.5148772E+03  0.7546771E-02  0.1009967E+00
         21   -1    0    0  502  501  0.00000000000E+00  0.00000000000E+00  0.13822141535E+03  0.13822141535E+03  0.00000000000E+00 0.  1.
         21   -1    0    0  501  502 -0.00000000000E+00 -0.00000000000E+00 -0.19179266868E+04  0.19179266868E+04  0.00000000000E+00 0.  1.
         25    1    1    2    0    0  0.48481448435E+02  0.37632260105E+03 -0.77634252254E+03  0.87309899966E+03  0.12500000000E+03 0.  0.
         25    1    1    2    0    0 -0.10075527559E+03 -0.13131648492E+03 -0.82595342698E+03  0.85159832569E+03  0.12500000000E+03 0.  0.
         25    1    1    2    0    0  0.52273827154E+02 -0.24500611612E+03 -0.17740932195E+03  0.33145077682E+03  0.12500000000E+03 0.  0.
</event>
<event>
 5    0  0.6180960E-005  0.3206108E+03  0.7546771E-02  0.1075369E+00
         21   -1    0    0  502  501  0.00000000000E+00  0.00000000000E+00  0.42699478458E+03  0.42699478458E+03  0.00000000000E+00 0.  1.
         21   -1    0    0  501  502 -0.00000000000E+00 -0.00000000000E+00 -0.24073195737E+03  0.24073195737E+03  0.00000000000E+00 0.  1.
         25    1    1    2    0    0  0.77400382211E+01 -0.10962846387E+03 -0.72649033329E+02  0.18160724194E+03  0.12500000000E+03 0.  0.
         25    1    1    2    0    0 -0.34993470612E+02 -0.75000826438E+02  0.20698372635E+03  0.25557177060E+03  0.12500000000E+03 0.  0.
         25    1    1    2    0    0  0.27253432391E+02  0.18462929031E+03  0.51928134185E+02  0.23054772941E+03  0.12500000000E+03 0.  0.
</event>
<event>
 5    0  0.5631475E-005  0.3745245E+03  0.7546771E-02  0.1052976E+00
         21   -1    0    0  502  501  0.00000000000E+00  0.00000000000E+00  0.18739397501E+03  0.18739397501E+03  0.00000000000E+00 0. -1.
         21   -1    0    0  501  502 -0.00000000000E+00 -0.00000000000E+00 -0.74852254347E+03  0.74852254347E+03  0.00000000000E+00 0. -1.
         25    1    1    2    0    0 -0.10406181391E+03  0.19338490851E+03 -0.14959026438E+03  0.29364746066E+03  0.12500000000E+03 0.  0.
         25    1    1    2    0    0  0.11617629230E+03  0.76828784493E+02 -0.21633137575E+03  0.28604869717E+03  0.12500000000E+03 0.  0.
         25    1    1    2    0    0 -0.12114478384E+02 -0.27021369300E+03 -0.19520692833E+03  0.35622036065E+03  0.12500000000E+03 0.  0.
</event>
<event>
 5    0  0.5631475E-005  0.3714271E+03  0.7546771E-02  0.1054149E+00
         21   -1    0    0  502  501  0.00000000000E+00  0.00000000000E+00  0.99566289872E+02  0.99566289872E+02  0.00000000000E+00 0.  1.
         21   -1    0    0  501  502 -0.00000000000E+00 -0.00000000000E+00 -0.13855903364E+04  0.13855903364E+04  0.00000000000E+00 0.  1.
         25    1    1    2    0    0  0.97651753170E+02  0.51194074464E+02 -0.98301531858E+03  0.99704604444E+03  0.12500000000E+03 0.  0.
         25    1    1    2    0    0  0.33071364254E+02  0.85897125143E+02 -0.11105678671E+03  0.19086812494E+03  0.12500000000E+03 0.  0.
         25    1    1    2    0    0 -0.13072311742E+03 -0.13709119961E+03 -0.19195194122E+03  0.29724245689E+03  0.12500000000E+03 0.  0.
</event>
<event>
 5    0  0.5631475E-005  0.2633141E+03  0.7546771E-02  0.1105168E+00
         21   -1    0    0  502  501  0.00000000000E+00  0.00000000000E+00  0.71519900217E+02  0.71519900217E+02  0.00000000000E+00 0.  1.
         21   -1    0    0  501  502 -0.00000000000E+00 -0.00000000000E+00 -0.96944093006E+03  0.96944093006E+03  0.00000000000E+00 0.  1.
         25    1    1    2    0    0  0.62598801652E+01 -0.20053339712E+02 -0.45066352391E+02  0.13452620061E+03  0.12500000000E+03 0.  0.
         25    1    1    2    0    0  0.60816228297E+02 -0.16341160891E+01 -0.59806423786E+03  0.61400905251E+03  0.12500000000E+03 0.  0.
         25    1    1    2    0    0 -0.67076108462E+02  0.21687455801E+02 -0.25479043959E+03  0.29242557715E+03  0.12500000000E+03 0.  0.
</event>
<event>
 5    0  0.5631475E-005  0.2887988E+03  0.7546771E-02  0.1090978E+00
         21   -1    0    0  502  501  0.00000000000E+00  0.00000000000E+00  0.88471608286E+02  0.88471608286E+02  0.00000000000E+00 0. -1.
         21   -1    0    0  501  502 -0.00000000000E+00 -0.00000000000E+00 -0.94272871016E+03  0.94272871016E+03  0.00000000000E+00 0. -1.
         25    1    1    2    0    0 -0.11946532060E+03 -0.30170502227E+02 -0.31137362761E+03  0.35743636916E+03  0.12500000000E+03 0.  0.
         25    1    1    2    0    0  0.92853374059E+02  0.10787310979E+03 -0.47130723515E+03  0.50795065389E+03  0.12500000000E+03 0.  0.
         25    1    1    2    0    0  0.26611946544E+02 -0.77702607563E+02 -0.71576239118E+02  0.16581329539E+03  0.12500000000E+03 0.  0.
</event>
<event>
 5    0  0.5631475E-005  0.3468605E+03  0.7546771E-02  0.1063911E+00
         21   -1    0    0  502  501  0.00000000000E+00  0.00000000000E+00  0.12783023138E+04  0.12783023138E+04  0.00000000000E+00 0.  1.
         21   -1    0    0  501  502 -0.00000000000E+00 -0.00000000000E+00 -0.94118768544E+02  0.94118768544E+02  0.00000000000E+00 0.  1.
         25    1    1    2    0    0  0.24082207328E+03  0.12322933773E+03  0.38926475196E+03  0.49023748099E+03  0.12500000000E+03 0.  0.
         25    1    1    2    0    0 -0.15001418680E+03 -0.19051066552E+02  0.41234226139E+03  0.45663808416E+03  0.12500000000E+03 0.  0.
         25    1    1    2    0    0 -0.90807886481E+02 -0.10417827118E+03  0.38257653192E+03  0.42554551720E+03  0.12500000000E+03 0.  0.
</event>
<event>
 5    0  0.5631475E-005  0.4101751E+03  0.7546771E-02  0.1040312E+00
         21   -1    0    0  502  501  0.00000000000E+00  0.00000000000E+00  0.10034150554E+04  0.10034150554E+04  0.00000000000E+00 0. -1.
         21   -1    0    0  501  502 -0.00000000000E+00 -0.00000000000E+00 -0.16767102699E+03  0.16767102699E+03  0.00000000000E+00 0. -1.
         25    1    1    2    0    0  0.75861059734E+01  0.29604815529E+03  0.46529109804E+03  0.56552883673E+03  0.12500000000E+03 0.  0.
         25    1    1    2    0    0  0.21199611243E+02 -0.31601425572E+03  0.21359479265E+03  0.40194796776E+03  0.12500000000E+03 0.  0.
         25    1    1    2    0    0 -0.28785717216E+02  0.19966100430E+02  0.15685813773E+03  0.20360927791E+03  0.12500000000E+03 0.  0.
</event>
<event>
 5    0  0.5631475E-005  0.3764568E+03  0.7546771E-02  0.1052251E+00
         21   -1    0    0  502  501  0.00000000000E+00  0.00000000000E+00  0.18250075845E+04  0.18250075845E+04  0.00000000000E+00 0. -1.
         21   -1    0    0  501  502 -0.00000000000E+00 -0.00000000000E+00 -0.77654305891E+02  0.77654305891E+02  0.00000000000E+00 0. -1.
         25    1    1    2    0    0 -0.13389385831E+03 -0.76330842217E+02  0.97361625508E+03  0.99363352143E+03  0.12500000000E+03 0.  0.
         25    1    1    2    0    0 -0.51902166337E+02 -0.69775168656E+02  0.51468386067E+03  0.53673725925E+03  0.12500000000E+03 0.  0.
         25    1    1    2    0    0  0.18579602465E+03  0.14610601087E+03  0.25905316290E+03  0.37229110975E+03  0.12500000000E+03 0.  0.
</event>
<event>
 5    0  0.5631475E-005  0.2599835E+03  0.7546771E-02  0.1107153E+00
         21   -1    0    0  502  501  0.00000000000E+00  0.00000000000E+00  0.15354025570E+04  0.15354025570E+04  0.00000000000E+00 0.  1.
         21   -1    0    0  501  502 -0.00000000000E+00 -0.00000000000E+00 -0.44021953817E+02  0.44021953817E+02  0.00000000000E+00 0.  1.
         25    1    1    2    0    0  0.12387628958E+03  0.78498072866E+02  0.57147835356E+03  0.60309185963E+03  0.12500000000E+03 0.  0.
         25    1    1    2    0    0 -0.51734440799E+02 -0.82051030656E+02  0.66326883922E+03  0.68187929802E+03  0.12500000000E+03 0.  0.
         25    1    1    2    0    0 -0.72141848782E+02  0.35529577896E+01  0.25663341043E+03  0.29445335318E+03  0.12500000000E+03 0.  0.
</event>
<event>
 5    0  0.5631475E-005  0.2773098E+03  0.7546771E-02  0.1097167E+00
         21   -1    0    0  502  501  0.00000000000E+00  0.00000000000E+00  0.76724806599E+03  0.76724806599E+03  0.00000000000E+00 0.  1.
         21   -1    0    0  501  502 -0.00000000000E+00 -0.00000000000E+00 -0.10022931505E+03  0.10022931505E+03  0.00000000000E+00 0.  1.
         25    1    1    2    0    0 -0.93951354029E+01  0.34234991050E+02  0.15179175546E+03  0.19981501497E+03  0.12500000000E+03 0.  0.
         25    1    1    2    0    0 -0.10860564552E+03 -0.13818059243E+03  0.33118949604E+03  0.39522214595E+03  0.12500000000E+03 0.  0.
         25    1    1    2    0    0  0.11800078092E+03  0.10394560138E+03  0.18403749944E+03  0.27244022013E+03  0.12500000000E+03 0.  0.
</event>
<event>
 5    0  0.5631475E-005  0.2993655E+03  0.7546771E-02  0.1085558E+00
         21   -1    0    0  502  501  0.00000000000E+00  0.00000000000E+00  0.72123668093E+03  0.72123668093E+03  0.00000000000E+00 0. -1.
         21   -1    0    0  501  502 -0.00000000000E+00 -0.00000000000E+00 -0.12425837734E+03  0.12425837734E+03  0.00000000000E+00 0. -1.
         25    1    1    2    0    0 -0.18086303784E+03  0.27420305227E+01  0.30882078819E+03  0.37909660564E+03  0.12500000000E+03 0.  0.
         25    1    1    2    0    0  0.57917437412E+02  0.90795709204E+02  0.10121324206E+03  0.19356500390E+03  0.12500000000E+03 0.  0.
         25    1    1    2    0    0  0.12294560042E+03 -0.93537739727E+02  0.18694427334E+03  0.27283344874E+03  0.12500000000E+03 0.  0.
</event>
<event>
 5    0  0.5631475E-005  0.2713359E+03  0.7546771E-02  0.1100517E+00
         21   -1    0    0  502  501  0.00000000000E+00  0.00000000000E+00  0.20036208852E+04  0.20036208852E+04  0.00000000000E+00 0.  1.
         21   -1    0    0  501  502 -0.00000000000E+00 -0.00000000000E+00 -0.36745050195E+02  0.36745050195E+02  0.00000000000E+00 0.  1.
         25    1    1    2    0    0  0.73982129782E+02 -0.23877224851E+01  0.83710984505E+03  0.84962165075E+03  0.12500000000E+03 0.  0.
         25    1    1    2    0    0 -0.96075630732E+02  0.69870240868E+02  0.92263949544E+03  0.93861654360E+03  0.12500000000E+03 0.  0.
         25    1    1    2    0    0  0.22093500950E+02 -0.67482518382E+02  0.20712649450E+03  0.25212774103E+03  0.12500000000E+03 0.  0.
</event>
<event>
 5    0  0.5631475E-005  0.2635828E+03  0.7546771E-02  0.1105010E+00
         21   -1    0    0  502  501  0.00000000000E+00  0.00000000000E+00  0.12273843392E+03  0.12273843392E+03  0.00000000000E+00 0. -1.
         21   -1    0    0  501  502 -0.00000000000E+00 -0.00000000000E+00 -0.56604850093E+03  0.56604850093E+03  0.00000000000E+00 0. -1.
         25    1    1    2    0    0  0.71839976511E+01 -0.17034869240E+02 -0.60465997013E+02  0.14008188101E+03  0.12500000000E+03 0.  0.
         25    1    1    2    0    0  0.64854287134E+02  0.13777202100E+03 -0.25050636561E+03  0.31869365783E+03  0.12500000000E+03 0.  0.
         25    1    1    2    0    0 -0.72038284785E+02 -0.12073715176E+03 -0.13233770438E+03  0.23001139601E+03  0.12500000000E+03 0.  0.
</event>
<event>
 5    0  0.5631475E-005  0.2174155E+03  0.7546771E-02  0.1135825E+00
         21   -1    0    0  502  501  0.00000000000E+00  0.00000000000E+00  0.47758220091E+03  0.47758220091E+03  0.00000000000E+00 0. -1.
         21   -1    0    0  501  502 -0.00000000000E+00 -0.00000000000E+00 -0.98976697518E+02  0.98976697518E+02  0.00000000000E+00 0. -1.
         25    1    1    2    0    0 -0.92987987205E+02  0.21030610471E+02  0.19777296773E+03  0.25264243330E+03  0.12500000000E+03 0.  0.
         25    1    1    2    0    0  0.54063510442E+02 -0.19306802459E+02  0.99716474400E+02  0.16989405831E+03  0.12500000000E+03 0.  0.
         25    1    1    2    0    0  0.38924476763E+02 -0.17238080121E+01  0.81116061260E+02  0.15402240681E+03  0.12500000000E+03 0.  0.
</event>
<event>
 5    0  0.5631475E-005  0.2909520E+03  0.7546771E-02  0.1089853E+00
         21   -1    0    0  502  501  0.00000000000E+00  0.00000000000E+00  0.23779144957E+04  0.23779144957E+04  0.00000000000E+00 0. -1.
         21   -1    0    0  501  502 -0.00000000000E+00 -0.00000000000E+00 -0.35599718659E+02  0.35599718659E+02  0.00000000000E+00 0. -1.
         25    1    1    2    0    0  0.93065157230E+02 -0.16354711419E+03  0.10225498675E+04  0.10472067673E+04  0.12500000000E+03 0.  0.
         25    1    1    2    0    0 -0.77486415564E+02  0.12755374624E+03  0.10309301719E+04  0.10491501904E+04  0.12500000000E+03 0.  0.
         25    1    1    2    0    0 -0.15578741666E+02  0.35993367950E+02  0.28883473768E+03  0.31715725661E+03  0.12500000000E+03 0.  0.
</event>
<event>
 5    0  0.6217306E-005  0.3875905E+03  0.7546771E-02  0.1048163E+00
         21   -1    0    0  502  501  0.00000000000E+00  0.00000000000E+00  0.84593347811E+03  0.84593347811E+03  0.00000000000E+00 0. -1.
         21   -1    0    0  501  502 -0.00000000000E+00 -0.00000000000E+00 -0.17758656072E+03  0.17758656072E+03  0.00000000000E+00 0. -1.
         25    1    1    2    0    0  0.80470353277E+02  0.10148103900E+03  0.17998870426E+03  0.25454825219E+03  0.12500000000E+03 0.  0.
         25    1    1    2    0    0  0.67691166469E+02  0.12349177366E+03 -0.10301863068E+02  0.18858271544E+03  0.12500000000E+03 0.  0.
         25    1    1    2    0    0 -0.14816151975E+03 -0.22497281265E+03  0.49866007621E+03  0.58038907120E+03  0.12500000000E+03 0.  0.
</event>
<event>
 5    0  0.5631475E-005  0.3503666E+03  0.7546771E-02  0.1062465E+00
         21   -1    0    0  502  501  0.00000000000E+00  0.00000000000E+00  0.13439883322E+03  0.13439883322E+03  0.00000000000E+00 0.  1.
         21   -1    0    0  501  502 -0.00000000000E+00 -0.00000000000E+00 -0.91337638104E+03  0.91337638104E+03  0.00000000000E+00 0.  1.
         25    1    1    2    0    0 -0.18239619935E+02  0.12653399708E+03 -0.16579197195E+02  0.17956448962E+03  0.12500000000E+03 0.  0.
         25    1    1    2    0    0 -0.20961123403E+02 -0.19501437588E+03 -0.62311523230E+03  0.66510718551E+03  0.12500000000E+03 0.  0.
         25    1    1    2    0    0  0.39200743338E+02  0.68480378800E+02 -0.13928311832E+03  0.20310353913E+03  0.12500000000E+03 0.  0.
</event>
<event>
 5    0  0.5631475E-005  0.3886603E+03  0.7546771E-02  0.1047779E+00
         21   -1    0    0  502  501  0.00000000000E+00  0.00000000000E+00  0.20639286790E+03  0.20639286790E+03  0.00000000000E+00 0. -1.
         21   -1    0    0  501  502 -0.00000000000E+00 -0.00000000000E+00 -0.73188973318E+03  0.73188973318E+03  0.00000000000E+00 0. -1.
         25    1    1    2    0    0  0.15398638029E+03 -0.10262693649E+03 -0.98279182005E+01  0.22353004582E+03  0.12500000000E+03 0.  0.
         25    1    1    2    0    0 -0.16341629171E+03 -0.88648129309E+02 -0.11120069616E+03  0.25010791682E+03  0.12500000000E+03 0.  0.
         25    1    1    2    0    0  0.94299114225E+01  0.19127506580E+03 -0.40446825092E+03  0.46464463844E+03  0.12500000000E+03 0.  0.
</event>
<event>
 5    0  0.5631475E-005  0.2335069E+03  0.7546771E-02  0.1124195E+00
         21   -1    0    0  502  501  0.00000000000E+00  0.00000000000E+00  0.88202878199E+02  0.88202878199E+02  0.00000000000E+00 0.  1.
         21   -1    0    0  501  502 -0.00000000000E+00 -0.00000000000E+00 -0.61818257512E+03  0.61818257512E+03  0.00000000000E+00 0.  1.
         25    1    1    2    0    0 -0.44030839044E+02 -0.44118528613E+02 -0.77774834016E+02  0.15987208687E+03  0.12500000000E+03 0.  0.
         25    1    1    2    0    0 -0.48981461917E+02  0.63343782936E+02 -0.24647382416E+03  0.28772550190E+03  0.12500000000E+03 0.  0.
         25    1    1    2    0    0  0.93012300961E+02 -0.19225254322E+02 -0.20573103874E+03  0.25878786454E+03  0.12500000000E+03 0.  0.
</event>
<event>
 5    0  0.5631475E-005  0.5730421E+03  0.7546771E-02  0.9962969E-01
         21   -1    0    0  502  501  0.00000000000E+00  0.00000000000E+00  0.41168417976E+03  0.41168417976E+03  0.00000000000E+00 0.  1.
         21   -1    0    0  501  502 -0.00000000000E+00 -0.00000000000E+00 -0.79764367267E+03  0.79764367267E+03  0.00000000000E+00 0.  1.
         25    1    1    2    0    0 -0.25641074374E+03 -0.89062335252E+02  0.25045828569E+03  0.38991399300E+03  0.12500000000E+03 0.  0.
         25    1    1    2    0    0 -0.92766961547E+01  0.85962937972E+02 -0.44160128102E+03  0.46702502630E+03  0.12500000000E+03 0.  0.
         25    1    1    2    0    0  0.26568743990E+03  0.30993972799E+01 -0.19481649758E+03  0.35238883313E+03  0.12500000000E+03 0.  0.
</event>
<event>
 5    0  0.5631475E-005  0.2908785E+03  0.7546771E-02  0.1089891E+00
         21   -1    0    0  502  501  0.00000000000E+00  0.00000000000E+00  0.61211876088E+02  0.61211876088E+02  0.00000000000E+00 0.  1.
         21   -1    0    0  501  502 -0.00000000000E+00 -0.00000000000E+00 -0.13822532204E+04  0.13822532204E+04  0.00000000000E+00 0.  1.
         25    1    1    2    0    0 -0.76323586963E+02  0.72016458915E+02 -0.70562965329E+03  0.72425815003E+03  0.12500000000E+03 0.  0.
         25    1    1    2    0    0  0.14935639117E+03 -0.66989078194E+02 -0.47379525344E+03  0.51662540623E+03  0.12500000000E+03 0.  0.
         25    1    1    2    0    0 -0.73032804207E+02 -0.50273807202E+01 -0.14161643758E+03  0.20258154023E+03  0.12500000000E+03 0.  0.
</event>
<event>
 5    0  0.5631475E-005  0.3264697E+03  0.7546771E-02  0.1072710E+00
         21   -1    0    0  502  501  0.00000000000E+00  0.00000000000E+00  0.50957307634E+03  0.50957307634E+03  0.00000000000E+00 0.  1.
         21   -1    0    0  501  502 -0.00000000000E+00 -0.00000000000E+00 -0.20916028680E+03  0.20916028680E+03  0.00000000000E+00 0.  1.
         25    1    1    2    0    0  0.92198226784E+02  0.98663779276E+02  0.17131087736E+03  0.25141096051E+03  0.12500000000E+03 0.  0.
         25    1    1    2    0    0  0.72676495294E+02 -0.10283846831E+03 -0.59685611362E+02  0.18720308688E+03  0.12500000000E+03 0.  0.
         25    1    1    2    0    0 -0.16487472208E+03  0.41746890326E+01  0.18878752355E+03  0.28011931575E+03  0.12500000000E+03 0.  0.
</event>
<event>
 5    0  0.5631475E-005  0.2113188E+03  0.7546771E-02  0.1140526E+00
         21   -1    0    0  502  501  0.00000000000E+00  0.00000000000E+00  0.13007885325E+03  0.13007885325E+03  0.00000000000E+00 0.  1.
         21   -1    0    0  501  502 -0.00000000000E+00 -0.00000000000E+00 -0.34329676279E+03  0.34329676279E+03  0.00000000000E+00 0.  1.
         25    1    1    2    0    0 -0.15248378841E+02  0.21767303592E+02 -0.42409595477E+02  0.13464732582E+03  0.12500000000E+03 0.  0.
         25    1    1    2    0    0 -0.62397446832E+02 -0.31637302537E+02 -0.10282717512E+03  0.17633147259E+03  0.12500000000E+03 0.  0.
         25    1    1    2    0    0  0.77645825673E+02  0.98699989454E+01 -0.67981138938E+02  0.16239681763E+03  0.12500000000E+03 0.  0.
</event>
<event>
 5    0  0.5631475E-005  0.3102239E+03  0.7546771E-02  0.1080239E+00
         21   -1    0    0  502  501  0.00000000000E+00  0.00000000000E+00  0.52688938046E+03  0.52688938046E+03  0.00000000000E+00 0.  1.
         21   -1    0    0  501  502 -0.00000000000E+00 -0.00000000000E+00 -0.18265474620E+03  0.18265474620E+03  0.00000000000E+00 0.  1.
         25    1    1    2    0    0  0.87503489115E+02  0.76816451334E+02  0.19780255944E+03  0.26135891094E+03  0.12500000000E+03 0.  0.
         25    1    1    2    0    0 -0.19428592221E+03 -0.25440955654E+02  0.14871992260E+03  0.27592911621E+03  0.12500000000E+03 0.  0.
         25    1    1    2    0    0  0.10678243309E+03 -0.51375495680E+02 -0.22878477899E+01  0.17225609952E+03  0.12500000000E+03 0.  0.
</event>
<event>
 5    0  0.5712157E-005  0.2543367E+03  0.7546771E-02  0.1110594E+00
         21   -1    0    0  502  501  0.00000000000E+00  0.00000000000E+00  0.44919843343E+03  0.44919843343E+03  0.00000000000E+00 0. -1.
         21   -1    0    0  501  502 -0.00000000000E+00 -0.00000000000E+00 -0.14400570180E+03  0.14400570180E+03  0.00000000000E+00 0. -1.
         25    1    1    2    0    0  0.51018929628E+02  0.29036351891E+02  0.10105591640E+03  0.17112375391E+03  0.12500000000E+03 0.  0.
         25    1    1    2    0    0 -0.11248368037E+02  0.11660557260E+03  0.11777173905E+03  0.20789075945E+03  0.12500000000E+03 0.  0.
         25    1    1    2    0    0 -0.39770561592E+02 -0.14564192449E+03  0.86365076178E+02  0.21418962188E+03  0.12500000000E+03 0.  0.
</event>
<event>
 5    0  0.5631475E-005  0.3572154E+03  0.7546771E-02  0.1059692E+00
         21   -1    0    0  502  501  0.00000000000E+00  0.00000000000E+00  0.13908441794E+04  0.13908441794E+04  0.00000000000E+00 0. -1.
         21   -1    0    0  501  502 -0.00000000000E+00 -0.00000000000E+00 -0.91744897034E+02  0.91744897034E+02  0.00000000000E+00 0. -1.
         25    1    1    2    0    0 -0.13636432779E+03  0.21274642048E+03  0.42292966779E+03  0.50828217873E+03  0.12500000000E+03 0.  0.
         25    1    1    2    0    0  0.78554537944E+02 -0.15870142872E+03  0.74731701529E+03  0.77811610975E+03  0.12500000000E+03 0.  0.
         25    1    1    2    0    0  0.57809789844E+02 -0.54044991766E+02  0.12885259930E+03  0.19619078797E+03  0.12500000000E+03 0.  0.
</event>
<event>
 5    0  0.5631475E-005  0.4085596E+03  0.7546771E-02  0.1040855E+00
         21   -1    0    0  502  501  0.00000000000E+00  0.00000000000E+00  0.37419501799E+03  0.37419501799E+03  0.00000000000E+00 0. -1.
         21   -1    0    0  501  502 -0.00000000000E+00 -0.00000000000E+00 -0.44607998413E+03  0.44607998413E+03  0.00000000000E+00 0. -1.
         25    1    1    2    0    0 -0.20866203590E+03 -0.96507178916E+02  0.35801261828E+02  0.26412158404E+03  0.12500000000E+03 0.  0.
         25    1    1    2    0    0  0.19587959016E+03  0.25305063176E+03 -0.86709611057E+02  0.35432611071E+03  0.12500000000E+03 0.  0.
         25    1    1    2    0    0  0.12782445732E+02 -0.15654345285E+03 -0.20976616911E+02  0.20182730738E+03  0.12500000000E+03 0.  0.
</event>
<event>
 5    0  0.5631475E-005  0.3139150E+03  0.7546771E-02  0.1078484E+00
         21   -1    0    0  502  501  0.00000000000E+00  0.00000000000E+00  0.46014676265E+03  0.46014676265E+03  0.00000000000E+00 0.  1.
         21   -1    0    0  501  502 -0.00000000000E+00 -0.00000000000E+00 -0.21415478262E+03  0.21415478262E+03  0.00000000000E+00 0.  1.
         25    1    1    2    0    0  0.23847382629E+02 -0.13031086901E+03  0.15535648539E+01  0.18214563899E+03  0.12500000000E+03 0.  0.
         25    1    1    2    0    0 -0.11780505003E+03  0.15941487176E+03  0.47675135961E+02  0.23914232110E+03  0.12500000000E+03 0.  0.
         25    1    1    2    0    0  0.93957667401E+02 -0.29104002748E+02  0.19676327922E+03  0.25301358518E+03  0.12500000000E+03 0.  0.
</event>
<event>
 5    0  0.5631475E-005  0.2286644E+03  0.7546771E-02  0.1127583E+00
         21   -1    0    0  502  501  0.00000000000E+00  0.00000000000E+00  0.10478946815E+04  0.10478946815E+04  0.00000000000E+00 0.  1.
         21   -1    0    0  501  502 -0.00000000000E+00 -0.00000000000E+00 -0.49897563599E+02  0.49897563599E+02  0.00000000000E+00 0.  1.
         25    1    1    2    0    0 -0.85376534740E+02 -0.16418791172E+01  0.25533113971E+03  0.29683470039E+03  0.12500000000E+03 0.  0.
         25    1    1    2    0    0 -0.31480833089E+01  0.55464675149E+02  0.31020050004E+03  0.33902151973E+03  0.12500000000E+03 0.  0.
         25    1    1    2    0    0  0.88524618049E+02 -0.53822796032E+02  0.43246547812E+03  0.46193602495E+03  0.12500000000E+03 0.  0.
</event>
<event>
 5    0  0.7017263E-005  0.2914918E+03  0.7546771E-02  0.1089573E+00
         21   -1    0    0  502  501  0.00000000000E+00  0.00000000000E+00  0.15233192252E+03  0.15233192252E+03  0.00000000000E+00 0. -1.
         21   -1    0    0  501  502 -0.00000000000E+00 -0.00000000000E+00 -0.55777847627E+03  0.55777847627E+03  0.00000000000E+00 0. -1.
         25    1    1    2    0    0 -0.47898360320E+02 -0.11597400893E+03 -0.10924526614E+03  0.20809553537E+03  0.12500000000E+03 0.  0.
         25    1    1    2    0    0  0.51435294857E+02 -0.85137188858E+02 -0.17148585087E+03  0.23436366513E+03  0.12500000000E+03 0.  0.
         25    1    1    2    0    0 -0.35369345365E+01  0.20111119779E+03 -0.12471543675E+03  0.26765119829E+03  0.12500000000E+03 0.  0.
</event>
<event>
 5    0  0.5631475E-005  0.3763873E+03  0.7546771E-02  0.1052277E+00
         21   -1    0    0  502  501  0.00000000000E+00  0.00000000000E+00  0.37866900137E+03  0.37866900137E+03  0.00000000000E+00 0.  1.
         21   -1    0    0  501  502 -0.00000000000E+00 -0.00000000000E+00 -0.37411929555E+03  0.37411929555E+03  0.00000000000E+00 0.  1.
         25    1    1    2    0    0 -0.45923763990E+02 -0.14451204260E+03  0.18871228346E+03  0.27245191958E+03  0.12500000000E+03 0.  0.
         25    1    1    2    0    0  0.41565398524E+02  0.23600967375E+03 -0.18107966840E+03  0.32533535739E+03  0.12500000000E+03 0.  0.
         25    1    1    2    0    0  0.43583654654E+01 -0.91497631150E+02 -0.30829092368E+01  0.15500101995E+03  0.12500000000E+03 0.  0.
</event>
<event>
 5    0  0.5631475E-005  0.3566678E+03  0.7546771E-02  0.1059911E+00
         21   -1    0    0  502  501  0.00000000000E+00  0.00000000000E+00  0.17162872522E+03  0.17162872522E+03  0.00000000000E+00 0.  1.
         21   -1    0    0  501  502 -0.00000000000E+00 -0.00000000000E+00 -0.74120396139E+03  0.74120396139E+03  0.00000000000E+00 0.  1.
         25    1    1    2    0    0 -0.11800123957E+03 -0.38642831135E+02  0.13312191190E+02  0.17669118646E+03  0.12500000000E+03 0.  0.
         25    1    1    2    0    0  0.18103972858E+03  0.83522098110E+02 -0.53001889209E+03  0.57991063981E+03  0.12500000000E+03 0.  0.
         25    1    1    2    0    0 -0.63038489012E+02 -0.44879266975E+02 -0.52868535264E+02  0.15623086034E+03  0.12500000000E+03 0.  0.
</event>
<event>
 5    0  0.5631475E-005  0.2341861E+03  0.7546771E-02  0.1123728E+00
         21   -1    0    0  502  501  0.00000000000E+00  0.00000000000E+00  0.73436123830E+03  0.73436123830E+03  0.00000000000E+00 0. -1.
         21   -1    0    0  501  502 -0.00000000000E+00 -0.00000000000E+00 -0.74681380701E+02  0.74681380701E+02  0.00000000000E+00 0. -1.
         25    1    1    2    0    0  0.76683054159E+02 -0.55039922836E+02  0.22128950176E+03  0.27111570867E+03  0.12500000000E+03 0.  0.
         25    1    1    2    0    0 -0.11051768282E+03  0.88729255518E+01  0.18244678095E+03  0.24739586678E+03  0.12500000000E+03 0.  0.
         25    1    1    2    0    0  0.33834628656E+02  0.46166997284E+02  0.25594357489E+03  0.29053104354E+03  0.12500000000E+03 0.  0.
</event>
<event>
 5    0  0.5631475E-005  0.4968980E+03  0.7546771E-02  0.1014592E+00
         21   -1    0    0  502  501  0.00000000000E+00  0.00000000000E+00  0.21147198210E+04  0.21147198210E+04  0.00000000000E+00 0.  1.
         21   -1    0    0  501  502 -0.00000000000E+00 -0.00000000000E+00 -0.11675667502E+03  0.11675667502E+03  0.00000000000E+00 0.  1.
         25    1    1    2    0    0  0.11541403193E+03 -0.75561000413E+01  0.21755242805E+03  0.27628165405E+03  0.12500000000E+03 0.  0.
         25    1    1    2    0    0 -0.41174271375E+03  0.88386292646E+02  0.12937273484E+04  0.13662721731E+04  0.12500000000E+03 0.  0.
         25    1    1    2    0    0  0.29632868181E+03 -0.80830192605E+02  0.48668336956E+03  0.58892266887E+03  0.12500000000E+03 0.  0.
</event>
<event>
 5    0  0.5631475E-005  0.2241658E+03  0.7546771E-02  0.1130815E+00
         21   -1    0    0  502  501  0.00000000000E+00  0.00000000000E+00  0.97685515414E+02  0.97685515414E+02  0.00000000000E+00 0.  1.
         21   -1    0    0  501  502 -0.00000000000E+00 -0.00000000000E+00 -0.51440896288E+03  0.51440896288E+03  0.00000000000E+00 0.  1.
         25    1    1    2    0    0 -0.59442995460E+01 -0.66386963649E+02 -0.80947857551E+02  0.16315673226E+03  0.12500000000E+03 0.  0.
         25    1    1    2    0    0  0.28939342760E+02 -0.11197323457E+02 -0.23855986781E+03  0.27110639266E+03  0.12500000000E+03 0.  0.
         25    1    1    2    0    0 -0.22995043214E+02  0.77584287106E+02 -0.97215722105E+02  0.17783135337E+03  0.12500000000E+03 0.  0.
</event>
<event>
 5    0  0.5631475E-005  0.3389215E+03  0.7546771E-02  0.1067256E+00
         21   -1    0    0  502  501  0.00000000000E+00  0.00000000000E+00  0.10764270066E+03  0.10764270066E+03  0.00000000000E+00 0.  1.
         21   -1    0    0  501  502 -0.00000000000E+00 -0.00000000000E+00 -0.10671207445E+04  0.10671207445E+04  0.00000000000E+00 0.  1.
         25    1    1    2    0    0 -0.23761207166E+03  0.27177758518E+02 -0.36019482230E+03  0.45007048022E+03  0.12500000000E+03 0.  0.
         25    1    1    2    0    0  0.16315807448E+03 -0.49740093685E+00 -0.15791314314E+03  0.25919561234E+03  0.12500000000E+03 0.  0.
         25    1    1    2    0    0  0.74453997182E+02 -0.26680357582E+02 -0.44137007836E+03  0.46549735257E+03  0.12500000000E+03 0.  0.
</event>
<event>
 5    0  0.5631475E-005  0.2868780E+03  0.7546771E-02  0.1091991E+00
         21   -1    0    0  502  501  0.00000000000E+00  0.00000000000E+00  0.17629133707E+04  0.17629133707E+04  0.00000000000E+00 0.  1.
         21   -1    0    0  501  502 -0.00000000000E+00 -0.00000000000E+00 -0.46683507172E+02  0.46683507172E+02  0.00000000000E+00 0.  1.
         25    1    1    2    0    0  0.18159691154E+02  0.66587476081E+02  0.35572988615E+03  0.38331764668E+03  0.12500000000E+03 0.  0.
         25    1    1    2    0    0  0.81721715594E+01 -0.14099284639E+03  0.11702192188E+04  0.11853201201E+04  0.12500000000E+03 0.  0.
         25    1    1    2    0    0 -0.26331862713E+02  0.74405370307E+02  0.19028075859E+03  0.24095911108E+03  0.12500000000E+03 0.  0.
</event>
<event>
 5    0  0.5631475E-005  0.2728047E+03  0.7546771E-02  0.1099685E+00
         21   -1    0    0  502  501  0.00000000000E+00  0.00000000000E+00  0.35850917318E+03  0.35850917318E+03  0.00000000000E+00 0.  1.
         21   -1    0    0  501  502 -0.00000000000E+00 -0.00000000000E+00 -0.20758852677E+03  0.20758852677E+03  0.00000000000E+00 0.  1.
         25    1    1    2    0    0  0.68217210514E+01  0.11618654020E+03  0.19514933568E+03  0.25933397621E+03  0.12500000000E+03 0.  0.
         25    1    1    2    0    0  0.26029083992E+02 -0.10052233602E+03  0.16053792374E+02  0.16329414411E+03  0.12500000000E+03 0.  0.
         25    1    1    2    0    0 -0.32850805043E+02 -0.15664204178E+02 -0.60282481650E+02  0.14346957963E+03  0.12500000000E+03 0.  0.
</event>
<event>
 5    0  0.5631475E-005  0.6320465E+03  0.7546771E-02  0.9841063E-01
         21   -1    0    0  502  501  0.00000000000E+00  0.00000000000E+00  0.95638104431E+03  0.95638104431E+03  0.00000000000E+00 0. -1.
         21   -1    0    0  501  502 -0.00000000000E+00 -0.00000000000E+00 -0.41770257364E+03  0.41770257364E+03  0.00000000000E+00 0. -1.
         25    1    1    2    0    0  0.28290815000E+03  0.37143169220E+03  0.28728481554E+03  0.56227759029E+03  0.12500000000E+03 0.  0.
         25    1    1    2    0    0  0.12509193938E+03 -0.11433995557E+03  0.23189284720E+03  0.31324257585E+03  0.12500000000E+03 0.  0.
         25    1    1    2    0    0 -0.40800008938E+03 -0.25709173663E+03  0.19500807931E+02  0.49856345182E+03  0.12500000000E+03 0.  0.
</event>
<event>
 5    0  0.5631475E-005  0.3137482E+03  0.7546771E-02  0.1078563E+00
         21   -1    0    0  502  501  0.00000000000E+00  0.00000000000E+00  0.41467239594E+03  0.41467239594E+03  0.00000000000E+00 0. -1.
         21   -1    0    0  501  502 -0.00000000000E+00 -0.00000000000E+00 -0.23738729335E+03  0.23738729335E+03  0.00000000000E+00 0. -1.
         25    1    1    2    0    0  0.52460292278E+02  0.60616773942E+02  0.11762986637E+03  0.18944197268E+03  0.12500000000E+03 0.  0.
         25    1    1    2    0    0  0.86688244268E+01 -0.74685434042E+02  0.21102197874E+03  0.25653135887E+03  0.12500000000E+03 0.  0.
         25    1    1    2    0    0 -0.61129116705E+02  0.14068660100E+02 -0.15136674252E+03  0.20608635774E+03  0.12500000000E+03 0.  0.
</event>
<event>
 5    0  0.5631475E-005  0.2824036E+03  0.7546771E-02  0.1094383E+00
         21   -1    0    0  502  501  0.00000000000E+00  0.00000000000E+00  0.10029894674E+03  0.10029894674E+03  0.00000000000E+00 0.  1.
         21   -1    0    0  501  502 -0.00000000000E+00 -0.00000000000E+00 -0.79514063710E+03  0.79514063710E+03  0.00000000000E+00 0.  1.
         25    1    1    2    0    0  0.70008369771E+02 -0.57263279625E+02 -0.27839016209E+03  0.31828656488E+03  0.12500000000E+03 0.  0.
         25    1    1    2    0    0  0.55704562806E+02 -0.84194863540E+02 -0.10526759825E+03  0.19208862695E+03  0.12500000000E+03 0.  0.
         25    1    1    2    0    0 -0.12571293258E+03  0.14145814316E+03 -0.31118393002E+03  0.38506439201E+03  0.12500000000E+03 0.  0.
</event>
<event>
 5    0  0.5631475E-005  0.4606279E+03  0.7546771E-02  0.1024599E+00
         21   -1    0    0  502  501  0.00000000000E+00  0.00000000000E+00  0.11477430935E+04  0.11477430935E+04  0.00000000000E+00 0. -1.
         21   -1    0    0  501  502 -0.00000000000E+00 -0.00000000000E+00 -0.18486549310E+03  0.18486549310E+03  0.00000000000E+00 0. -1.
         25    1    1    2    0    0  0.33982131458E+03  0.12528326413E+03  0.29715843452E+03  0.48487375400E+03  0.12500000000E+03 0.  0.
         25    1    1    2    0    0 -0.12032764635E+03 -0.35597733170E+02  0.62806371460E+02  0.18792440336E+03  0.12500000000E+03 0.  0.
         25    1    1    2    0    0 -0.21949366823E+03 -0.89685530957E+02  0.60291279439E+03  0.65981042921E+03  0.12500000000E+03 0.  0.
</event>
<event>
 5    0  0.5631475E-005  0.3133060E+03  0.7546771E-02  0.1078772E+00
         21   -1    0    0  502  501  0.00000000000E+00  0.00000000000E+00  0.17093541200E+03  0.17093541200E+03  0.00000000000E+00 0. -1.
         21   -1    0    0  501  502 -0.00000000000E+00 -0.00000000000E+00 -0.57425595425E+03  0.57425595425E+03  0.00000000000E+00 0. -1.
         25    1    1    2    0    0 -0.13070425499E+02 -0.19885238709E+03 -0.15013664336E+03  0.27906830626E+03  0.12500000000E+03 0.  0.
         25    1    1    2    0    0 -0.10253224941E+03  0.10927449389E+03 -0.16004698756E+03  0.25237633687E+03  0.12500000000E+03 0.  0.
         25    1    1    2    0    0  0.11560267491E+03  0.89577893202E+02 -0.93136911321E+02  0.21374672313E+03  0.12500000000E+03 0.  0.
</event>
<event>
 5    0  0.5631475E-005  0.2591072E+03  0.7546771E-02  0.1107681E+00
         21   -1    0    0  502  501  0.00000000000E+00  0.00000000000E+00  0.89557740590E+03  0.89557740590E+03  0.00000000000E+00 0. -1.
         21   -1    0    0  501  502 -0.00000000000E+00 -0.00000000000E+00 -0.74964516754E+02  0.74964516754E+02  0.00000000000E+00 0. -1.
         25    1    1    2    0    0 -0.43865933491E+02 -0.62480038301E+02  0.17394938964E+03  0.22740133127E+03  0.12500000000E+03 0.  0.
         25    1    1    2    0    0  0.28873949453E+02 -0.82495293022E+02  0.16542021828E+03  0.22500672644E+03  0.12500000000E+03 0.  0.
         25    1    1    2    0    0  0.14991984038E+02  0.14497533132E+03  0.48124328122E+03  0.51813386494E+03  0.12500000000E+03 0.  0.
</event>
<event>
 5    0  0.5631475E-005  0.2338025E+03  0.7546771E-02  0.1123992E+00
         21   -1    0    0  502  501  0.00000000000E+00  0.00000000000E+00  0.14318079914E+03  0.14318079914E+03  0.00000000000E+00 0.  1.
         21   -1    0    0  501  502 -0.00000000000E+00 -0.00000000000E+00 -0.38178040905E+03  0.38178040905E+03  0.00000000000E+00 0.  1.
         25    1    1    2    0    0 -0.79875697887E+01 -0.16062900755E+02 -0.21322470526E+03  0.24781362551E+03  0.12500000000E+03 0.  0.
         25    1    1    2    0    0  0.40147397586E+02  0.10529169037E+02 -0.57979774426E+02  0.14390737012E+03  0.12500000000E+03 0.  0.
         25    1    1    2    0    0 -0.32159827798E+02  0.55337317180E+01  0.32604869784E+02  0.13324021256E+03  0.12500000000E+03 0.  0.
</event>
<event>
 5    0  0.5631475E-005  0.2598899E+03  0.7546771E-02  0.1107209E+00
         21   -1    0    0  502  501  0.00000000000E+00  0.00000000000E+00  0.38181675276E+04  0.38181675276E+04  0.00000000000E+00 0. -1.
         21   -1    0    0  501  502 -0.00000000000E+00 -0.00000000000E+00 -0.17689831333E+02  0.17689831333E+02  0.00000000000E+00 0. -1.
         25    1    1    2    0    0 -0.16404105924E+03 -0.23747845098E+02  0.15816198529E+04  0.15951864431E+04  0.12500000000E+03 0.  0.
         25    1    1    2    0    0  0.69711563151E+02 -0.12823433816E+02  0.80807052578E+03  0.82074790108E+03  0.12500000000E+03 0.  0.
         25    1    1    2    0    0  0.94329496084E+02  0.36571278914E+02  0.14107873176E+04  0.14199230147E+04  0.12500000000E+03 0.  0.
</event>
<event>
 5    0  0.5631475E-005  0.3101308E+03  0.7546771E-02  0.1080283E+00
         21   -1    0    0  502  501  0.00000000000E+00  0.00000000000E+00  0.12738506216E+03  0.12738506216E+03  0.00000000000E+00 0.  1.
         21   -1    0    0  501  502 -0.00000000000E+00 -0.00000000000E+00 -0.75504254727E+03  0.75504254727E+03  0.00000000000E+00 0.  1.
         25    1    1    2    0    0  0.14730283378E+03 -0.72358128358E+02 -0.23700837106E+03  0.31421615416E+03  0.12500000000E+03 0.  0.
         25    1    1    2    0    0 -0.12826052238E+03 -0.94991220708E+02 -0.19960032792E+03  0.28449847894E+03  0.12500000000E+03 0.  0.
         25    1    1    2    0    0 -0.19042311399E+02  0.16734934907E+03 -0.19104878613E+03  0.28371297633E+03  0.12500000000E+03 0.  0.
</event>
<event>
 5    0  0.5631475E-005  0.3601166E+03  0.7546771E-02  0.1058538E+00
         21   -1    0    0  502  501  0.00000000000E+00  0.00000000000E+00  0.37626688110E+04  0.37626688110E+04  0.00000000000E+00 0.  1.
         21   -1    0    0  501  502 -0.00000000000E+00 -0.00000000000E+00 -0.34465948890E+02  0.34465948890E+02  0.00000000000E+00 0.  1.
         25    1    1    2    0    0 -0.73007625208E+02  0.45513677409E+02  0.24765561266E+03  0.29044777612E+03  0.12500000000E+03 0.  0.
         25    1    1    2    0    0 -0.22657925167E+02  0.94984885788E+02  0.24294393939E+04  0.24346121413E+04  0.12500000000E+03 0.  0.
         25    1    1    2    0    0  0.95665550374E+02 -0.14049856320E+03  0.10511078556E+04  0.10720748425E+04  0.12500000000E+03 0.  0.
</event>
<event>
 5    0  0.5631475E-005  0.2491092E+03  0.7546771E-02  0.1113869E+00
         21   -1    0    0  502  501  0.00000000000E+00  0.00000000000E+00  0.60219625427E+03  0.60219625427E+03  0.00000000000E+00 0. -1.
         21   -1    0    0  501  502 -0.00000000000E+00 -0.00000000000E+00 -0.10304846851E+03  0.10304846851E+03  0.00000000000E+00 0. -1.
         25    1    1    2    0    0 -0.38507893872E+02 -0.10218534056E+03  0.27641530094E+03  0.32242071942E+03  0.12500000000E+03 0.  0.
         25    1    1    2    0    0  0.10822026776E+02  0.64539288770E+02  0.23514643588E+02  0.14303976553E+03  0.12500000000E+03 0.  0.
         25    1    1    2    0    0  0.27685867095E+02  0.37646051791E+02  0.19921784123E+03  0.23978423784E+03  0.12500000000E+03 0.  0.
</event>
<event>
 5    0  0.5631475E-005  0.2493147E+03  0.7546771E-02  0.1113739E+00
         21   -1    0    0  502  501  0.00000000000E+00  0.00000000000E+00  0.33172545772E+03  0.33172545772E+03  0.00000000000E+00 0. -1.
         21   -1    0    0  501  502 -0.00000000000E+00 -0.00000000000E+00 -0.18737735421E+03  0.18737735421E+03  0.00000000000E+00 0. -1.
         25    1    1    2    0    0 -0.61950107789E+02 -0.73765780945E+02  0.33246182864E+02  0.16127465693E+03  0.12500000000E+03 0.  0.
         25    1    1    2    0    0  0.94102565796E+02  0.21768847175E+02  0.14519926590E+03  0.21456235088E+03  0.12500000000E+03 0.  0.
         25    1    1    2    0    0 -0.32152458007E+02  0.51996933770E+02 -0.34097345246E+02  0.14326580412E+03  0.12500000000E+03 0.  0.
</event>
<event>
 5    0  0.5756725E-005  0.2806569E+03  0.7546771E-02  0.1095331E+00
         21   -1    0    0  502  501  0.00000000000E+00  0.00000000000E+00  0.14935493150E+03  0.14935493150E+03  0.00000000000E+00 0.  1.
         21   -1    0    0  501  502 -0.00000000000E+00 -0.00000000000E+00 -0.52738994927E+03  0.52738994927E+03  0.00000000000E+00 0.  1.
         25    1    1    2    0    0 -0.71718437643E+02 -0.48720604503E+02 -0.13194346016E+03  0.20137355407E+03  0.12500000000E+03 0.  0.
         25    1    1    2    0    0  0.65694596485E+02  0.17363913983E+03 -0.17772617517E+03  0.28579349928E+03  0.12500000000E+03 0.  0.
         25    1    1    2    0    0  0.60238411571E+01 -0.12491853533E+03 -0.68365382447E+02  0.18957782742E+03  0.12500000000E+03 0.  0.
</event>
<event>
 5    0  0.5631475E-005  0.4184193E+03  0.7546771E-02  0.1037582E+00
         21   -1    0    0  502  501  0.00000000000E+00  0.00000000000E+00  0.44123202006E+03  0.44123202006E+03  0.00000000000E+00 0. -1.
         21   -1    0    0  501  502 -0.00000000000E+00 -0.00000000000E+00 -0.39678612250E+03  0.39678612250E+03  0.00000000000E+00 0. -1.
         25    1    1    2    0    0  0.88920589193E+02  0.20949164039E+02  0.11939796444E+03  0.19551627188E+03  0.12500000000E+03 0.  0.
         25    1    1    2    0    0  0.66362809183E+02 -0.24614661419E+03 -0.16520909458E+03  0.32849843692E+03  0.12500000000E+03 0.  0.
         25    1    1    2    0    0 -0.15528339838E+03  0.22519745016E+03  0.90257027704E+02  0.31400343377E+03  0.12500000000E+03 0.  0.
</event>
<event>
 5    0  0.5631475E-005  0.2547282E+03  0.7546771E-02  0.1110353E+00
         21   -1    0    0  502  501  0.00000000000E+00  0.00000000000E+00  0.83591343243E+02  0.83591343243E+02  0.00000000000E+00 0. -1.
         21   -1    0    0  501  502 -0.00000000000E+00 -0.00000000000E+00 -0.77623386241E+03  0.77623386241E+03  0.00000000000E+00 0. -1.
         25    1    1    2    0    0  0.35452017999E+02 -0.13416312407E+03 -0.31625069516E+03  0.36728203282E+03  0.12500000000E+03 0.  0.
         25    1    1    2    0    0  0.22479334249E+02  0.11318243367E+03 -0.26131780651E+03  0.31181337328E+03  0.12500000000E+03 0.  0.
         25    1    1    2    0    0 -0.57931352248E+02  0.20980690408E+02 -0.11507401750E+03  0.18072979955E+03  0.12500000000E+03 0.  0.
</event>
<event>
 5    0  0.5631475E-005  0.3539880E+03  0.7546771E-02  0.1060990E+00
         21   -1    0    0  502  501  0.00000000000E+00  0.00000000000E+00  0.25278322551E+03  0.25278322551E+03  0.00000000000E+00 0. -1.
         21   -1    0    0  501  502 -0.00000000000E+00 -0.00000000000E+00 -0.49571129360E+03  0.49571129360E+03  0.00000000000E+00 0. -1.
         25    1    1    2    0    0  0.14682435708E+03 -0.16555515459E+03 -0.42006569068E+02  0.25759552187E+03  0.12500000000E+03 0.  0.
         25    1    1    2    0    0 -0.64630585513E+02 -0.35262081937E+02 -0.19157920254E+03  0.24030838074E+03  0.12500000000E+03 0.  0.
         25    1    1    2    0    0 -0.82193771563E+02  0.20081723653E+03 -0.93422964779E+01  0.25059061650E+03  0.12500000000E+03 0.  0.
</event>
<event>
 5    0  0.5631475E-005  0.2593295E+03  0.7546771E-02  0.1107547E+00
         21   -1    0    0  502  501  0.00000000000E+00  0.00000000000E+00  0.42758096748E+03  0.42758096748E+03  0.00000000000E+00 0.  1.
         21   -1    0    0  501  502 -0.00000000000E+00 -0.00000000000E+00 -0.15728433435E+03  0.15728433435E+03  0.00000000000E+00 0.  1.
         25    1    1    2    0    0  0.29718092333E+02  0.69622359244E+02  0.11178225528E+03  0.18398562584E+03  0.12500000000E+03 0.  0.
         25    1    1    2    0    0  0.33126217455E+02 -0.89807192719E+02 -0.34951551793E+02  0.16127395673E+03  0.12500000000E+03 0.  0.
         25    1    1    2    0    0 -0.62844309788E+02  0.20184833475E+02  0.19346592964E+03  0.23960571927E+03  0.12500000000E+03 0.  0.
</event>
<event>
 5    0  0.5631475E-005  0.3591850E+03  0.7546771E-02  0.1058907E+00
         21   -1    0    0  502  501  0.00000000000E+00  0.00000000000E+00  0.66860679159E+03  0.66860679159E+03  0.00000000000E+00 0. -1.
         21   -1    0    0  501  502 -0.00000000000E+00 -0.00000000000E+00 -0.19295927375E+03  0.19295927375E+03  0.00000000000E+00 0. -1.
         25    1    1    2    0    0 -0.18389735782E+03 -0.68292776567E+02  0.75086337655E+02  0.24442810731E+03  0.12500000000E+03 0.  0.
         25    1    1    2    0    0  0.92084484336E+02  0.80500989481E+02 -0.12914981324E+02  0.17536179260E+03  0.12500000000E+03 0.  0.
         25    1    1    2    0    0  0.91812873480E+02 -0.12208212914E+02  0.41347616151E+03  0.44177616542E+03  0.12500000000E+03 0.  0.
</event>
<event>
 5    0  0.5631475E-005  0.4432730E+03  0.7546771E-02  0.1029747E+00
         21   -1    0    0  502  501  0.00000000000E+00  0.00000000000E+00  0.17745490529E+03  0.17745490529E+03  0.00000000000E+00 0. -1.
         21   -1    0    0  501  502 -0.00000000000E+00 -0.00000000000E+00 -0.11072726428E+04  0.11072726428E+04  0.00000000000E+00 0. -1.
         25    1    1    2    0    0 -0.45080120417E+02 -0.20305400346E+03 -0.32437181844E+03  0.40509902761E+03  0.12500000000E+03 0.  0.
         25    1    1    2    0    0 -0.13576640788E+03  0.13932863017E+02  0.23971522530E+02  0.18661799504E+03  0.12500000000E+03 0.  0.
         25    1    1    2    0    0  0.18084652829E+03  0.18912114044E+03 -0.62941744159E+03  0.69301052541E+03  0.12500000000E+03 0.  0.
</event>
<event>
 5    0  0.5631475E-005  0.3173534E+03  0.7546771E-02  0.1076874E+00
         21   -1    0    0  502  501  0.00000000000E+00  0.00000000000E+00  0.53238249289E+02  0.53238249289E+02  0.00000000000E+00 0.  1.
         21   -1    0    0  501  502 -0.00000000000E+00 -0.00000000000E+00 -0.18917448873E+04  0.18917448873E+04  0.00000000000E+00 0.  1.
         25    1    1    2    0    0 -0.54585635782E+02 -0.34887820458E+02 -0.12944679676E+03  0.19125434594E+03  0.12500000000E+03 0.  0.
         25    1    1    2    0    0 -0.19372548946E+02 -0.27502341332E+02 -0.21235223607E+03  0.24869689703E+03  0.12500000000E+03 0.  0.
         25    1    1    2    0    0  0.73958184728E+02  0.62390161790E+02 -0.14967076052E+04  0.15050318937E+04  0.12500000000E+03 0.  0.
</event>
<event>
 5    0  0.5631475E-005  0.3050425E+03  0.7546771E-02  0.1082747E+00
         21   -1    0    0  502  501  0.00000000000E+00  0.00000000000E+00  0.19045443874E+03  0.19045443874E+03  0.00000000000E+00 0.  1.
         21   -1    0    0  501  502 -0.00000000000E+00 -0.00000000000E+00 -0.48857304936E+03  0.48857304936E+03  0.00000000000E+00 0.  1.
         25    1    1    2    0    0 -0.11379680865E+03 -0.39691585378E+02 -0.85847178912E+01  0.17385003017E+03  0.12500000000E+03 0.  0.
         25    1    1    2    0    0 -0.13762049819E+02  0.50966910836E+02 -0.29651801111E+03  0.32609040299E+03  0.12500000000E+03 0.  0.
         25    1    1    2    0    0  0.12755885847E+03 -0.11275325458E+02  0.69841183733E+01  0.17908705494E+03  0.12500000000E+03 0.  0.
</event>
<event>
 5    0  0.5631475E-005  0.2630212E+03  0.7546771E-02  0.1105342E+00
         21   -1    0    0  502  501  0.00000000000E+00  0.00000000000E+00  0.92663782887E+03  0.92663782887E+03  0.00000000000E+00 0. -1.
         21   -1    0    0  501  502 -0.00000000000E+00 -0.00000000000E+00 -0.74657166644E+02  0.74657166644E+02  0.00000000000E+00 0. -1.
         25    1    1    2    0    0 -0.49224381943E+02 -0.16743205131E+01  0.37918205041E+03  0.40228083534E+03  0.12500000000E+03 0.  0.
         25    1    1    2    0    0  0.97850933970E+02 -0.43532716941E+02  0.83067769273E+02  0.18437775629E+03  0.12500000000E+03 0.  0.
         25    1    1    2    0    0 -0.48626552027E+02  0.45207037454E+02  0.38973084254E+03  0.41463640388E+03  0.12500000000E+03 0.  0.
</event>
<event>
 5    0  0.5631475E-005  0.2170938E+03  0.7546771E-02  0.1136068E+00
         21   -1    0    0  502  501  0.00000000000E+00  0.00000000000E+00  0.24827002350E+03  0.24827002350E+03  0.00000000000E+00 0.  1.
         21   -1    0    0  501  502 -0.00000000000E+00 -0.00000000000E+00 -0.18983256168E+03  0.18983256168E+03  0.00000000000E+00 0.  1.
         25    1    1    2    0    0  0.38339462942E+02 -0.87760394242E+02  0.23106509953E+02  0.15915625033E+03  0.12500000000E+03 0.  0.
         25    1    1    2    0    0 -0.34785659794E+02  0.64941628451E+02 -0.61756493387E+01  0.14522601653E+03  0.12500000000E+03 0.  0.
         25    1    1    2    0    0 -0.35538031479E+01  0.22818765791E+02  0.41506601207E+02  0.13372031832E+03  0.12500000000E+03 0.  0.
</event>
<event>
 5    0  0.5631475E-005  0.5985330E+03  0.7546771E-02  0.9908454E-01
         21   -1    0    0  502  501  0.00000000000E+00  0.00000000000E+00  0.59648589866E+03  0.59648589866E+03  0.00000000000E+00 0. -1.
         21   -1    0    0  501  502 -0.00000000000E+00 -0.00000000000E+00 -0.60058707084E+03  0.60058707084E+03  0.00000000000E+00 0. -1.
         25    1    1    2    0    0 -0.26062526708E+03 -0.43942689600E+03  0.16279092534E+03  0.55058824193E+03  0.12500000000E+03 0.  0.
         25    1    1    2    0    0  0.24082063260E+03  0.39451108288E+03 -0.77198556050E+02  0.48499297795E+03  0.12500000000E+03 0.  0.
         25    1    1    2    0    0  0.19804634486E+02  0.44915813123E+02 -0.89693541468E+02  0.16149174962E+03  0.12500000000E+03 0.  0.
</event>
<event>
 5    0  0.5631475E-005  0.2547838E+03  0.7546771E-02  0.1110318E+00
         21   -1    0    0  502  501  0.00000000000E+00  0.00000000000E+00  0.14550967892E+03  0.14550967892E+03  0.00000000000E+00 0. -1.
         21   -1    0    0  501  502 -0.00000000000E+00 -0.00000000000E+00 -0.44612009921E+03  0.44612009921E+03  0.00000000000E+00 0. -1.
         25    1    1    2    0    0  0.93179506033E+02  0.55063071519E+02 -0.15507630328E+03  0.22668926315E+03  0.12500000000E+03 0.  0.
         25    1    1    2    0    0  0.98563045477E+01  0.56749398948E+02 -0.53688619069E+02  0.14773323539E+03  0.12500000000E+03 0.  0.
         25    1    1    2    0    0 -0.10303581058E+03 -0.11181247047E+03 -0.91845497934E+02  0.21720727959E+03  0.12500000000E+03 0.  0.
</event>
<event>
 5    0  0.5631475E-005  0.2969533E+03  0.7546771E-02  0.1086774E+00
         21   -1    0    0  502  501  0.00000000000E+00  0.00000000000E+00  0.21704362215E+02  0.21704362215E+02  0.00000000000E+00 0.  1.
         21   -1    0    0  501  502 -0.00000000000E+00 -0.00000000000E+00 -0.40628365753E+04  0.40628365753E+04  0.00000000000E+00 0.  1.
         25    1    1    2    0    0  0.10922217384E+03  0.17718289782E+03 -0.15445174769E+04  0.15634840898E+04  0.12500000000E+03 0.  0.
         25    1    1    2    0    0 -0.22222088957E+02 -0.14414469820E+03 -0.12338137396E+04  0.12486764430E+04  0.12500000000E+03 0.  0.
         25    1    1    2    0    0 -0.87000084880E+02 -0.33038199625E+02 -0.12628009966E+04  0.12723804047E+04  0.12500000000E+03 0.  0.
</event>
<event>
 5    0  0.5631475E-005  0.2974984E+03  0.7546771E-02  0.1086498E+00
         21   -1    0    0  502  501  0.00000000000E+00  0.00000000000E+00  0.40763715759E+02  0.40763715759E+02  0.00000000000E+00 0. -1.
         21   -1    0    0  501  502 -0.00000000000E+00 -0.00000000000E+00 -0.21711781306E+04  0.21711781306E+04  0.00000000000E+00 0. -1.
         25    1    1    2    0    0  0.18051914745E+02  0.14457492192E+03 -0.49671516365E+03  0.53252111082E+03  0.12500000000E+03 0.  0.
         25    1    1    2    0    0 -0.95312183656E+02  0.28300557164E+02 -0.77213512214E+03  0.78848143968E+03  0.12500000000E+03 0.  0.
         25    1    1    2    0    0  0.77260268911E+02 -0.17287547908E+03 -0.86156412907E+03  0.89093929587E+03  0.12500000000E+03 0.  0.
</event>
<event>
 5    0  0.5631475E-005  0.2899451E+03  0.7546771E-02  0.1090378E+00
         21   -1    0    0  502  501  0.00000000000E+00  0.00000000000E+00  0.62894155322E+02  0.62894155322E+02  0.00000000000E+00 0.  1.
         21   -1    0    0  501  502 -0.00000000000E+00 -0.00000000000E+00 -0.13366611473E+04  0.13366611473E+04  0.00000000000E+00 0.  1.
         25    1    1    2    0    0  0.22710076993E+02  0.99064755234E+02 -0.16719592333E+03  0.23218322528E+03  0.12500000000E+03 0.  0.
         25    1    1    2    0    0  0.44107090654E+02 -0.37776020975E+02 -0.89438716387E+03  0.90494522603E+03  0.12500000000E+03 0.  0.
         25    1    1    2    0    0 -0.66817167647E+02 -0.61288734260E+02 -0.21218390476E+03  0.26242685129E+03  0.12500000000E+03 0.  0.
</event>
<event>
 5    0  0.5631475E-005  0.2746480E+03  0.7546771E-02  0.1098649E+00
         21   -1    0    0  502  501  0.00000000000E+00  0.00000000000E+00  0.12426111585E+04  0.12426111585E+04  0.00000000000E+00 0.  1.
         21   -1    0    0  501  502 -0.00000000000E+00 -0.00000000000E+00 -0.60704023770E+02  0.60704023770E+02  0.00000000000E+00 0.  1.
         25    1    1    2    0    0 -0.11541654653E+03  0.58376235164E+02  0.40752733603E+03  0.44545739825E+03  0.12500000000E+03 0.  0.
         25    1    1    2    0    0  0.12592168855E+03 -0.12704248154E+03  0.37797979012E+03  0.43645135526E+03  0.12500000000E+03 0.  0.
         25    1    1    2    0    0 -0.10505142027E+02  0.68666246380E+02  0.39640000856E+03  0.42140642875E+03  0.12500000000E+03 0.  0.
</event>
<event>
 5    0  0.5631475E-005  0.2831678E+03  0.7546771E-02  0.1093971E+00
         21   -1    0    0  502  501  0.00000000000E+00  0.00000000000E+00  0.22577445532E+03  0.22577445532E+03  0.00000000000E+00 0. -1.
         21   -1    0    0  501  502 -0.00000000000E+00 -0.00000000000E+00 -0.35515080836E+03  0.35515080836E+03  0.00000000000E+00 0. -1.
         25    1    1    2    0    0  0.34810621395E+02  0.11529432334E+03  0.56397810504E+02  0.18251102264E+03  0.12500000000E+03 0.  0.
         25    1    1    2    0    0 -0.99882663290E+02 -0.12534393244E+03 -0.67527386362E+02  0.21417888723E+03  0.12500000000E+03 0.  0.
         25    1    1    2    0    0  0.65072041895E+02  0.10049609098E+02 -0.11824677718E+03  0.18423535381E+03  0.12500000000E+03 0.  0.
</event>
