<event>
 5    0  0.5612316E-005  0.4310475E+03  0.7546771E-02  0.1033530E+00
         21   -1    0    0  502  501  0.00000000000E+00  0.00000000000E+00  0.52866216837E+03  0.52866216837E+03  0.00000000000E+00 0. -1.
         21   -1    0    0  501  502 -0.00000000000E+00 -0.00000000000E+00 -0.35145684820E+03  0.35145684820E+03  0.00000000000E+00 0. -1.
         25    1    1    2    0    0  0.30239309423E+02  0.92161842433E+02  0.21660985545E+03  0.26824065783E+03  0.12500000000E+03 0.  0.
         25    1    1    2    0    0 -0.25548045359E+03  0.48170017094E+02 -0.11238627989E+03  0.30959051765E+03  0.12500000000E+03 0.  0.
         25    1    1    2    0    0  0.22524114417E+03 -0.14033185953E+03  0.72981744600E+02  0.30228784109E+03  0.12500000000E+03 0.  0.
</event>
<event>
 5    0  0.5612316E-005  0.2518343E+03  0.7546771E-02  0.1112151E+00
         21   -1    0    0  502  501  0.00000000000E+00  0.00000000000E+00  0.81618071074E+02  0.81618071074E+02  0.00000000000E+00 0. -1.
         21   -1    0    0  501  502 -0.00000000000E+00 -0.00000000000E+00 -0.77704019547E+03  0.77704019547E+03  0.00000000000E+00 0. -1.
         25    1    1    2    0    0 -0.11901726899E+03 -0.58981474781E+02 -0.23458033430E+03  0.29714787215E+03  0.12500000000E+03 0.  0.
         25    1    1    2    0    0  0.21145871867E+02  0.11376003054E+02 -0.91729108724E+02  0.15689420235E+03  0.12500000000E+03 0.  0.
         25    1    1    2    0    0  0.97871397126E+02  0.47605471727E+02 -0.36911268137E+03  0.40461619204E+03  0.12500000000E+03 0.  0.
</event>
<event>
 5    0  0.8388527E-005  0.8860560E+03  0.7546771E-02  0.9443182E-01
         21   -1    0    0  502  501  0.00000000000E+00  0.00000000000E+00  0.22421103246E+04  0.22421103246E+04  0.00000000000E+00 0.  1.
         21   -1    0    0  501  502 -0.00000000000E+00 -0.00000000000E+00 -0.35015903562E+03  0.35015903562E+03  0.00000000000E+00 0.  1.
         25    1    1    2    0    0 -0.11225837995E+03 -0.26912577935E+03 -0.36407834181E+02  0.31934489094E+03  0.12500000000E+03 0.  0.
         25    1    1    2    0    0  0.62539073839E+03  0.20699736393E+03  0.10321660616E+04  0.12308343768E+04  0.12500000000E+03 0.  0.
         25    1    1    2    0    0 -0.51313235843E+03  0.62128415416E+02  0.89619306155E+03  0.10420900925E+04  0.12500000000E+03 0.  0.
</event>
<event>
 5    0  0.5612316E-005  0.3362523E+03  0.7546771E-02  0.1068403E+00
         21   -1    0    0  502  501  0.00000000000E+00  0.00000000000E+00  0.10132598590E+04  0.10132598590E+04  0.00000000000E+00 0.  1.
         21   -1    0    0  501  502 -0.00000000000E+00 -0.00000000000E+00 -0.11158598016E+03  0.11158598016E+03  0.00000000000E+00 0.  1.
         25    1    1    2    0    0  0.17346676721E+03  0.14628345161E+03  0.44861369718E+03  0.51804325769E+03  0.12500000000E+03 0.  0.
         25    1    1    2    0    0 -0.91807452642E+02  0.98502605669E+01  0.31266434285E+03  0.34915559180E+03  0.12500000000E+03 0.  0.
         25    1    1    2    0    0 -0.81659314571E+02 -0.15613371218E+03  0.14039583882E+03  0.25764698968E+03  0.12500000000E+03 0.  0.
</event>
<event>
 5    0  0.5612316E-005  0.2540183E+03  0.7546771E-02  0.1110791E+00
         21   -1    0    0  502  501  0.00000000000E+00  0.00000000000E+00  0.99919165231E+03  0.99919165231E+03  0.00000000000E+00 0. -1.
         21   -1    0    0  501  502 -0.00000000000E+00 -0.00000000000E+00 -0.64577490657E+02  0.64577490657E+02  0.00000000000E+00 0. -1.
         25    1    1    2    0    0  0.23494468972E+02  0.70318955311E+02  0.47494249656E+03  0.49668110553E+03  0.12500000000E+03 0.  0.
         25    1    1    2    0    0 -0.27146348882E+02  0.36595438437E+01  0.38088112429E+03  0.40180312015E+03  0.12500000000E+03 0.  0.
         25    1    1    2    0    0  0.36518799105E+01 -0.73978499154E+02  0.78790540797E+02  0.16528491729E+03  0.12500000000E+03 0.  0.
</event>
<event>
 5    0  0.5612316E-005  0.4154668E+03  0.7546771E-02  0.1038552E+00
         21   -1    0    0  502  501  0.00000000000E+00  0.00000000000E+00  0.12379274405E+03  0.12379274405E+03  0.00000000000E+00 0.  1.
         21   -1    0    0  501  502 -0.00000000000E+00 -0.00000000000E+00 -0.13943683412E+04  0.13943683412E+04  0.00000000000E+00 0.  1.
         25    1    1    2    0    0 -0.17985100646E+03  0.21112635365E+02 -0.40067379275E+03  0.45711772674E+03  0.12500000000E+03 0.  0.
         25    1    1    2    0    0  0.13534371890E+03  0.22831156731E+03 -0.27340431498E+03  0.40102246005E+03  0.12500000000E+03 0.  0.
         25    1    1    2    0    0  0.44507287563E+02 -0.24942420268E+03 -0.59649748943E+03  0.66002089848E+03  0.12500000000E+03 0.  0.
</event>
<event>
 5    0  0.5835625E-005  0.2873589E+03  0.7546771E-02  0.1091736E+00
         21   -1    0    0  502  501  0.00000000000E+00  0.00000000000E+00  0.53586375977E+03  0.53586375977E+03  0.00000000000E+00 0.  1.
         21   -1    0    0  501  502 -0.00000000000E+00 -0.00000000000E+00 -0.15409723821E+03  0.15409723821E+03  0.00000000000E+00 0.  1.
         25    1    1    2    0    0 -0.21072193220E+02  0.27561803300E+02  0.69829204433E+02  0.14732551755E+03  0.12500000000E+03 0.  0.
         25    1    1    2    0    0 -0.11150687241E+03  0.12045981827E+03  0.17709827270E+03  0.27190650711E+03  0.12500000000E+03 0.  0.
         25    1    1    2    0    0  0.13257906563E+03 -0.14802162157E+03  0.13483904443E+03  0.27072897333E+03  0.12500000000E+03 0.  0.
</event>
<event>
 5    0  0.5612316E-005  0.2747592E+03  0.7546771E-02  0.1098586E+00
         21   -1    0    0  502  501  0.00000000000E+00  0.00000000000E+00  0.26448135195E+03  0.26448135195E+03  0.00000000000E+00 0. -1.
         21   -1    0    0  501  502 -0.00000000000E+00 -0.00000000000E+00 -0.28543650080E+03  0.28543650080E+03  0.00000000000E+00 0. -1.
         25    1    1    2    0    0 -0.68302126892E+02  0.13563527256E+02  0.88413503801E+02  0.16819957629E+03  0.12500000000E+03 0.  0.
         25    1    1    2    0    0  0.13006909374E+03 -0.54297245893E+02 -0.13817763031E+03  0.23363265521E+03  0.12500000000E+03 0.  0.
         25    1    1    2    0    0 -0.61766966853E+02  0.40733718637E+02  0.28808977665E+02  0.14808562125E+03  0.12500000000E+03 0.  0.
</event>
<event>
 5    0  0.5612316E-005  0.3663139E+03  0.7546771E-02  0.1056111E+00
         21   -1    0    0  502  501  0.00000000000E+00  0.00000000000E+00  0.40184352787E+03  0.40184352787E+03  0.00000000000E+00 0.  1.
         21   -1    0    0  501  502 -0.00000000000E+00 -0.00000000000E+00 -0.33392564300E+03  0.33392564300E+03  0.00000000000E+00 0.  1.
         25    1    1    2    0    0 -0.63805481316E+02 -0.67631512174E+02  0.10067391642E+03  0.18548692227E+03  0.12500000000E+03 0.  0.
         25    1    1    2    0    0 -0.28282422974E+02 -0.18498042859E+03  0.71268076804E+02  0.23605464024E+03  0.12500000000E+03 0.  0.
         25    1    1    2    0    0  0.92087904290E+02  0.25261194076E+03 -0.10402410836E+03  0.31422760835E+03  0.12500000000E+03 0.  0.
</event>
<event>
 5    0  0.5612316E-005  0.2930519E+03  0.7546771E-02  0.1088766E+00
         21   -1    0    0  502  501  0.00000000000E+00  0.00000000000E+00  0.81000569616E+02  0.81000569616E+02  0.00000000000E+00 0. -1.
         21   -1    0    0  501  502 -0.00000000000E+00 -0.00000000000E+00 -0.10602321299E+04  0.10602321299E+04  0.00000000000E+00 0. -1.
         25    1    1    2    0    0 -0.97634678673E+01  0.11649659167E+03 -0.21876953458E+03  0.27776229124E+03  0.12500000000E+03 0.  0.
         25    1    1    2    0    0 -0.13073692752E+03  0.11527275310E+02 -0.32216959352E+03  0.36965290379E+03  0.12500000000E+03 0.  0.
         25    1    1    2    0    0  0.14050039539E+03 -0.12802386698E+03 -0.43829243214E+03  0.49381750444E+03  0.12500000000E+03 0.  0.
</event>
<event>
 5    0  0.5612316E-005  0.2460145E+03  0.7546771E-02  0.1115850E+00
         21   -1    0    0  502  501  0.00000000000E+00  0.00000000000E+00  0.51268691551E+03  0.51268691551E+03  0.00000000000E+00 0.  1.
         21   -1    0    0  501  502 -0.00000000000E+00 -0.00000000000E+00 -0.11805085250E+03  0.11805085250E+03  0.00000000000E+00 0.  1.
         25    1    1    2    0    0 -0.79211283236E+02 -0.18224928768E+01  0.32300736367E+03  0.35529777069E+03  0.12500000000E+03 0.  0.
         25    1    1    2    0    0  0.24480508280E+02 -0.17354021445E+01  0.51750737561E+02  0.13749707540E+03  0.12500000000E+03 0.  0.
         25    1    1    2    0    0  0.54730774956E+02  0.35578950213E+01  0.19877961788E+02  0.13794292192E+03  0.12500000000E+03 0.  0.
</event>
<event>
 5    0  0.5612316E-005  0.2983637E+03  0.7546771E-02  0.1086061E+00
         21   -1    0    0  502  501  0.00000000000E+00  0.00000000000E+00  0.51022795353E+03  0.51022795353E+03  0.00000000000E+00 0. -1.
         21   -1    0    0  501  502 -0.00000000000E+00 -0.00000000000E+00 -0.17447282220E+03  0.17447282220E+03  0.00000000000E+00 0. -1.
         25    1    1    2    0    0 -0.54253432718E+02 -0.11161183456E+03  0.25151674659E+03  0.30706076010E+03  0.12500000000E+03 0.  0.
         25    1    1    2    0    0 -0.98997530948E+01  0.11559260638E+03  0.14562962956E+03  0.22426021664E+03  0.12500000000E+03 0.  0.
         25    1    1    2    0    0  0.64153185812E+02 -0.39807718218E+01 -0.61391244831E+02  0.15337979898E+03  0.12500000000E+03 0.  0.
</event>
<event>
 5    0  0.5612316E-005  0.3759907E+03  0.7546771E-02  0.1052426E+00
         21   -1    0    0  502  501  0.00000000000E+00  0.00000000000E+00  0.33063799258E+03  0.33063799258E+03  0.00000000000E+00 0.  1.
         21   -1    0    0  501  502 -0.00000000000E+00 -0.00000000000E+00 -0.42756423047E+03  0.42756423047E+03  0.00000000000E+00 0.  1.
         25    1    1    2    0    0 -0.38427388977E+02 -0.62235314544E+02 -0.62740382979E+01  0.14496296822E+03  0.12500000000E+03 0.  0.
         25    1    1    2    0    0  0.13287714760E+03  0.27870691923E+03 -0.93596337846E+02  0.34600456304E+03  0.12500000000E+03 0.  0.
         25    1    1    2    0    0 -0.94449758624E+02 -0.21647160469E+03  0.29441382548E+01  0.26723469178E+03  0.12500000000E+03 0.  0.
</event>
<event>
 5    0  0.5612316E-005  0.3453178E+03  0.7546771E-02  0.1064553E+00
         21   -1    0    0  502  501  0.00000000000E+00  0.00000000000E+00  0.11455935285E+04  0.11455935285E+04  0.00000000000E+00 0.  1.
         21   -1    0    0  501  502 -0.00000000000E+00 -0.00000000000E+00 -0.10408963147E+03  0.10408963147E+03  0.00000000000E+00 0.  1.
         25    1    1    2    0    0  0.39200115276E+01  0.17775009953E+03  0.58213325140E+03  0.62138119279E+03  0.12500000000E+03 0.  0.
         25    1    1    2    0    0 -0.42323302970E+02 -0.17238793995E+03  0.44688696866E+03  0.49683178901E+03  0.12500000000E+03 0.  0.
         25    1    1    2    0    0  0.38403291443E+02 -0.53621595860E+01  0.12483676938E+02  0.13147017814E+03  0.12500000000E+03 0.  0.
</event>
<event>
 5    0  0.5612316E-005  0.2857195E+03  0.7546771E-02  0.1092605E+00
         21   -1    0    0  502  501  0.00000000000E+00  0.00000000000E+00  0.20545386919E+03  0.20545386919E+03  0.00000000000E+00 0. -1.
         21   -1    0    0  501  502 -0.00000000000E+00 -0.00000000000E+00 -0.39734285291E+03  0.39734285291E+03  0.00000000000E+00 0. -1.
         25    1    1    2    0    0  0.14369670418E+03 -0.11329861142E+03  0.26615100282E+01  0.22162446114E+03  0.12500000000E+03 0.  0.
         25    1    1    2    0    0 -0.13973484076E+02  0.62069969336E+02 -0.76203239084E+02  0.15962416170E+03  0.12500000000E+03 0.  0.
         25    1    1    2    0    0 -0.12972322010E+03  0.51228642081E+02 -0.11834725466E+03  0.22154809927E+03  0.12500000000E+03 0.  0.
</event>
<event>
 5    0  0.5612316E-005  0.2291979E+03  0.7546771E-02  0.1127206E+00
         21   -1    0    0  502  501  0.00000000000E+00  0.00000000000E+00  0.25289737231E+03  0.25289737231E+03  0.00000000000E+00 0. -1.
         21   -1    0    0  501  502 -0.00000000000E+00 -0.00000000000E+00 -0.20771928899E+03  0.20771928899E+03  0.00000000000E+00 0. -1.
         25    1    1    2    0    0 -0.16186275220E+02  0.93465395543E+02  0.58421723790E+02  0.16743916352E+03  0.12500000000E+03 0.  0.
         25    1    1    2    0    0 -0.36123571727E+02 -0.74262463484E+02 -0.36892193810E+02  0.15429147702E+03  0.12500000000E+03 0.  0.
         25    1    1    2    0    0  0.52309846948E+02 -0.19202932059E+02  0.23648553344E+02  0.13888602076E+03  0.12500000000E+03 0.  0.
</event>
<event>
 5    0  0.5612316E-005  0.2211403E+03  0.7546771E-02  0.1133036E+00
         21   -1    0    0  502  501  0.00000000000E+00  0.00000000000E+00  0.11187994257E+04  0.11187994257E+04  0.00000000000E+00 0. -1.
         21   -1    0    0  501  502 -0.00000000000E+00 -0.00000000000E+00 -0.43710275442E+02  0.43710275442E+02  0.00000000000E+00 0. -1.
         25    1    1    2    0    0  0.87449802042E+02 -0.19696032049E+02  0.28209425193E+03  0.32130603562E+03  0.12500000000E+03 0.  0.
         25    1    1    2    0    0 -0.58008074657E+01  0.31618882846E+02  0.31953028340E+03  0.34461283367E+03  0.12500000000E+03 0.  0.
         25    1    1    2    0    0 -0.81648994576E+02 -0.11922850796E+02  0.47346461488E+03  0.49659083180E+03  0.12500000000E+03 0.  0.
</event>
<event>
 5    0  0.5612316E-005  0.2873052E+03  0.7546771E-02  0.1091765E+00
         21   -1    0    0  502  501  0.00000000000E+00  0.00000000000E+00  0.88141887641E+02  0.88141887641E+02  0.00000000000E+00 0.  1.
         21   -1    0    0  501  502 -0.00000000000E+00 -0.00000000000E+00 -0.93649309248E+03  0.93649309248E+03  0.00000000000E+00 0.  1.
         25    1    1    2    0    0 -0.12827889147E+03  0.94972773378E+02 -0.41067650833E+03  0.45799071626E+03  0.12500000000E+03 0.  0.
         25    1    1    2    0    0  0.48672435525E+02 -0.15029642612E+03 -0.23444796293E+03  0.30910980089E+03  0.12500000000E+03 0.  0.
         25    1    1    2    0    0  0.79606455944E+02  0.55323652740E+02 -0.20322673357E+03  0.25753446297E+03  0.12500000000E+03 0.  0.
</event>
<event>
 5    0  0.5612316E-005  0.3453482E+03  0.7546771E-02  0.1064541E+00
         21   -1    0    0  502  501  0.00000000000E+00  0.00000000000E+00  0.43251449435E+03  0.43251449435E+03  0.00000000000E+00 0. -1.
         21   -1    0    0  501  502 -0.00000000000E+00 -0.00000000000E+00 -0.27574878889E+03  0.27574878889E+03  0.00000000000E+00 0. -1.
         25    1    1    2    0    0  0.16759162315E+03 -0.72402989751E+01  0.76742357916E+02  0.22283124462E+03  0.12500000000E+03 0.  0.
         25    1    1    2    0    0 -0.32207351259E+02  0.12313810058E+03 -0.98610135614E+02  0.20383636608E+03  0.12500000000E+03 0.  0.
         25    1    1    2    0    0 -0.13538427189E+03 -0.11589780161E+03  0.17863348315E+03  0.28159567254E+03  0.12500000000E+03 0.  0.
</event>
<event>
 5    0  0.5612316E-005  0.2963753E+03  0.7546771E-02  0.1087067E+00
         21   -1    0    0  502  501  0.00000000000E+00  0.00000000000E+00  0.97039250133E+03  0.97039250133E+03  0.00000000000E+00 0. -1.
         21   -1    0    0  501  502 -0.00000000000E+00 -0.00000000000E+00 -0.90518353704E+02  0.90518353704E+02  0.00000000000E+00 0. -1.
         25    1    1    2    0    0 -0.24538284217E+02 -0.50898944138E+02  0.20248226067E+03  0.24457492879E+03  0.12500000000E+03 0.  0.
         25    1    1    2    0    0 -0.49172262891E+02 -0.15408698809E+03  0.30253362513E+03  0.36511957722E+03  0.12500000000E+03 0.  0.
         25    1    1    2    0    0  0.73710547109E+02  0.20498593223E+03  0.37485826183E+03  0.45121634902E+03  0.12500000000E+03 0.  0.
</event>
<event>
 5    0  0.5612316E-005  0.3626021E+03  0.7546771E-02  0.1057558E+00
         21   -1    0    0  502  501  0.00000000000E+00  0.00000000000E+00  0.11818753993E+03  0.11818753993E+03  0.00000000000E+00 0. -1.
         21   -1    0    0  501  502 -0.00000000000E+00 -0.00000000000E+00 -0.11124714194E+04  0.11124714194E+04  0.00000000000E+00 0. -1.
         25    1    1    2    0    0 -0.55584771357E+02 -0.52440723519E+02 -0.40713679153E+03  0.43269511588E+03  0.12500000000E+03 0.  0.
         25    1    1    2    0    0  0.17248406792E+03 -0.12571198517E+03 -0.13265674890E+03  0.28067253149E+03  0.12500000000E+03 0.  0.
         25    1    1    2    0    0 -0.11689929656E+03  0.17815270869E+03 -0.45449033900E+03  0.51729131192E+03  0.12500000000E+03 0.  0.
</event>
<event>
 5    0  0.5612316E-005  0.2606229E+03  0.7546771E-02  0.1106770E+00
         21   -1    0    0  502  501  0.00000000000E+00  0.00000000000E+00  0.13874526081E+03  0.13874526081E+03  0.00000000000E+00 0. -1.
         21   -1    0    0  501  502 -0.00000000000E+00 -0.00000000000E+00 -0.48956122510E+03  0.48956122510E+03  0.00000000000E+00 0. -1.
         25    1    1    2    0    0  0.35763780866E+01  0.56964921128E+02 -0.32106185024E+02  0.14111555490E+03  0.12500000000E+03 0.  0.
         25    1    1    2    0    0  0.70872571192E+02 -0.50586274881E+02 -0.30498530557E+03  0.34091484152E+03  0.12500000000E+03 0.  0.
         25    1    1    2    0    0 -0.74448949278E+02 -0.63786462461E+01 -0.13724473696E+02  0.14627608948E+03  0.12500000000E+03 0.  0.
</event>
<event>
 5    0  0.5612316E-005  0.2704629E+03  0.7546771E-02  0.1101015E+00
         21   -1    0    0  502  501  0.00000000000E+00  0.00000000000E+00  0.13783156671E+04  0.13783156671E+04  0.00000000000E+00 0.  1.
         21   -1    0    0  501  502 -0.00000000000E+00 -0.00000000000E+00 -0.53072159953E+02  0.53072159953E+02  0.00000000000E+00 0.  1.
         25    1    1    2    0    0  0.95944362365E+02 -0.79780024351E+02  0.46141914041E+03  0.49406760275E+03  0.12500000000E+03 0.  0.
         25    1    1    2    0    0  0.56251079146E+02  0.10655432328E+01  0.47532480974E+03  0.49469586014E+03  0.12500000000E+03 0.  0.
         25    1    1    2    0    0 -0.15219544151E+03  0.78714481118E+02  0.38849955696E+03  0.44262436412E+03  0.12500000000E+03 0.  0.
</event>
<event>
 5    0  0.5612316E-005  0.4421157E+03  0.7546771E-02  0.1030100E+00
         21   -1    0    0  502  501  0.00000000000E+00  0.00000000000E+00  0.13090270989E+04  0.13090270989E+04  0.00000000000E+00 0.  1.
         21   -1    0    0  501  502 -0.00000000000E+00 -0.00000000000E+00 -0.14932179575E+03  0.14932179575E+03  0.00000000000E+00 0.  1.
         25    1    1    2    0    0 -0.23381504644E+03  0.91383616195E+02  0.79669399205E+03  0.84461041801E+03  0.12500000000E+03 0.  0.
         25    1    1    2    0    0  0.27003393736E+03 -0.16443627434E+03  0.29334237587E+03  0.44903492640E+03  0.12500000000E+03 0.  0.
         25    1    1    2    0    0 -0.36218890920E+02  0.73052658141E+02  0.69668935227E+02  0.16470355022E+03  0.12500000000E+03 0.  0.
</event>
<event>
 5    0  0.5612316E-005  0.3201117E+03  0.7546771E-02  0.1075598E+00
         21   -1    0    0  502  501  0.00000000000E+00  0.00000000000E+00  0.74522448531E+03  0.74522448531E+03  0.00000000000E+00 0.  1.
         21   -1    0    0  501  502 -0.00000000000E+00 -0.00000000000E+00 -0.13750418782E+03  0.13750418782E+03  0.00000000000E+00 0.  1.
         25    1    1    2    0    0 -0.90178174704E+02  0.11339595059E+02  0.32045460165E+03  0.35577639232E+03  0.12500000000E+03 0.  0.
         25    1    1    2    0    0  0.12278727418E+03 -0.13296204878E+03  0.27063683408E+03  0.34874764097E+03  0.12500000000E+03 0.  0.
         25    1    1    2    0    0 -0.32609099479E+02  0.12162245372E+03  0.16628861759E+02  0.17820463984E+03  0.12500000000E+03 0.  0.
</event>
<event>
 5    0  0.5827521E-005  0.3525481E+03  0.7546771E-02  0.1061574E+00
         21   -1    0    0  502  501  0.00000000000E+00  0.00000000000E+00  0.42007155039E+03  0.42007155039E+03  0.00000000000E+00 0.  1.
         21   -1    0    0  501  502 -0.00000000000E+00 -0.00000000000E+00 -0.29587852809E+03  0.29587852809E+03  0.00000000000E+00 0.  1.
         25    1    1    2    0    0  0.21268597890E+03 -0.58752575723E+02 -0.24023369733E+02  0.25473380825E+03  0.12500000000E+03 0.  0.
         25    1    1    2    0    0 -0.43812607249E+02  0.14728895695E+03  0.11969923238E+03  0.23144435103E+03  0.12500000000E+03 0.  0.
         25    1    1    2    0    0 -0.16887337165E+03 -0.88536381225E+02  0.28517159658E+02  0.22977191919E+03  0.12500000000E+03 0.  0.
</event>
<event>
 5    0  0.5612316E-005  0.2191410E+03  0.7546771E-02  0.1134525E+00
         21   -1    0    0  502  501  0.00000000000E+00  0.00000000000E+00  0.71124427716E+03  0.71124427716E+03  0.00000000000E+00 0. -1.
         21   -1    0    0  501  502 -0.00000000000E+00 -0.00000000000E+00 -0.67519406010E+02  0.67519406010E+02  0.00000000000E+00 0. -1.
         25    1    1    2    0    0  0.18990771086E+02  0.17927422975E+02  0.25741425297E+03  0.28734846356E+03  0.12500000000E+03 0.  0.
         25    1    1    2    0    0 -0.19196197709E+02 -0.69517222621E+02  0.10242194562E+03  0.17696438397E+03  0.12500000000E+03 0.  0.
         25    1    1    2    0    0  0.20542662316E+00  0.51589799645E+02  0.28388867256E+03  0.31445083564E+03  0.12500000000E+03 0.  0.
</event>
<event>
 5    0  0.5612316E-005  0.2885411E+03  0.7546771E-02  0.1091113E+00
         21   -1    0    0  502  501  0.00000000000E+00  0.00000000000E+00  0.85473341317E+02  0.85473341317E+02  0.00000000000E+00 0. -1.
         21   -1    0    0  501  502 -0.00000000000E+00 -0.00000000000E+00 -0.97405798103E+03  0.97405798103E+03  0.00000000000E+00 0. -1.
         25    1    1    2    0    0 -0.73462259808E+02 -0.93923976884E+02 -0.13670047401E+03  0.22029624746E+03  0.12500000000E+03 0.  0.
         25    1    1    2    0    0  0.22969700877E+02  0.10394151095E+03 -0.15010539431E+03  0.22245915188E+03  0.12500000000E+03 0.  0.
         25    1    1    2    0    0  0.50492558931E+02 -0.10017534063E+02 -0.60177877140E+03  0.61677592301E+03  0.12500000000E+03 0.  0.
</event>
<event>
 5    0  0.5612316E-005  0.2912450E+03  0.7546771E-02  0.1089701E+00
         21   -1    0    0  502  501  0.00000000000E+00  0.00000000000E+00  0.16417220260E+04  0.16417220260E+04  0.00000000000E+00 0.  1.
         21   -1    0    0  501  502 -0.00000000000E+00 -0.00000000000E+00 -0.51667497308E+02  0.51667497308E+02  0.00000000000E+00 0.  1.
         25    1    1    2    0    0  0.12564900645E+02  0.52286116764E+02  0.11750198979E+03  0.17978718625E+03  0.12500000000E+03 0.  0.
         25    1    1    2    0    0  0.44629067026E+02  0.51400548317E+02  0.10111671936E+04  0.10211355754E+04  0.12500000000E+03 0.  0.
         25    1    1    2    0    0 -0.57193967671E+02 -0.10368666508E+03  0.46138534529E+03  0.49246676162E+03  0.12500000000E+03 0.  0.
</event>
<event>
 5    0  0.5612316E-005  0.2620103E+03  0.7546771E-02  0.1105941E+00
         21   -1    0    0  502  501  0.00000000000E+00  0.00000000000E+00  0.76255446367E+02  0.76255446367E+02  0.00000000000E+00 0. -1.
         21   -1    0    0  501  502 -0.00000000000E+00 -0.00000000000E+00 -0.90025592058E+03  0.90025592058E+03  0.00000000000E+00 0. -1.
         25    1    1    2    0    0  0.89125253068E+02  0.22371114036E+02 -0.14599046095E+03  0.21303049586E+03  0.12500000000E+03 0.  0.
         25    1    1    2    0    0  0.32215464895E+01  0.15317904677E+02 -0.53274225683E+03  0.54743431458E+03  0.12500000000E+03 0.  0.
         25    1    1    2    0    0 -0.92346799557E+02 -0.37689018713E+02 -0.14526775643E+03  0.21604655651E+03  0.12500000000E+03 0.  0.
</event>
<event>
 5    0  0.5612316E-005  0.2630285E+03  0.7546771E-02  0.1105337E+00
         21   -1    0    0  502  501  0.00000000000E+00  0.00000000000E+00  0.95455226406E+03  0.95455226406E+03  0.00000000000E+00 0. -1.
         21   -1    0    0  501  502 -0.00000000000E+00 -0.00000000000E+00 -0.72477943613E+02  0.72477943613E+02  0.00000000000E+00 0. -1.
         25    1    1    2    0    0  0.29699786654E+02  0.64424824718E+02  0.25298898575E+03  0.29096574073E+03  0.12500000000E+03 0.  0.
         25    1    1    2    0    0 -0.16109701092E+02 -0.11302931701E+03  0.55911537763E+03  0.58418332266E+03  0.12500000000E+03 0.  0.
         25    1    1    2    0    0 -0.13590085562E+02  0.48604492294E+02  0.69969957068E+02  0.15188114428E+03  0.12500000000E+03 0.  0.
</event>
<event>
 5    0  0.5612316E-005  0.3669086E+03  0.7546771E-02  0.1055881E+00
         21   -1    0    0  502  501  0.00000000000E+00  0.00000000000E+00  0.13833359070E+03  0.13833359070E+03  0.00000000000E+00 0.  1.
         21   -1    0    0  501  502 -0.00000000000E+00 -0.00000000000E+00 -0.97316875674E+03  0.97316875674E+03  0.00000000000E+00 0.  1.
         25    1    1    2    0    0 -0.25437916986E+03  0.14640284455E+03 -0.29223151919E+03  0.43262780281E+03  0.12500000000E+03 0.  0.
         25    1    1    2    0    0  0.19998736434E+03 -0.51487221146E+02 -0.33751402780E+03  0.41495373092E+03  0.12500000000E+03 0.  0.
         25    1    1    2    0    0  0.54391805521E+02 -0.94915623401E+02 -0.20508961905E+03  0.26392081372E+03  0.12500000000E+03 0.  0.
</event>
<event>
 5    0  0.5771257E-005  0.2830308E+03  0.7546771E-02  0.1094045E+00
         21   -1    0    0  502  501  0.00000000000E+00  0.00000000000E+00  0.28370814908E+03  0.28370814908E+03  0.00000000000E+00 0. -1.
         21   -1    0    0  501  502 -0.00000000000E+00 -0.00000000000E+00 -0.28235501122E+03  0.28235501122E+03  0.00000000000E+00 0. -1.
         25    1    1    2    0    0 -0.13532143322E+03  0.27328558530E+02 -0.10386856639E+03  0.21324263055E+03  0.12500000000E+03 0.  0.
         25    1    1    2    0    0  0.51024266514E+02 -0.10128975221E+03  0.49747288070E+02  0.17596272999E+03  0.12500000000E+03 0.  0.
         25    1    1    2    0    0  0.84297166705E+02  0.73961193680E+02  0.55474416187E+02  0.17685779976E+03  0.12500000000E+03 0.  0.
</event>
<event>
 5    0  0.5612316E-005  0.2904673E+03  0.7546771E-02  0.1090105E+00
         21   -1    0    0  502  501  0.00000000000E+00  0.00000000000E+00  0.56211611708E+03  0.56211611708E+03  0.00000000000E+00 0.  1.
         21   -1    0    0  501  502 -0.00000000000E+00 -0.00000000000E+00 -0.15009580841E+03  0.15009580841E+03  0.00000000000E+00 0.  1.
         25    1    1    2    0    0  0.76951954150E+02 -0.56542553894E+02  0.54370574378E+02  0.16643263804E+03  0.12500000000E+03 0.  0.
         25    1    1    2    0    0  0.64627427460E+02  0.13432003653E+03  0.24393328780E+03  0.31200484851E+03  0.12500000000E+03 0.  0.
         25    1    1    2    0    0 -0.14157938161E+03 -0.77777482635E+02  0.11371644649E+03  0.23377443895E+03  0.12500000000E+03 0.  0.
</event>
<event>
 5    0  0.5612316E-005  0.3052476E+03  0.7546771E-02  0.1082646E+00
         21   -1    0    0  502  501  0.00000000000E+00  0.00000000000E+00  0.14754718017E+03  0.14754718017E+03  0.00000000000E+00 0.  1.
         21   -1    0    0  501  502 -0.00000000000E+00 -0.00000000000E+00 -0.63150054769E+03  0.63150054769E+03  0.00000000000E+00 0.  1.
         25    1    1    2    0    0  0.67206230392E+02 -0.91716914175E+01  0.54806080985E+02  0.15241228244E+03  0.12500000000E+03 0.  0.
         25    1    1    2    0    0 -0.36620682252E+02 -0.20651995147E+02 -0.92114097045E+02  0.16086511787E+03  0.12500000000E+03 0.  0.
         25    1    1    2    0    0 -0.30585548140E+02  0.29823686564E+02 -0.44664535147E+03  0.46577032755E+03  0.12500000000E+03 0.  0.
</event>
<event>
 5    0  0.5612316E-005  0.2921871E+03  0.7546771E-02  0.1089213E+00
         21   -1    0    0  502  501  0.00000000000E+00  0.00000000000E+00  0.40352448860E+02  0.40352448860E+02  0.00000000000E+00 0. -1.
         21   -1    0    0  501  502 -0.00000000000E+00 -0.00000000000E+00 -0.21156912902E+04  0.21156912902E+04  0.00000000000E+00 0. -1.
         25    1    1    2    0    0  0.15699012478E+02  0.24773242328E+02 -0.20530208990E+03  0.24214483403E+03  0.12500000000E+03 0.  0.
         25    1    1    2    0    0 -0.12690868883E+03 -0.76522107817E+02 -0.56885884293E+03  0.60098821242E+03  0.12500000000E+03 0.  0.
         25    1    1    2    0    0  0.11120967635E+03  0.51748865489E+02 -0.13011779085E+04  0.13129106926E+04  0.12500000000E+03 0.  0.
</event>
<event>
 5    0  0.5612316E-005  0.2868570E+03  0.7546771E-02  0.1092002E+00
         21   -1    0    0  502  501  0.00000000000E+00  0.00000000000E+00  0.15648300088E+03  0.15648300088E+03  0.00000000000E+00 0.  1.
         21   -1    0    0  501  502 -0.00000000000E+00 -0.00000000000E+00 -0.52585242200E+03  0.52585242200E+03  0.00000000000E+00 0.  1.
         25    1    1    2    0    0  0.32628227760E+02 -0.39235904649E+02 -0.92898449474E+02  0.16388770355E+03  0.12500000000E+03 0.  0.
         25    1    1    2    0    0 -0.76408143723E+01 -0.15886403208E+03 -0.14256921568E+03  0.24748160334E+03  0.12500000000E+03 0.  0.
         25    1    1    2    0    0 -0.24987413387E+02  0.19809993673E+03 -0.13390175598E+03  0.27096611599E+03  0.12500000000E+03 0.  0.
</event>
<event>
 5    0  0.5612316E-005  0.4497971E+03  0.7546771E-02  0.1027783E+00
         21   -1    0    0  502  501  0.00000000000E+00  0.00000000000E+00  0.52264572511E+03  0.52264572511E+03  0.00000000000E+00 0.  1.
         21   -1    0    0  501  502 -0.00000000000E+00 -0.00000000000E+00 -0.38710249398E+03  0.38710249398E+03  0.00000000000E+00 0.  1.
         25    1    1    2    0    0 -0.43627629441E+02 -0.25754062766E+02  0.25303761570E+02  0.13722945074E+03  0.12500000000E+03 0.  0.
         25    1    1    2    0    0  0.14666680250E+03  0.66508125218E+02 -0.28097164243E+03  0.34713764637E+03  0.12500000000E+03 0.  0.
         25    1    1    2    0    0 -0.10303917306E+03 -0.40754062452E+02  0.39121111199E+03  0.42538112198E+03  0.12500000000E+03 0.  0.
</event>
<event>
 5    0  0.5612316E-005  0.4794206E+03  0.7546771E-02  0.1019295E+00
         21   -1    0    0  502  501  0.00000000000E+00  0.00000000000E+00  0.60301493993E+03  0.60301493993E+03  0.00000000000E+00 0.  1.
         21   -1    0    0  501  502 -0.00000000000E+00 -0.00000000000E+00 -0.38115824830E+03  0.38115824830E+03  0.00000000000E+00 0.  1.
         25    1    1    2    0    0  0.10786783935E+03 -0.18640963747E+03  0.26068375134E+02  0.25037688370E+03  0.12500000000E+03 0.  0.
         25    1    1    2    0    0 -0.11293770957E+03  0.34473691830E+03 -0.80119524442E+02  0.39197271242E+03  0.12500000000E+03 0.  0.
         25    1    1    2    0    0  0.50698702191E+01 -0.15832728083E+03  0.27590784093E+03  0.34182359211E+03  0.12500000000E+03 0.  0.
</event>
<event>
 5    0  0.5612316E-005  0.2482796E+03  0.7546771E-02  0.1114397E+00
         21   -1    0    0  502  501  0.00000000000E+00  0.00000000000E+00  0.27625308024E+03  0.27625308024E+03  0.00000000000E+00 0.  1.
         21   -1    0    0  501  502 -0.00000000000E+00 -0.00000000000E+00 -0.22313877044E+03  0.22313877044E+03  0.00000000000E+00 0.  1.
         25    1    1    2    0    0 -0.42597555019E+02  0.11581867042E+02  0.27381828267E+02  0.13536416016E+03  0.12500000000E+03 0.  0.
         25    1    1    2    0    0  0.11932459919E+02 -0.11724817416E+03 -0.53056182772E+02  0.17980399460E+03  0.12500000000E+03 0.  0.
         25    1    1    2    0    0  0.30665095100E+02  0.10566630711E+03  0.78788664309E+02  0.18422369592E+03  0.12500000000E+03 0.  0.
</event>
<event>
 5    0  0.5612316E-005  0.2662420E+03  0.7546771E-02  0.1103450E+00
         21   -1    0    0  502  501  0.00000000000E+00  0.00000000000E+00  0.19108177547E+03  0.19108177547E+03  0.00000000000E+00 0.  1.
         21   -1    0    0  501  502 -0.00000000000E+00 -0.00000000000E+00 -0.37096592712E+03  0.37096592712E+03  0.00000000000E+00 0.  1.
         25    1    1    2    0    0 -0.38834166931E+02  0.28555955596E+02 -0.33888816467E+02  0.13819184854E+03  0.12500000000E+03 0.  0.
         25    1    1    2    0    0  0.14064422239E+03 -0.78508350319E+01 -0.17692651165E+03  0.25839973573E+03  0.12500000000E+03 0.  0.
         25    1    1    2    0    0 -0.10181005546E+03 -0.20705120564E+02  0.30931176474E+02  0.16545611831E+03  0.12500000000E+03 0.  0.
</event>
<event>
 5    0  0.5612316E-005  0.2606495E+03  0.7546771E-02  0.1106754E+00
         21   -1    0    0  502  501  0.00000000000E+00  0.00000000000E+00  0.81486783616E+03  0.81486783616E+03  0.00000000000E+00 0. -1.
         21   -1    0    0  501  502 -0.00000000000E+00 -0.00000000000E+00 -0.83373249241E+02  0.83373249241E+02  0.00000000000E+00 0. -1.
         25    1    1    2    0    0  0.44860204356E+02 -0.10258488904E+03  0.17600016539E+03  0.24318132250E+03  0.12500000000E+03 0.  0.
         25    1    1    2    0    0 -0.62800015688E+02  0.50707383480E+02  0.99328655587E+02  0.17890294165E+03  0.12500000000E+03 0.  0.
         25    1    1    2    0    0  0.17939811333E+02  0.51877505557E+02  0.45616576594E+03  0.47615682126E+03  0.12500000000E+03 0.  0.
</event>
<event>
 5    0  0.5612316E-005  0.2452525E+03  0.7546771E-02  0.1116342E+00
         21   -1    0    0  502  501  0.00000000000E+00  0.00000000000E+00  0.85318018277E+02  0.85318018277E+02  0.00000000000E+00 0. -1.
         21   -1    0    0  501  502 -0.00000000000E+00 -0.00000000000E+00 -0.70499503556E+03  0.70499503556E+03  0.00000000000E+00 0. -1.
         25    1    1    2    0    0 -0.39555090211E+02 -0.13680797957E+03 -0.28301098926E+03  0.34058956014E+03  0.12500000000E+03 0.  0.
         25    1    1    2    0    0  0.38659542369E+02  0.68769126489E+02 -0.11949546057E+03  0.19007345441E+03  0.12500000000E+03 0.  0.
         25    1    1    2    0    0  0.89554784225E+00  0.68038853078E+02 -0.21717056745E+03  0.25965003929E+03  0.12500000000E+03 0.  0.
</event>
<event>
 5    0  0.5612316E-005  0.2643557E+03  0.7546771E-02  0.1104554E+00
         21   -1    0    0  502  501  0.00000000000E+00  0.00000000000E+00  0.31398000901E+02  0.31398000901E+02  0.00000000000E+00 0. -1.
         21   -1    0    0  501  502 -0.00000000000E+00 -0.00000000000E+00 -0.22257444206E+04  0.22257444206E+04  0.00000000000E+00 0. -1.
         25    1    1    2    0    0 -0.16535498572E+01 -0.83676346335E+01 -0.22410405036E+03  0.25674963861E+03  0.12500000000E+03 0.  0.
         25    1    1    2    0    0  0.24958894430E+02 -0.52726173008E+02 -0.38646538400E+03  0.41034557237E+03  0.12500000000E+03 0.  0.
         25    1    1    2    0    0 -0.23305344572E+02  0.61093807642E+02 -0.15837769853E+04  0.15900472105E+04  0.12500000000E+03 0.  0.
</event>
<event>
 5    0  0.5612316E-005  0.4238904E+03  0.7546771E-02  0.1035808E+00
         21   -1    0    0  502  501  0.00000000000E+00  0.00000000000E+00  0.15771492680E+03  0.15771492680E+03  0.00000000000E+00 0.  1.
         21   -1    0    0  501  502 -0.00000000000E+00 -0.00000000000E+00 -0.11392899719E+04  0.11392899719E+04  0.00000000000E+00 0.  1.
         25    1    1    2    0    0  0.24430243466E+03  0.17135764267E+03 -0.75222377361E+03  0.81884841507E+03  0.12500000000E+03 0.  0.
         25    1    1    2    0    0 -0.11821788450E+03 -0.12620037702E+03 -0.44614357038E+02  0.21798496331E+03  0.12500000000E+03 0.  0.
         25    1    1    2    0    0 -0.12608455015E+03 -0.45157265651E+02 -0.18473691448E+03  0.26017152035E+03  0.12500000000E+03 0.  0.
</event>
<event>
 5    0  0.5612316E-005  0.2466598E+03  0.7546771E-02  0.1115434E+00
         21   -1    0    0  502  501  0.00000000000E+00  0.00000000000E+00  0.31358962318E+03  0.31358962318E+03  0.00000000000E+00 0.  1.
         21   -1    0    0  501  502 -0.00000000000E+00 -0.00000000000E+00 -0.19401488072E+03  0.19401488072E+03  0.00000000000E+00 0.  1.
         25    1    1    2    0    0 -0.98759157347E+02  0.61712417648E+02  0.96244042256E+02  0.19608597431E+03  0.12500000000E+03 0.  0.
         25    1    1    2    0    0  0.78040749043E+02 -0.90207700797E+02  0.48006773428E+02  0.17932495111E+03  0.12500000000E+03 0.  0.
         25    1    1    2    0    0  0.20718408304E+02  0.28495283149E+02 -0.24676073226E+02  0.13219357849E+03  0.12500000000E+03 0.  0.
</event>
<event>
 5    0  0.5612316E-005  0.3395204E+03  0.7546771E-02  0.1067000E+00
         21   -1    0    0  502  501  0.00000000000E+00  0.00000000000E+00  0.12853582690E+04  0.12853582690E+04  0.00000000000E+00 0. -1.
         21   -1    0    0  501  502 -0.00000000000E+00 -0.00000000000E+00 -0.89682461556E+02  0.89682461556E+02  0.00000000000E+00 0. -1.
         25    1    1    2    0    0  0.12213631406E+02 -0.12143960312E+03  0.27218452682E+03  0.32342876594E+03  0.12500000000E+03 0.  0.
         25    1    1    2    0    0  0.64705201800E+02  0.25587208639E+03  0.65717688924E+03  0.71914098165E+03  0.12500000000E+03 0.  0.
         25    1    1    2    0    0 -0.76918833206E+02 -0.13443248327E+03  0.26631439142E+03  0.33247098300E+03  0.12500000000E+03 0.  0.
</event>
<event>
 5    0  0.5612316E-005  0.2966641E+03  0.7546771E-02  0.1086920E+00
         21   -1    0    0  502  501  0.00000000000E+00  0.00000000000E+00  0.13626957929E+03  0.13626957929E+03  0.00000000000E+00 0. -1.
         21   -1    0    0  501  502 -0.00000000000E+00 -0.00000000000E+00 -0.64584916251E+03  0.64584916251E+03  0.00000000000E+00 0. -1.
         25    1    1    2    0    0 -0.57768667424E+02  0.18747844309E+02 -0.19565838770E+03  0.23999146918E+03  0.12500000000E+03 0.  0.
         25    1    1    2    0    0  0.28948390288E+02 -0.18316678796E+03 -0.21897213322E+03  0.31298862062E+03  0.12500000000E+03 0.  0.
         25    1    1    2    0    0  0.28820277136E+02  0.16441894365E+03 -0.94949062304E+02  0.22913865199E+03  0.12500000000E+03 0.  0.
</event>
<event>
 5    0  0.5612316E-005  0.3059691E+03  0.7546771E-02  0.1082294E+00
         21   -1    0    0  502  501  0.00000000000E+00  0.00000000000E+00  0.24292871460E+03  0.24292871460E+03  0.00000000000E+00 0.  1.
         21   -1    0    0  501  502 -0.00000000000E+00 -0.00000000000E+00 -0.38536868224E+03  0.38536868224E+03  0.00000000000E+00 0.  1.
         25    1    1    2    0    0 -0.13767261242E+03 -0.17320567044E+03 -0.11937413447E+03  0.28076526933E+03  0.12500000000E+03 0.  0.
         25    1    1    2    0    0  0.38702107490E+02  0.58518711482E+02  0.24578066205E+02  0.14543511975E+03  0.12500000000E+03 0.  0.
         25    1    1    2    0    0  0.98970504926E+02  0.11468695896E+03 -0.47643899380E+02  0.20209700777E+03  0.12500000000E+03 0.  0.
</event>
<event>
 5    0  0.5612316E-005  0.2493752E+03  0.7546771E-02  0.1113700E+00
         21   -1    0    0  502  501  0.00000000000E+00  0.00000000000E+00  0.12930599838E+03  0.12930599838E+03  0.00000000000E+00 0.  1.
         21   -1    0    0  501  502 -0.00000000000E+00 -0.00000000000E+00 -0.48093668004E+03  0.48093668004E+03  0.00000000000E+00 0.  1.
         25    1    1    2    0    0 -0.64644858147E+02 -0.85196999185E+02 -0.18620676329E+03  0.24846618492E+03  0.12500000000E+03 0.  0.
         25    1    1    2    0    0  0.66767407346E+02  0.12656436770E+03 -0.10092278904E+03  0.21514375474E+03  0.12500000000E+03 0.  0.
         25    1    1    2    0    0 -0.21225491995E+01 -0.41367368516E+02 -0.64501129323E+02  0.14663273876E+03  0.12500000000E+03 0.  0.
</event>
<event>
 5    0  0.5612316E-005  0.3111301E+03  0.7546771E-02  0.1079805E+00
         21   -1    0    0  502  501  0.00000000000E+00  0.00000000000E+00  0.58546319798E+03  0.58546319798E+03  0.00000000000E+00 0. -1.
         21   -1    0    0  501  502 -0.00000000000E+00 -0.00000000000E+00 -0.16534243389E+03  0.16534243389E+03  0.00000000000E+00 0. -1.
         25    1    1    2    0    0  0.92028695594E+02  0.10492364844E+03  0.45897285092E+01  0.18741482978E+03  0.12500000000E+03 0.  0.
         25    1    1    2    0    0 -0.24294507334E+02 -0.17934463805E+03  0.23706308745E+03  0.32338619284E+03  0.12500000000E+03 0.  0.
         25    1    1    2    0    0 -0.67734188259E+02  0.74420989615E+02  0.17846794813E+03  0.24000460926E+03  0.12500000000E+03 0.  0.
</event>
<event>
 5    0  0.5612316E-005  0.2520329E+03  0.7546771E-02  0.1112027E+00
         21   -1    0    0  502  501  0.00000000000E+00  0.00000000000E+00  0.17578872294E+03  0.17578872294E+03  0.00000000000E+00 0. -1.
         21   -1    0    0  501  502 -0.00000000000E+00 -0.00000000000E+00 -0.36134604711E+03  0.36134604711E+03  0.00000000000E+00 0. -1.
         25    1    1    2    0    0  0.54756168042E+02 -0.29750658698E+02 -0.19415506649E+02  0.14101525283E+03  0.12500000000E+03 0.  0.
         25    1    1    2    0    0  0.24316412257E+02 -0.13497426912E+02 -0.20080853186E+03  0.23816493215E+03  0.12500000000E+03 0.  0.
         25    1    1    2    0    0 -0.79072580299E+02  0.43248085609E+02  0.34666714327E+02  0.15795458508E+03  0.12500000000E+03 0.  0.
</event>
<event>
 5    0  0.5612316E-005  0.2888871E+03  0.7546771E-02  0.1090932E+00
         21   -1    0    0  502  501  0.00000000000E+00  0.00000000000E+00  0.58019416540E+03  0.58019416540E+03  0.00000000000E+00 0. -1.
         21   -1    0    0  501  502 -0.00000000000E+00 -0.00000000000E+00 -0.14384107549E+03  0.14384107549E+03  0.00000000000E+00 0. -1.
         25    1    1    2    0    0 -0.67374397650E+02 -0.54859938852E+02  0.68870485744E+02  0.16708400928E+03  0.12500000000E+03 0.  0.
         25    1    1    2    0    0 -0.56591436063E+02  0.31347905727E+02  0.35148930435E+03  0.37862252033E+03  0.12500000000E+03 0.  0.
         25    1    1    2    0    0  0.12396583371E+03  0.23512033125E+02  0.15993299828E+02  0.17832871129E+03  0.12500000000E+03 0.  0.
</event>
<event>
 5    0  0.5612316E-005  0.3882730E+03  0.7546771E-02  0.1047918E+00
         21   -1    0    0  502  501  0.00000000000E+00  0.00000000000E+00  0.39302559190E+03  0.39302559190E+03  0.00000000000E+00 0.  1.
         21   -1    0    0  501  502 -0.00000000000E+00 -0.00000000000E+00 -0.38357794828E+03  0.38357794828E+03  0.00000000000E+00 0.  1.
         25    1    1    2    0    0 -0.14694197443E+03 -0.12990174847E+02 -0.10150727851E+03  0.21837906512E+03  0.12500000000E+03 0.  0.
         25    1    1    2    0    0  0.31207797935E+03 -0.16758023643E+02  0.50012084130E+02  0.34029355725E+03  0.12500000000E+03 0.  0.
         25    1    1    2    0    0 -0.16513600491E+03  0.29748198491E+02  0.60942837995E+02  0.21793091780E+03  0.12500000000E+03 0.  0.
</event>
<event>
 5    0  0.5612316E-005  0.5040524E+03  0.7546771E-02  0.1012727E+00
         21   -1    0    0  502  501  0.00000000000E+00  0.00000000000E+00  0.30015266745E+03  0.30015266745E+03  0.00000000000E+00 0.  1.
         21   -1    0    0  501  502 -0.00000000000E+00 -0.00000000000E+00 -0.84646540847E+03  0.84646540847E+03  0.00000000000E+00 0.  1.
         25    1    1    2    0    0  0.57400963091E+02  0.99114430807E+02 -0.62699441460E+02  0.18076161351E+03  0.12500000000E+03 0.  0.
         25    1    1    2    0    0  0.20068269294E+03 -0.34323725257E+03 -0.40497589235E+03  0.58113322757E+03  0.12500000000E+03 0.  0.
         25    1    1    2    0    0 -0.25808365604E+03  0.24412282176E+03 -0.78637407207E+02  0.38472323485E+03  0.12500000000E+03 0.  0.
</event>
<event>
 5    0  0.5612316E-005  0.3400043E+03  0.7546771E-02  0.1066794E+00
         21   -1    0    0  502  501  0.00000000000E+00  0.00000000000E+00  0.67459116205E+03  0.67459116205E+03  0.00000000000E+00 0. -1.
         21   -1    0    0  501  502 -0.00000000000E+00 -0.00000000000E+00 -0.17136738352E+03  0.17136738352E+03  0.00000000000E+00 0. -1.
         25    1    1    2    0    0 -0.29656537313E+02  0.15660274126E+03  0.67222256822E+02  0.21341921325E+03  0.12500000000E+03 0.  0.
         25    1    1    2    0    0 -0.13241338327E+03 -0.16813319295E+03  0.28644115075E+03  0.37878174122E+03  0.12500000000E+03 0.  0.
         25    1    1    2    0    0  0.16206992058E+03  0.11530451693E+02  0.14956037096E+03  0.25375759109E+03  0.12500000000E+03 0.  0.
</event>
<event>
 5    0  0.5612316E-005  0.3828768E+03  0.7546771E-02  0.1049876E+00
         21   -1    0    0  502  501  0.00000000000E+00  0.00000000000E+00  0.72718094066E+03  0.72718094066E+03  0.00000000000E+00 0.  1.
         21   -1    0    0  501  502 -0.00000000000E+00 -0.00000000000E+00 -0.20159312905E+03  0.20159312905E+03  0.00000000000E+00 0.  1.
         25    1    1    2    0    0 -0.62269360100E+02 -0.34482844830E+02 -0.89774891801E+02  0.16956140773E+03  0.12500000000E+03 0.  0.
         25    1    1    2    0    0  0.51906283882E+02  0.16896357681E+03  0.49269123557E+03  0.53815667440E+03  0.12500000000E+03 0.  0.
         25    1    1    2    0    0  0.10363076218E+02 -0.13448073198E+03  0.12267146783E+03  0.22105598758E+03  0.12500000000E+03 0.  0.
</event>
<event>
 5    0  0.5612316E-005  0.2632011E+03  0.7546771E-02  0.1105235E+00
         21   -1    0    0  502  501  0.00000000000E+00  0.00000000000E+00  0.15825394889E+03  0.15825394889E+03  0.00000000000E+00 0.  1.
         21   -1    0    0  501  502 -0.00000000000E+00 -0.00000000000E+00 -0.43774464470E+03  0.43774464470E+03  0.00000000000E+00 0.  1.
         25    1    1    2    0    0 -0.45254818896E+02 -0.58438226088E+02 -0.18835088448E+03  0.23783204281E+03  0.12500000000E+03 0.  0.
         25    1    1    2    0    0  0.68505606293E+02  0.11839978873E+03  0.90828491894E+01  0.18552365406E+03  0.12500000000E+03 0.  0.
         25    1    1    2    0    0 -0.23250787398E+02 -0.59961562644E+02 -0.10022266051E+03  0.17264289673E+03  0.12500000000E+03 0.  0.
</event>
<event>
 5    0  0.5612316E-005  0.4231652E+03  0.7546771E-02  0.1036041E+00
         21   -1    0    0  502  501  0.00000000000E+00  0.00000000000E+00  0.10925825935E+04  0.10925825935E+04  0.00000000000E+00 0.  1.
         21   -1    0    0  501  502 -0.00000000000E+00 -0.00000000000E+00 -0.16389493673E+03  0.16389493673E+03  0.00000000000E+00 0.  1.
         25    1    1    2    0    0 -0.35081271388E+02 -0.16951639571E+03  0.12137933369E+03  0.24561035537E+03  0.12500000000E+03 0.  0.
         25    1    1    2    0    0  0.22223875110E+03 -0.80917786904E+02  0.41658290649E+03  0.49507986094E+03  0.12500000000E+03 0.  0.
         25    1    1    2    0    0 -0.18715747972E+03  0.25043418262E+03  0.39072541663E+03  0.51578731396E+03  0.12500000000E+03 0.  0.
</event>
<event>
 5    0  0.5612316E-005  0.2460804E+03  0.7546771E-02  0.1115807E+00
         21   -1    0    0  502  501  0.00000000000E+00  0.00000000000E+00  0.34692835791E+03  0.34692835791E+03  0.00000000000E+00 0.  1.
         21   -1    0    0  501  502 -0.00000000000E+00 -0.00000000000E+00 -0.17454768914E+03  0.17454768914E+03  0.00000000000E+00 0.  1.
         25    1    1    2    0    0 -0.20088329832E+02 -0.62120539153E+02  0.67387010016E+02  0.15629622996E+03  0.12500000000E+03 0.  0.
         25    1    1    2    0    0 -0.46549289359E+01 -0.37441022720E+02 -0.51299465190E+02  0.14028589977E+03  0.12500000000E+03 0.  0.
         25    1    1    2    0    0  0.24743258768E+02  0.99561561873E+02  0.15629312394E+03  0.22489391732E+03  0.12500000000E+03 0.  0.
</event>
<event>
 5    0  0.5612316E-005  0.6049577E+03  0.7546771E-02  0.9895174E-01
         21   -1    0    0  502  501  0.00000000000E+00  0.00000000000E+00  0.65650409034E+03  0.65650409034E+03  0.00000000000E+00 0.  1.
         21   -1    0    0  501  502 -0.00000000000E+00 -0.00000000000E+00 -0.55745850960E+03  0.55745850960E+03  0.00000000000E+00 0.  1.
         25    1    1    2    0    0  0.86276733116E+00 -0.45063670656E+02  0.68878308895E+02  0.14966863471E+03  0.12500000000E+03 0.  0.
         25    1    1    2    0    0 -0.14331940015E+03  0.44144581722E+03 -0.25141250679E+03  0.54244641078E+03  0.12500000000E+03 0.  0.
         25    1    1    2    0    0  0.14245663282E+03 -0.39638214657E+03  0.28157977864E+03  0.52184755445E+03  0.12500000000E+03 0.  0.
</event>
<event>
 5    0  0.5612316E-005  0.2720481E+03  0.7546771E-02  0.1100113E+00
         21   -1    0    0  502  501  0.00000000000E+00  0.00000000000E+00  0.13301193457E+03  0.13301193457E+03  0.00000000000E+00 0.  1.
         21   -1    0    0  501  502 -0.00000000000E+00 -0.00000000000E+00 -0.55641735781E+03  0.55641735781E+03  0.00000000000E+00 0.  1.
         25    1    1    2    0    0 -0.12386089065E+03 -0.89279712539E+02 -0.30687127769E+03  0.36483882520E+03  0.12500000000E+03 0.  0.
         25    1    1    2    0    0  0.56257020434E+02  0.81897755115E+02 -0.74555980237E+02  0.17622624331E+03  0.12500000000E+03 0.  0.
         25    1    1    2    0    0  0.67603870218E+02  0.73819574246E+01 -0.41978165311E+02  0.14836422388E+03  0.12500000000E+03 0.  0.
</event>
<event>
 5    0  0.5612316E-005  0.6195655E+03  0.7546771E-02  0.9865625E-01
         21   -1    0    0  502  501  0.00000000000E+00  0.00000000000E+00  0.82784151019E+03  0.82784151019E+03  0.00000000000E+00 0.  1.
         21   -1    0    0  501  502 -0.00000000000E+00 -0.00000000000E+00 -0.46368951395E+03  0.46368951395E+03  0.00000000000E+00 0.  1.
         25    1    1    2    0    0  0.38322396560E+02 -0.43480681484E+02  0.44400583443E+03  0.46489284437E+03  0.12500000000E+03 0.  0.
         25    1    1    2    0    0  0.30103988131E+03  0.74729522846E+02 -0.25791348368E+03  0.42231963817E+03  0.12500000000E+03 0.  0.
         25    1    1    2    0    0 -0.33936227787E+03 -0.31248841362E+02  0.17805964550E+03  0.40431854160E+03  0.12500000000E+03 0.  0.
</event>
<event>
 5    0  0.5612316E-005  0.3559727E+03  0.7546771E-02  0.1060190E+00
         21   -1    0    0  502  501  0.00000000000E+00  0.00000000000E+00  0.12475046925E+04  0.12475046925E+04  0.00000000000E+00 0.  1.
         21   -1    0    0  501  502 -0.00000000000E+00 -0.00000000000E+00 -0.10157601750E+03  0.10157601750E+03  0.00000000000E+00 0.  1.
         25    1    1    2    0    0  0.74533964513E+02  0.57070791133E+02  0.13992330583E+03  0.20979971063E+03  0.12500000000E+03 0.  0.
         25    1    1    2    0    0 -0.14495078099E+03 -0.23457950185E+03  0.50627086706E+03  0.58989275502E+03  0.12500000000E+03 0.  0.
         25    1    1    2    0    0  0.70416816478E+02  0.17750871071E+03  0.49973450216E+03  0.54938824438E+03  0.12500000000E+03 0.  0.
</event>
<event>
 5    0  0.5612316E-005  0.3889521E+03  0.7546771E-02  0.1047674E+00
         21   -1    0    0  502  501  0.00000000000E+00  0.00000000000E+00  0.23466722968E+03  0.23466722968E+03  0.00000000000E+00 0.  1.
         21   -1    0    0  501  502 -0.00000000000E+00 -0.00000000000E+00 -0.64467335721E+03  0.64467335721E+03  0.00000000000E+00 0.  1.
         25    1    1    2    0    0 -0.42519351398E+02  0.11426226316E+03  0.22709651991E+02  0.17608091412E+03  0.12500000000E+03 0.  0.
         25    1    1    2    0    0 -0.11202991557E+03 -0.25706435701E+03 -0.20668097904E+03  0.37010108447E+03  0.12500000000E+03 0.  0.
         25    1    1    2    0    0  0.15454926696E+03  0.14280209386E+03 -0.22603480049E+03  0.33315858830E+03  0.12500000000E+03 0.  0.
</event>
<event>
 5    0  0.5612316E-005  0.3421521E+03  0.7546771E-02  0.1065883E+00
         21   -1    0    0  502  501  0.00000000000E+00  0.00000000000E+00  0.82173603025E+03  0.82173603025E+03  0.00000000000E+00 0.  1.
         21   -1    0    0  501  502 -0.00000000000E+00 -0.00000000000E+00 -0.14246434762E+03  0.14246434762E+03  0.00000000000E+00 0.  1.
         25    1    1    2    0    0  0.97118548783E+02  0.25905371232E+03  0.33054971572E+03  0.44880836996E+03  0.12500000000E+03 0.  0.
         25    1    1    2    0    0 -0.72823042457E+02 -0.17346949593E+03  0.19943599132E+03  0.30132138352E+03  0.12500000000E+03 0.  0.
         25    1    1    2    0    0 -0.24295506326E+02 -0.85584216389E+02  0.14928597558E+03  0.21407062439E+03  0.12500000000E+03 0.  0.
</event>
<event>
 5    0  0.5612316E-005  0.7741256E+03  0.7546771E-02  0.9598243E-01
         21   -1    0    0  502  501  0.00000000000E+00  0.00000000000E+00  0.22212845155E+04  0.22212845155E+04  0.00000000000E+00 0. -1.
         21   -1    0    0  501  502 -0.00000000000E+00 -0.00000000000E+00 -0.26978552909E+03  0.26978552909E+03  0.00000000000E+00 0. -1.
         25    1    1    2    0    0 -0.37023733686E+03  0.12610482111E+03  0.47057491755E+03  0.62453491860E+03  0.12500000000E+03 0.  0.
         25    1    1    2    0    0  0.31851432378E+03 -0.11962299108E+03  0.16272618858E+04  0.16671434490E+04  0.12500000000E+03 0.  0.
         25    1    1    2    0    0  0.51723013080E+02 -0.64818300306E+01 -0.14633781695E+03  0.19939167704E+03  0.12500000000E+03 0.  0.
</event>
<event>
 5    0  0.6328005E-005  0.2920751E+03  0.7546771E-02  0.1089271E+00
         21   -1    0    0  502  501  0.00000000000E+00  0.00000000000E+00  0.35543983907E+03  0.35543983907E+03  0.00000000000E+00 0. -1.
         21   -1    0    0  501  502 -0.00000000000E+00 -0.00000000000E+00 -0.24000648101E+03  0.24000648101E+03  0.00000000000E+00 0. -1.
         25    1    1    2    0    0  0.10904640722E+03  0.36525831855E+02  0.35791285809E+02  0.17358361518E+03  0.12500000000E+03 0.  0.
         25    1    1    2    0    0 -0.18086661711E+03 -0.11608904998E+03  0.33599954239E+02  0.25088514830E+03  0.12500000000E+03 0.  0.
         25    1    1    2    0    0  0.71820209897E+02  0.79563218128E+02  0.46042118016E+02  0.17097755660E+03  0.12500000000E+03 0.  0.
</event>
<event>
 5    0  0.5612316E-005  0.2721743E+03  0.7546771E-02  0.1100042E+00
         21   -1    0    0  502  501  0.00000000000E+00  0.00000000000E+00  0.48954035764E+03  0.48954035764E+03  0.00000000000E+00 0.  1.
         21   -1    0    0  501  502 -0.00000000000E+00 -0.00000000000E+00 -0.15132325616E+03  0.15132325616E+03  0.00000000000E+00 0.  1.
         25    1    1    2    0    0  0.44716971377E+02  0.23057394037E+02  0.32785878511E+02  0.13867647522E+03  0.12500000000E+03 0.  0.
         25    1    1    2    0    0  0.38751608785E+02 -0.15201096316E+03  0.15354280943E+03  0.25260525416E+03  0.12500000000E+03 0.  0.
         25    1    1    2    0    0 -0.83468580161E+02  0.12895356912E+03  0.15188841354E+03  0.24958188442E+03  0.12500000000E+03 0.  0.
</event>
<event>
 5    0  0.5612316E-005  0.2563108E+03  0.7546771E-02  0.1109380E+00
         21   -1    0    0  502  501  0.00000000000E+00  0.00000000000E+00  0.70247646850E+02  0.70247646850E+02  0.00000000000E+00 0. -1.
         21   -1    0    0  501  502 -0.00000000000E+00 -0.00000000000E+00 -0.93519442300E+03  0.93519442300E+03  0.00000000000E+00 0. -1.
         25    1    1    2    0    0  0.89498756393E+02  0.11631308058E+03 -0.27130163912E+03  0.33281877877E+03  0.12500000000E+03 0.  0.
         25    1    1    2    0    0 -0.88546520881E+02 -0.36602465801E+02 -0.21935340277E+03  0.27003914932E+03  0.12500000000E+03 0.  0.
         25    1    1    2    0    0 -0.95223551120E+00 -0.79710614774E+02 -0.37429173426E+03  0.40258414176E+03  0.12500000000E+03 0.  0.
</event>
<event>
 5    0  0.5612316E-005  0.3259356E+03  0.7546771E-02  0.1072950E+00
         21   -1    0    0  502  501  0.00000000000E+00  0.00000000000E+00  0.17281483897E+03  0.17281483897E+03  0.00000000000E+00 0.  1.
         21   -1    0    0  501  502 -0.00000000000E+00 -0.00000000000E+00 -0.61472736198E+03  0.61472736198E+03  0.00000000000E+00 0.  1.
         25    1    1    2    0    0 -0.72295658740E+02  0.84098074788E+02 -0.55047775243E+02  0.17593864276E+03  0.12500000000E+03 0.  0.
         25    1    1    2    0    0  0.10421592626E+03 -0.91625461324E+02 -0.43523709870E+03  0.47361642342E+03  0.12500000000E+03 0.  0.
         25    1    1    2    0    0 -0.31920267521E+02  0.75273865364E+01  0.48372350933E+02  0.13798713477E+03  0.12500000000E+03 0.  0.
</event>
<event>
 5    0  0.5612316E-005  0.3386117E+03  0.7546771E-02  0.1067389E+00
         21   -1    0    0  502  501  0.00000000000E+00  0.00000000000E+00  0.11732126431E+04  0.11732126431E+04  0.00000000000E+00 0. -1.
         21   -1    0    0  501  502 -0.00000000000E+00 -0.00000000000E+00 -0.97729820389E+02  0.97729820389E+02  0.00000000000E+00 0. -1.
         25    1    1    2    0    0  0.13998968582E+03  0.10828245198E+03  0.40157984151E+03  0.45630425228E+03  0.12500000000E+03 0.  0.
         25    1    1    2    0    0 -0.12119292706E+03  0.76682520298E+02  0.14173984449E+03  0.23724063313E+03  0.12500000000E+03 0.  0.
         25    1    1    2    0    0 -0.18796758756E+02 -0.18496497227E+03  0.53216313673E+03  0.57739757811E+03  0.12500000000E+03 0.  0.
</event>
<event>
 5    0  0.5612316E-005  0.3425160E+03  0.7546771E-02  0.1065729E+00
         21   -1    0    0  502  501  0.00000000000E+00  0.00000000000E+00  0.92958740592E+03  0.92958740592E+03  0.00000000000E+00 0.  1.
         21   -1    0    0  501  502 -0.00000000000E+00 -0.00000000000E+00 -0.12620352440E+03  0.12620352440E+03  0.00000000000E+00 0.  1.
         25    1    1    2    0    0 -0.11906303362E+03 -0.19401588889E+02  0.48115416525E+03  0.51155328008E+03  0.12500000000E+03 0.  0.
         25    1    1    2    0    0  0.15518389981E+03 -0.12880166644E+03  0.21268585200E+03  0.31864115190E+03  0.12500000000E+03 0.  0.
         25    1    1    2    0    0 -0.36120866185E+02  0.14820325533E+03  0.10954386427E+03  0.22559649834E+03  0.12500000000E+03 0.  0.
</event>
<event>
 5    0  0.5612316E-005  0.2593162E+03  0.7546771E-02  0.1107555E+00
         21   -1    0    0  502  501  0.00000000000E+00  0.00000000000E+00  0.15407516272E+03  0.15407516272E+03  0.00000000000E+00 0. -1.
         21   -1    0    0  501  502 -0.00000000000E+00 -0.00000000000E+00 -0.43644204660E+03  0.43644204660E+03  0.00000000000E+00 0. -1.
         25    1    1    2    0    0 -0.96786278805E+02  0.34015827648E+02  0.34236827621E+01  0.16174480486E+03  0.12500000000E+03 0.  0.
         25    1    1    2    0    0  0.25771433457E+02 -0.47803900076E+02 -0.24220244066E+03  0.27791437873E+03  0.12500000000E+03 0.  0.
         25    1    1    2    0    0  0.71014845347E+02  0.13788072428E+02 -0.43588125979E+02  0.15085802573E+03  0.12500000000E+03 0.  0.
</event>
<event>
 5    0  0.5612316E-005  0.2461545E+03  0.7546771E-02  0.1115759E+00
         21   -1    0    0  502  501  0.00000000000E+00  0.00000000000E+00  0.58214496198E+03  0.58214496198E+03  0.00000000000E+00 0.  1.
         21   -1    0    0  501  502 -0.00000000000E+00 -0.00000000000E+00 -0.10408411070E+03  0.10408411070E+03  0.00000000000E+00 0.  1.
         25    1    1    2    0    0  0.30837985464E+02  0.76881347393E+02  0.15263841126E+03  0.21397478243E+03  0.12500000000E+03 0.  0.
         25    1    1    2    0    0 -0.82012045058E+01  0.31255755197E+02  0.26507987735E+03  0.29485000146E+03  0.12500000000E+03 0.  0.
         25    1    1    2    0    0 -0.22636780958E+02 -0.10813710259E+03  0.60342562680E+02  0.17740428879E+03  0.12500000000E+03 0.  0.
</event>
<event>
 5    0  0.5612316E-005  0.3224552E+03  0.7546771E-02  0.1074525E+00
         21   -1    0    0  502  501  0.00000000000E+00  0.00000000000E+00  0.49192453423E+02  0.49192453423E+02  0.00000000000E+00 0.  1.
         21   -1    0    0  501  502 -0.00000000000E+00 -0.00000000000E+00 -0.21136855602E+04  0.21136855602E+04  0.00000000000E+00 0.  1.
         25    1    1    2    0    0 -0.15887620079E+03 -0.71941785473E+02 -0.35373769482E+03  0.41373013476E+03  0.12500000000E+03 0.  0.
         25    1    1    2    0    0  0.44223223754E+02 -0.47934669312E+00 -0.11766238775E+04  0.11840712277E+04  0.12500000000E+03 0.  0.
         25    1    1    2    0    0  0.11465297703E+03  0.72421132166E+02 -0.53413153452E+03  0.56507665117E+03  0.12500000000E+03 0.  0.
</event>
<event>
 5    0  0.5612316E-005  0.4390748E+03  0.7546771E-02  0.1031031E+00
         21   -1    0    0  502  501  0.00000000000E+00  0.00000000000E+00  0.32899568381E+03  0.32899568381E+03  0.00000000000E+00 0.  1.
         21   -1    0    0  501  502 -0.00000000000E+00 -0.00000000000E+00 -0.58598553592E+03  0.58598553592E+03  0.00000000000E+00 0.  1.
         25    1    1    2    0    0 -0.30460055307E+03 -0.50357111293E+02  0.68312214603E+02  0.34001307953E+03  0.12500000000E+03 0.  0.
         25    1    1    2    0    0  0.49830005423E+02  0.10163921614E+03 -0.19703853237E+03  0.25935061777E+03  0.12500000000E+03 0.  0.
         25    1    1    2    0    0  0.25477054765E+03 -0.51282104851E+02 -0.12826353434E+03  0.31561752243E+03  0.12500000000E+03 0.  0.
</event>
<event>
 5    0  0.5612316E-005  0.3573714E+03  0.7546771E-02  0.1059630E+00
         21   -1    0    0  502  501  0.00000000000E+00  0.00000000000E+00  0.11390524237E+03  0.11390524237E+03  0.00000000000E+00 0.  1.
         21   -1    0    0  501  502 -0.00000000000E+00 -0.00000000000E+00 -0.11212329905E+04  0.11212329905E+04  0.00000000000E+00 0.  1.
         25    1    1    2    0    0  0.24651697446E+03  0.71541181287E+01 -0.21926984897E+03  0.35288251129E+03  0.12500000000E+03 0.  0.
         25    1    1    2    0    0 -0.13019972898E+03 -0.37711640674E+02 -0.21358492677E+03  0.28216601180E+03  0.12500000000E+03 0.  0.
         25    1    1    2    0    0 -0.11631724548E+03  0.30557522545E+02 -0.57447297239E+03  0.60008970978E+03  0.12500000000E+03 0.  0.
</event>
<event>
 5    0  0.5612316E-005  0.2882683E+03  0.7546771E-02  0.1091257E+00
         21   -1    0    0  502  501  0.00000000000E+00  0.00000000000E+00  0.99999041417E+02  0.99999041417E+02  0.00000000000E+00 0. -1.
         21   -1    0    0  501  502 -0.00000000000E+00 -0.00000000000E+00 -0.83099434490E+03  0.83099434490E+03  0.00000000000E+00 0. -1.
         25    1    1    2    0    0 -0.88176293759E+02  0.14474842896E+02 -0.23191596389E+02  0.15539443362E+03  0.12500000000E+03 0.  0.
         25    1    1    2    0    0 -0.13270187727E+02 -0.71726328530E+02 -0.28689993607E+03  0.32133679747E+03  0.12500000000E+03 0.  0.
         25    1    1    2    0    0  0.10144648149E+03  0.57251485635E+02 -0.42090377102E+03  0.45426215523E+03  0.12500000000E+03 0.  0.
</event>
<event>
 5    0  0.5612316E-005  0.3309949E+03  0.7546771E-02  0.1070697E+00
         21   -1    0    0  502  501  0.00000000000E+00  0.00000000000E+00  0.15405204819E+03  0.15405204819E+03  0.00000000000E+00 0. -1.
         21   -1    0    0  501  502 -0.00000000000E+00 -0.00000000000E+00 -0.71117290298E+03  0.71117290298E+03  0.00000000000E+00 0. -1.
         25    1    1    2    0    0 -0.66117446815E+02  0.17023634258E+03 -0.36368534127E+03  0.42572756143E+03  0.12500000000E+03 0.  0.
         25    1    1    2    0    0  0.59772240332E+02 -0.21925860903E+03 -0.11358121357E+03  0.28314793028E+03  0.12500000000E+03 0.  0.
         25    1    1    2    0    0  0.63452064836E+01  0.49022266453E+02 -0.79854299955E+02  0.15634945946E+03  0.12500000000E+03 0.  0.
</event>
<event>
 5    0  0.5612316E-005  0.3111926E+03  0.7546771E-02  0.1079776E+00
         21   -1    0    0  502  501  0.00000000000E+00  0.00000000000E+00  0.79391174466E+03  0.79391174466E+03  0.00000000000E+00 0. -1.
         21   -1    0    0  501  502 -0.00000000000E+00 -0.00000000000E+00 -0.12197938279E+03  0.12197938279E+03  0.00000000000E+00 0. -1.
         25    1    1    2    0    0  0.42922710352E+02 -0.88816253341E+02  0.18526485340E+03  0.24429234909E+03  0.12500000000E+03 0.  0.
         25    1    1    2    0    0  0.13656336462E+03 -0.64031359993E+02  0.21238405600E+03  0.28893174776E+03  0.12500000000E+03 0.  0.
         25    1    1    2    0    0 -0.17948607497E+03  0.15284761333E+03  0.27428345247E+03  0.38266703060E+03  0.12500000000E+03 0.  0.
</event>
<event>
 5    0  0.5612316E-005  0.2544964E+03  0.7546771E-02  0.1110496E+00
         21   -1    0    0  502  501  0.00000000000E+00  0.00000000000E+00  0.14554263369E+03  0.14554263369E+03  0.00000000000E+00 0.  1.
         21   -1    0    0  501  502 -0.00000000000E+00 -0.00000000000E+00 -0.44501340422E+03  0.44501340422E+03  0.00000000000E+00 0.  1.
         25    1    1    2    0    0  0.30561291256E+02 -0.32752205499E+02  0.19196383492E+02  0.13416482634E+03  0.12500000000E+03 0.  0.
         25    1    1    2    0    0 -0.93722259529E+01 -0.74759286131E+02 -0.82706384088E+02  0.16775617858E+03  0.12500000000E+03 0.  0.
         25    1    1    2    0    0 -0.21189065303E+02  0.10751149163E+03 -0.23596076993E+03  0.28863503299E+03  0.12500000000E+03 0.  0.
</event>
<event>
 5    0  0.5612316E-005  0.5015885E+03  0.7546771E-02  0.1013365E+00
         21   -1    0    0  502  501  0.00000000000E+00  0.00000000000E+00  0.21231763629E+04  0.21231763629E+04  0.00000000000E+00 0. -1.
         21   -1    0    0  501  502 -0.00000000000E+00 -0.00000000000E+00 -0.11849748929E+03  0.11849748929E+03  0.00000000000E+00 0. -1.
         25    1    1    2    0    0 -0.17202112472E+03  0.50843365707E+02  0.70804986265E+03  0.74103705925E+03  0.12500000000E+03 0.  0.
         25    1    1    2    0    0  0.34449701502E+03 -0.25143471527E+03  0.61423664333E+03  0.75816176599E+03  0.12500000000E+03 0.  0.
         25    1    1    2    0    0 -0.17247589030E+03  0.20059134956E+03  0.68239236761E+03  0.74247502694E+03  0.12500000000E+03 0.  0.
</event>
<event>
 5    0  0.5612316E-005  0.3944037E+03  0.7546771E-02  0.1045735E+00
         21   -1    0    0  502  501  0.00000000000E+00  0.00000000000E+00  0.76544983138E+03  0.76544983138E+03  0.00000000000E+00 0.  1.
         21   -1    0    0  501  502 -0.00000000000E+00 -0.00000000000E+00 -0.20321942247E+03  0.20321942247E+03  0.00000000000E+00 0.  1.
         25    1    1    2    0    0  0.29265676517E+02  0.81309582500E+02  0.21563040890E+03  0.26379765213E+03  0.12500000000E+03 0.  0.
         25    1    1    2    0    0  0.18481711707E+03  0.14062545510E+03  0.23692181239E+03  0.35452761609E+03  0.12500000000E+03 0.  0.
         25    1    1    2    0    0 -0.21408279358E+03 -0.22193503760E+03  0.10967818762E+03  0.35034398563E+03  0.12500000000E+03 0.  0.
</event>
<event>
 5    0  0.5612316E-005  0.2488637E+03  0.7546771E-02  0.1114025E+00
         21   -1    0    0  502  501  0.00000000000E+00  0.00000000000E+00  0.10142569721E+03  0.10142569721E+03  0.00000000000E+00 0. -1.
         21   -1    0    0  501  502 -0.00000000000E+00 -0.00000000000E+00 -0.61062575691E+03  0.61062575691E+03  0.00000000000E+00 0. -1.
         25    1    1    2    0    0  0.13413402639E+03 -0.19576236998E+02 -0.10768958203E+03  0.21353503734E+03  0.12500000000E+03 0.  0.
         25    1    1    2    0    0 -0.92342179965E+02  0.31889077426E+02 -0.26129374062E+03  0.30568514905E+03  0.12500000000E+03 0.  0.
         25    1    1    2    0    0 -0.41791846428E+02 -0.12312840428E+02 -0.14021673705E+03  0.19283126773E+03  0.12500000000E+03 0.  0.
</event>
<event>
 5    0  0.5612316E-005  0.2957642E+03  0.7546771E-02  0.1087377E+00
         21   -1    0    0  502  501  0.00000000000E+00  0.00000000000E+00  0.35885229038E+03  0.35885229038E+03  0.00000000000E+00 0. -1.
         21   -1    0    0  501  502 -0.00000000000E+00 -0.00000000000E+00 -0.24376739032E+03  0.24376739032E+03  0.00000000000E+00 0. -1.
         25    1    1    2    0    0 -0.84929786139E+02  0.91447302229E+02  0.17636564868E+02  0.17751542490E+03  0.12500000000E+03 0.  0.
         25    1    1    2    0    0  0.14294160564E+03  0.69208363634E+02  0.45725016014E+02  0.20721456828E+03  0.12500000000E+03 0.  0.
         25    1    1    2    0    0 -0.58011819499E+02 -0.16065566586E+03  0.51723319182E+02  0.21788968751E+03  0.12500000000E+03 0.  0.
</event>
<event>
 5    0  0.5612316E-005  0.4944953E+03  0.7546771E-02  0.1015226E+00
         21   -1    0    0  502  501  0.00000000000E+00  0.00000000000E+00  0.19389463162E+03  0.19389463162E+03  0.00000000000E+00 0.  1.
         21   -1    0    0  501  502 -0.00000000000E+00 -0.00000000000E+00 -0.12611262885E+04  0.12611262885E+04  0.00000000000E+00 0.  1.
         25    1    1    2    0    0 -0.32144466835E+03 -0.14621806999E+03 -0.12895468314E+03  0.39618267139E+03  0.12500000000E+03 0.  0.
         25    1    1    2    0    0  0.11250117378E+02  0.10141056694E+02 -0.18894512365E+03  0.22705652583E+03  0.12500000000E+03 0.  0.
         25    1    1    2    0    0  0.31019455097E+03  0.13607701330E+03 -0.74933185011E+03  0.83178172293E+03  0.12500000000E+03 0.  0.
</event>
<event>
 5    0  0.5612316E-005  0.3273923E+03  0.7546771E-02  0.1072297E+00
         21   -1    0    0  502  501  0.00000000000E+00  0.00000000000E+00  0.85507283977E+02  0.85507283977E+02  0.00000000000E+00 0.  1.
         21   -1    0    0  501  502 -0.00000000000E+00 -0.00000000000E+00 -0.12535272044E+04  0.12535272044E+04  0.00000000000E+00 0.  1.
         25    1    1    2    0    0  0.14247878415E+02 -0.83155555001E+01 -0.46511726691E+03  0.48190374815E+03  0.12500000000E+03 0.  0.
         25    1    1    2    0    0 -0.15030320152E+03  0.52651407724E+01 -0.62799621293E+03  0.65774084376E+03  0.12500000000E+03 0.  0.
         25    1    1    2    0    0  0.13605532311E+03  0.30504147276E+01 -0.74906440595E+02  0.19938989648E+03  0.12500000000E+03 0.  0.
</event>
<event>
 5    0  0.5612316E-005  0.3639393E+03  0.7546771E-02  0.1057035E+00
         21   -1    0    0  502  501  0.00000000000E+00  0.00000000000E+00  0.43047623584E+03  0.43047623584E+03  0.00000000000E+00 0.  1.
         21   -1    0    0  501  502 -0.00000000000E+00 -0.00000000000E+00 -0.30768667777E+03  0.30768667777E+03  0.00000000000E+00 0.  1.
         25    1    1    2    0    0  0.29869110816E+02  0.43408999259E+02  0.32031258285E+03  0.34785292256E+03  0.12500000000E+03 0.  0.
         25    1    1    2    0    0  0.68465901785E+02 -0.89697358497E+02 -0.12376563463E+03  0.20898834452E+03  0.12500000000E+03 0.  0.
         25    1    1    2    0    0 -0.98335012601E+02  0.46288359237E+02 -0.73757390151E+02  0.18132164655E+03  0.12500000000E+03 0.  0.
</event>
<event>
 5    0  0.5612316E-005  0.3164147E+03  0.7546771E-02  0.1077311E+00
         21   -1    0    0  502  501  0.00000000000E+00  0.00000000000E+00  0.89679978227E+03  0.89679978227E+03  0.00000000000E+00 0.  1.
         21   -1    0    0  501  502 -0.00000000000E+00 -0.00000000000E+00 -0.11163947079E+03  0.11163947079E+03  0.00000000000E+00 0.  1.
         25    1    1    2    0    0 -0.98356712303E+02  0.29521820979E+02  0.67618778694E+02  0.17533647653E+03  0.12500000000E+03 0.  0.
         25    1    1    2    0    0  0.10683933910E+03 -0.65320476289E+02  0.67226444703E+03  0.69515889963E+03  0.12500000000E+03 0.  0.
         25    1    1    2    0    0 -0.84826268014E+01  0.35798655310E+02  0.45277085762E+02  0.13794387690E+03  0.12500000000E+03 0.  0.
</event>
<event>
 5    0  0.5612316E-005  0.3444099E+03  0.7546771E-02  0.1064933E+00
         21   -1    0    0  502  501  0.00000000000E+00  0.00000000000E+00  0.20379469640E+03  0.20379469640E+03  0.00000000000E+00 0.  1.
         21   -1    0    0  501  502 -0.00000000000E+00 -0.00000000000E+00 -0.58204726574E+03  0.58204726574E+03  0.00000000000E+00 0.  1.
         25    1    1    2    0    0  0.46421048165E+02 -0.19768750443E+03 -0.12041072800E+03  0.26713106622E+03  0.12500000000E+03 0.  0.
         25    1    1    2    0    0 -0.12014147294E+03 -0.14843275751E+02 -0.17879777625E+03  0.24949537300E+03  0.12500000000E+03 0.  0.
         25    1    1    2    0    0  0.73720424776E+02  0.21253078018E+03 -0.79044065099E+02  0.26921552292E+03  0.12500000000E+03 0.  0.
</event>
<event>
 5    0  0.5612316E-005  0.4004196E+03  0.7546771E-02  0.1043634E+00
         21   -1    0    0  502  501  0.00000000000E+00  0.00000000000E+00  0.72097739047E+02  0.72097739047E+02  0.00000000000E+00 0.  1.
         21   -1    0    0  501  502 -0.00000000000E+00 -0.00000000000E+00 -0.22238682695E+04  0.22238682695E+04  0.00000000000E+00 0.  1.
         25    1    1    2    0    0  0.17795346607E+02 -0.20725565926E+03 -0.29282312552E+03  0.38031824239E+03  0.12500000000E+03 0.  0.
         25    1    1    2    0    0  0.60341898166E+02  0.87622610618E+02 -0.27425848818E+03  0.31962725933E+03  0.12500000000E+03 0.  0.
         25    1    1    2    0    0 -0.78137244773E+02  0.11963304864E+03 -0.15846889168E+04  0.15960205068E+04  0.12500000000E+03 0.  0.
</event>
<event>
 5    0  0.5612316E-005  0.3362618E+03  0.7546771E-02  0.1068399E+00
         21   -1    0    0  502  501  0.00000000000E+00  0.00000000000E+00  0.13155452587E+04  0.13155452587E+04  0.00000000000E+00 0.  1.
         21   -1    0    0  501  502 -0.00000000000E+00 -0.00000000000E+00 -0.85950656377E+02  0.85950656377E+02  0.00000000000E+00 0.  1.
         25    1    1    2    0    0 -0.73595457252E+02  0.53430859760E+02  0.51860135850E+03  0.54115017984E+03  0.12500000000E+03 0.  0.
         25    1    1    2    0    0 -0.73931481600E+02  0.11869859033E+03  0.14208032959E+03  0.23530201736E+03  0.12500000000E+03 0.  0.
         25    1    1    2    0    0  0.14752693885E+03 -0.17212945009E+03  0.56891291422E+03  0.62504371786E+03  0.12500000000E+03 0.  0.
</event>
<event>
 5    0  0.5612316E-005  0.3220760E+03  0.7546771E-02  0.1074698E+00
         21   -1    0    0  502  501  0.00000000000E+00  0.00000000000E+00  0.56952979699E+03  0.56952979699E+03  0.00000000000E+00 0. -1.
         21   -1    0    0  501  502 -0.00000000000E+00 -0.00000000000E+00 -0.18213785453E+03  0.18213785453E+03  0.00000000000E+00 0. -1.
         25    1    1    2    0    0 -0.27831093095E+01  0.34387803103E+02  0.56735486591E+02  0.14154215675E+03  0.12500000000E+03 0.  0.
         25    1    1    2    0    0  0.10602222401E+03 -0.20378541423E+03  0.96517630606E+02  0.27876488311E+03  0.12500000000E+03 0.  0.
         25    1    1    2    0    0 -0.10323911470E+03  0.16939761113E+03  0.23413882526E+03  0.33136061165E+03  0.12500000000E+03 0.  0.
</event>
<event>
 5    0  0.5612316E-005  0.4130602E+03  0.7546771E-02  0.1039349E+00
         21   -1    0    0  502  501  0.00000000000E+00  0.00000000000E+00  0.41621620518E+03  0.41621620518E+03  0.00000000000E+00 0. -1.
         21   -1    0    0  501  502 -0.00000000000E+00 -0.00000000000E+00 -0.40992812730E+03  0.40992812730E+03  0.00000000000E+00 0. -1.
         25    1    1    2    0    0  0.11607031051E+03  0.20663544437E+03 -0.12012199626E+03  0.29364062702E+03  0.12500000000E+03 0.  0.
         25    1    1    2    0    0 -0.31596859034E+02 -0.21946860033E+03  0.23479895029E+03  0.34629521379E+03  0.12500000000E+03 0.  0.
         25    1    1    2    0    0 -0.84473451477E+02  0.12833155965E+02 -0.10838887617E+03  0.18620849168E+03  0.12500000000E+03 0.  0.
</event>
<event>
 5    0  0.5612316E-005  0.3654315E+03  0.7546771E-02  0.1056454E+00
         21   -1    0    0  502  501  0.00000000000E+00  0.00000000000E+00  0.54072901738E+03  0.54072901738E+03  0.00000000000E+00 0.  1.
         21   -1    0    0  501  502 -0.00000000000E+00 -0.00000000000E+00 -0.24696326755E+03  0.24696326755E+03  0.00000000000E+00 0.  1.
         25    1    1    2    0    0 -0.21939462318E+03  0.99465536000E+02 -0.26654199749E+02  0.27269550766E+03  0.12500000000E+03 0.  0.
         25    1    1    2    0    0  0.22378836632E+03 -0.10693656143E+03  0.22691819682E+03  0.35865516742E+03  0.12500000000E+03 0.  0.
         25    1    1    2    0    0 -0.43937431432E+01  0.74710254323E+01  0.93501752765E+02  0.15634160985E+03  0.12500000000E+03 0.  0.
</event>
<event>
 5    0  0.5698589E-005  0.2889959E+03  0.7546771E-02  0.1090875E+00
         21   -1    0    0  502  501  0.00000000000E+00  0.00000000000E+00  0.16879138502E+03  0.16879138502E+03  0.00000000000E+00 0. -1.
         21   -1    0    0  501  502 -0.00000000000E+00 -0.00000000000E+00 -0.49480381251E+03  0.49480381251E+03  0.00000000000E+00 0. -1.
         25    1    1    2    0    0  0.44084234471E+01 -0.50603777044E+02 -0.27874245409E+02  0.13777572357E+03  0.12500000000E+03 0.  0.
         25    1    1    2    0    0  0.13579349768E+03  0.27132338469E+02 -0.17583998247E+02  0.18737725262E+03  0.12500000000E+03 0.  0.
         25    1    1    2    0    0 -0.14020192113E+03  0.23471438575E+02 -0.28055418384E+03  0.33844222134E+03  0.12500000000E+03 0.  0.
</event>
<event>
 5    0  0.5612316E-005  0.2093777E+03  0.7546771E-02  0.1142060E+00
         21   -1    0    0  502  501  0.00000000000E+00  0.00000000000E+00  0.23817603501E+03  0.23817603501E+03  0.00000000000E+00 0. -1.
         21   -1    0    0  501  502 -0.00000000000E+00 -0.00000000000E+00 -0.18406149975E+03  0.18406149975E+03  0.00000000000E+00 0. -1.
         25    1    1    2    0    0  0.15057754212E+02 -0.14180966288E+02 -0.34401817092E+02  0.13128716916E+03  0.12500000000E+03 0.  0.
         25    1    1    2    0    0 -0.33037501805E+00  0.17443832090E+02  0.10472795122E+03  0.16400408590E+03  0.12500000000E+03 0.  0.
         25    1    1    2    0    0 -0.14727379194E+02 -0.32628658026E+01 -0.16211598870E+02  0.12694627970E+03  0.12500000000E+03 0.  0.
</event>
<event>
 5    0  0.5612316E-005  0.3074528E+03  0.7546771E-02  0.1081573E+00
         21   -1    0    0  502  501  0.00000000000E+00  0.00000000000E+00  0.15387900293E+03  0.15387900293E+03  0.00000000000E+00 0.  1.
         21   -1    0    0  501  502 -0.00000000000E+00 -0.00000000000E+00 -0.61429571039E+03  0.61429571039E+03  0.00000000000E+00 0.  1.
         25    1    1    2    0    0  0.10859248828E+03 -0.16455910988E+02 -0.87420606785E+02  0.18796406042E+03  0.12500000000E+03 0.  0.
         25    1    1    2    0    0 -0.22816461525E+02  0.17997246170E+03 -0.16459690301E+03  0.27500512426E+03  0.12500000000E+03 0.  0.
         25    1    1    2    0    0 -0.85776026758E+02 -0.16351655072E+03 -0.20839919767E+03  0.30520552864E+03  0.12500000000E+03 0.  0.
</event>
<event>
 5    0  0.5612316E-005  0.2733129E+03  0.7546771E-02  0.1099398E+00
         21   -1    0    0  502  501  0.00000000000E+00  0.00000000000E+00  0.10362779417E+04  0.10362779417E+04  0.00000000000E+00 0. -1.
         21   -1    0    0  501  502 -0.00000000000E+00 -0.00000000000E+00 -0.72084864587E+02  0.72084864587E+02  0.00000000000E+00 0. -1.
         25    1    1    2    0    0  0.97618818338E+02  0.25768697227E+02  0.61632551828E+03  0.63692668646E+03  0.12500000000E+03 0.  0.
         25    1    1    2    0    0 -0.45947502683E+02  0.70657198726E+02  0.14422216262E+03  0.20863519580E+03  0.12500000000E+03 0.  0.
         25    1    1    2    0    0 -0.51671315655E+02 -0.96425895953E+02  0.20364539625E+03  0.26280092405E+03  0.12500000000E+03 0.  0.
</event>
<event>
 5    0  0.5663882E-005  0.2977843E+03  0.7546771E-02  0.1086353E+00
         21   -1    0    0  502  501  0.00000000000E+00  0.00000000000E+00  0.71506443192E+03  0.71506443192E+03  0.00000000000E+00 0. -1.
         21   -1    0    0  501  502 -0.00000000000E+00 -0.00000000000E+00 -0.12401051321E+03  0.12401051321E+03  0.00000000000E+00 0. -1.
         25    1    1    2    0    0 -0.44323750053E+02  0.36168441123E+02  0.30045602015E+03  0.33041121500E+03  0.12500000000E+03 0.  0.
         25    1    1    2    0    0 -0.61753445122E+01 -0.11396879149E+02 -0.54771700024E+02  0.13708742779E+03  0.12500000000E+03 0.  0.
         25    1    1    2    0    0  0.50499094565E+02 -0.24771561974E+02  0.34536959858E+03  0.37157630234E+03  0.12500000000E+03 0.  0.
</event>
<event>
 5    0  0.5612316E-005  0.3723846E+03  0.7546771E-02  0.1053785E+00
         21   -1    0    0  502  501  0.00000000000E+00  0.00000000000E+00  0.12066544219E+03  0.12066544219E+03  0.00000000000E+00 0.  1.
         21   -1    0    0  501  502 -0.00000000000E+00 -0.00000000000E+00 -0.11492131981E+04  0.11492131981E+04  0.00000000000E+00 0.  1.
         25    1    1    2    0    0 -0.10336910562E+03  0.28420438932E+02 -0.19537264756E+03  0.25551587966E+03  0.12500000000E+03 0.  0.
         25    1    1    2    0    0  0.25762485907E+03 -0.20821242493E+02 -0.74227858729E+03  0.79586845226E+03  0.12500000000E+03 0.  0.
         25    1    1    2    0    0 -0.15425575345E+03 -0.75991964391E+01 -0.90896521099E+02  0.21849430841E+03  0.12500000000E+03 0.  0.
</event>
<event>
 5    0  0.5612316E-005  0.4976903E+03  0.7546771E-02  0.1014384E+00
         21   -1    0    0  502  501  0.00000000000E+00  0.00000000000E+00  0.69304927981E+03  0.69304927981E+03  0.00000000000E+00 0. -1.
         21   -1    0    0  501  502 -0.00000000000E+00 -0.00000000000E+00 -0.35739978483E+03  0.35739978483E+03  0.00000000000E+00 0. -1.
         25    1    1    2    0    0 -0.35693469018E+02 -0.34347715621E+03 -0.14344858665E+03  0.39427538293E+03  0.12500000000E+03 0.  0.
         25    1    1    2    0    0  0.60640839754E+02  0.25951008770E+03  0.33931843126E+03  0.44920462471E+03  0.12500000000E+03 0.  0.
         25    1    1    2    0    0 -0.24947370735E+02  0.83967068509E+02  0.13977965037E+03  0.20696905701E+03  0.12500000000E+03 0.  0.
</event>
<event>
 5    0  0.5612316E-005  0.3206129E+03  0.7546771E-02  0.1075368E+00
         21   -1    0    0  502  501  0.00000000000E+00  0.00000000000E+00  0.97047063405E+02  0.97047063405E+02  0.00000000000E+00 0.  1.
         21   -1    0    0  501  502 -0.00000000000E+00 -0.00000000000E+00 -0.10592039094E+04  0.10592039094E+04  0.00000000000E+00 0.  1.
         25    1    1    2    0    0  0.50093248038E+02  0.14508434840E+02 -0.51204168079E+03  0.52965225483E+03  0.12500000000E+03 0.  0.
         25    1    1    2    0    0  0.95709387486E+02  0.10268731899E+03 -0.10695893715E+03  0.21626415924E+03  0.12500000000E+03 0.  0.
         25    1    1    2    0    0 -0.14580263552E+03 -0.11719575383E+03 -0.34315622807E+03  0.41033455875E+03  0.12500000000E+03 0.  0.
</event>
<event>
 5    0  0.5925270E-005  0.3074589E+03  0.7546771E-02  0.1081570E+00
         21   -1    0    0  502  501  0.00000000000E+00  0.00000000000E+00  0.24179389641E+03  0.24179389641E+03  0.00000000000E+00 0. -1.
         21   -1    0    0  501  502 -0.00000000000E+00 -0.00000000000E+00 -0.39095683146E+03  0.39095683146E+03  0.00000000000E+00 0.  1.
         25    1    1    2    0    0 -0.10199158494E+03 -0.39301487696E+02 -0.64571068351E+00  0.16604911104E+03  0.12500000000E+03 0.  0.
         25    1    1    2    0    0 -0.63183537630E+02 -0.27016802858E+02 -0.19762565248E+03  0.24372723603E+03  0.12500000000E+03 0.  0.
         25    1    1    2    0    0  0.16517512257E+03  0.66318290554E+02  0.49108428118E+02  0.22297438079E+03  0.12500000000E+03 0.  0.
</event>
<event>
 5    0  0.5612316E-005  0.2727989E+03  0.7546771E-02  0.1099688E+00
         21   -1    0    0  502  501  0.00000000000E+00  0.00000000000E+00  0.37908390573E+03  0.37908390573E+03  0.00000000000E+00 0.  1.
         21   -1    0    0  501  502 -0.00000000000E+00 -0.00000000000E+00 -0.19631330027E+03  0.19631330027E+03  0.00000000000E+00 0.  1.
         25    1    1    2    0    0  0.94263791103E+02  0.36284757606E+02  0.15126812735E+03  0.22070181762E+03  0.12500000000E+03 0.  0.
         25    1    1    2    0    0  0.31747390312E+02 -0.61295774432E+02 -0.58269292098E+02  0.15422509250E+03  0.12500000000E+03 0.  0.
         25    1    1    2    0    0 -0.12601118142E+03  0.25011016826E+02  0.89771770199E+02  0.20047029588E+03  0.12500000000E+03 0.  0.
</event>
<event>
 5    0  0.5612316E-005  0.3113724E+03  0.7546771E-02  0.1079690E+00
         21   -1    0    0  502  501  0.00000000000E+00  0.00000000000E+00  0.82216177537E+03  0.82216177537E+03  0.00000000000E+00 0. -1.
         21   -1    0    0  501  502 -0.00000000000E+00 -0.00000000000E+00 -0.11792419807E+03  0.11792419807E+03  0.00000000000E+00 0. -1.
         25    1    1    2    0    0  0.37826000651E+00  0.12817626032E+03  0.75991187050E+02  0.19449667683E+03  0.12500000000E+03 0.  0.
         25    1    1    2    0    0 -0.78024444871E+02 -0.17179382974E+03  0.24915522495E+03  0.33660698159E+03  0.12500000000E+03 0.  0.
         25    1    1    2    0    0  0.77646184865E+02  0.43617569420E+02  0.37909116530E+03  0.40898231502E+03  0.12500000000E+03 0.  0.
</event>
<event>
 5    0  0.5612316E-005  0.5351459E+03  0.7546771E-02  0.1004992E+00
         21   -1    0    0  502  501  0.00000000000E+00  0.00000000000E+00  0.13315903900E+04  0.13315903900E+04  0.00000000000E+00 0.  1.
         21   -1    0    0  501  502 -0.00000000000E+00 -0.00000000000E+00 -0.21506695435E+03  0.21506695435E+03  0.00000000000E+00 0.  1.
         25    1    1    2    0    0  0.82847969206E+02  0.40948864506E+02  0.14545144582E+02  0.15613185689E+03  0.12500000000E+03 0.  0.
         25    1    1    2    0    0 -0.32181098667E+03  0.54776961039E+02  0.12297382554E+03  0.37055416388E+03  0.12500000000E+03 0.  0.
         25    1    1    2    0    0  0.23896301747E+03 -0.95725825544E+02  0.97900446548E+03  0.10199713235E+04  0.12500000000E+03 0.  0.
</event>
<event>
 5    0  0.5612316E-005  0.2545318E+03  0.7546771E-02  0.1110474E+00
         21   -1    0    0  502  501  0.00000000000E+00  0.00000000000E+00  0.13810423692E+03  0.13810423692E+03  0.00000000000E+00 0. -1.
         21   -1    0    0  501  502 -0.00000000000E+00 -0.00000000000E+00 -0.46911277229E+03  0.46911277229E+03  0.00000000000E+00 0. -1.
         25    1    1    2    0    0 -0.17182201770E+01 -0.79679531628E+02 -0.24553524798E+03  0.28681760413E+03  0.12500000000E+03 0.  0.
         25    1    1    2    0    0 -0.72848419632E+02  0.69856726034E+02 -0.64027696829E+02  0.17294912656E+03  0.12500000000E+03 0.  0.
         25    1    1    2    0    0  0.74566639809E+02  0.98228055941E+01 -0.21445590565E+02  0.14745027852E+03  0.12500000000E+03 0.  0.
</event>
<event>
 5    0  0.5612316E-005  0.2700932E+03  0.7546771E-02  0.1101226E+00
         21   -1    0    0  502  501  0.00000000000E+00  0.00000000000E+00  0.13120893339E+03  0.13120893339E+03  0.00000000000E+00 0.  1.
         21   -1    0    0  501  502 -0.00000000000E+00 -0.00000000000E+00 -0.55598622300E+03  0.55598622300E+03  0.00000000000E+00 0.  1.
         25    1    1    2    0    0  0.80237203197E+02  0.14412092718E+03 -0.21055734956E+03  0.29524269319E+03  0.12500000000E+03 0.  0.
         25    1    1    2    0    0 -0.26589593084E+02 -0.11102600785E+03 -0.50755351495E+02  0.17673394293E+03  0.12500000000E+03 0.  0.
         25    1    1    2    0    0 -0.53647610113E+02 -0.33094919326E+02 -0.16346458855E+03  0.21521852026E+03  0.12500000000E+03 0.  0.
</event>
<event>
 5    0  0.5612316E-005  0.2888816E+03  0.7546771E-02  0.1090935E+00
         21   -1    0    0  502  501  0.00000000000E+00  0.00000000000E+00  0.11815688549E+03  0.11815688549E+03  0.00000000000E+00 0.  1.
         21   -1    0    0  501  502 -0.00000000000E+00 -0.00000000000E+00 -0.70628610283E+03  0.70628610283E+03  0.00000000000E+00 0.  1.
         25    1    1    2    0    0 -0.55519102548E+02  0.17803094515E+02 -0.32971575827E+02  0.14181482904E+03  0.12500000000E+03 0.  0.
         25    1    1    2    0    0  0.80930995197E+01 -0.39780919519E+02 -0.22913214595E+02  0.13340927712E+03  0.12500000000E+03 0.  0.
         25    1    1    2    0    0  0.47426003028E+02  0.21977825004E+02 -0.53224442691E+03  0.54921888217E+03  0.12500000000E+03 0.  0.
</event>
<event>
 5    0  0.5612316E-005  0.3085697E+03  0.7546771E-02  0.1081033E+00
         21   -1    0    0  502  501  0.00000000000E+00  0.00000000000E+00  0.18111409952E+03  0.18111409952E+03  0.00000000000E+00 0.  1.
         21   -1    0    0  501  502 -0.00000000000E+00 -0.00000000000E+00 -0.52571978268E+03  0.52571978268E+03  0.00000000000E+00 0.  1.
         25    1    1    2    0    0  0.19009725420E+03  0.21976626646E+01 -0.68440024036E+02  0.23759383971E+03  0.12500000000E+03 0.  0.
         25    1    1    2    0    0 -0.14722881612E+03  0.45602668464E+02 -0.26103358829E+03  0.32790160396E+03  0.12500000000E+03 0.  0.
         25    1    1    2    0    0 -0.42868438087E+02 -0.47800331128E+02 -0.15132070833E+02  0.14133843854E+03  0.12500000000E+03 0.  0.
</event>
<event>
 5    0  0.5612316E-005  0.4742416E+03  0.7546771E-02  0.1020730E+00
         21   -1    0    0  502  501  0.00000000000E+00  0.00000000000E+00  0.19837682106E+03  0.19837682106E+03  0.00000000000E+00 0. -1.
         21   -1    0    0  501  502 -0.00000000000E+00 -0.00000000000E+00 -0.11337266587E+04  0.11337266587E+04  0.00000000000E+00 0. -1.
         25    1    1    2    0    0 -0.93928378185E+02 -0.11871797776E+03  0.29652300081E+02  0.19854661259E+03  0.12500000000E+03 0.  0.
         25    1    1    2    0    0 -0.18220636839E+03  0.12325702806E+03 -0.64458414789E+03  0.69246312491E+03  0.12500000000E+03 0.  0.
         25    1    1    2    0    0  0.27613474658E+03 -0.45390502938E+01 -0.32041798982E+03  0.44109374225E+03  0.12500000000E+03 0.  0.
</event>
<event>
 5    0  0.5612316E-005  0.3336566E+03  0.7546771E-02  0.1069530E+00
         21   -1    0    0  502  501  0.00000000000E+00  0.00000000000E+00  0.92554607885E+03  0.92554607885E+03  0.00000000000E+00 0. -1.
         21   -1    0    0  501  502 -0.00000000000E+00 -0.00000000000E+00 -0.12028223144E+03  0.12028223144E+03  0.00000000000E+00 0. -1.
         25    1    1    2    0    0  0.73309720538E+02 -0.18676987937E+03  0.17086646829E+03  0.29168073805E+03  0.12500000000E+03 0.  0.
         25    1    1    2    0    0 -0.13616631026E+03  0.13848279851E+03  0.51344638272E+03  0.56300172066E+03  0.12500000000E+03 0.  0.
         25    1    1    2    0    0  0.62856589718E+02  0.48287080859E+02  0.12095099640E+03  0.19114585159E+03  0.12500000000E+03 0.  0.
</event>
<event>
 5    0  0.5612316E-005  0.4799258E+03  0.7546771E-02  0.1019156E+00
         21   -1    0    0  502  501  0.00000000000E+00  0.00000000000E+00  0.36224758146E+03  0.36224758146E+03  0.00000000000E+00 0.  1.
         21   -1    0    0  501  502 -0.00000000000E+00 -0.00000000000E+00 -0.63583248231E+03  0.63583248231E+03  0.00000000000E+00 0.  1.
         25    1    1    2    0    0  0.13404997071E+03 -0.43585610173E+02 -0.83292867865E+02  0.20598981018E+03  0.12500000000E+03 0.  0.
         25    1    1    2    0    0 -0.37067429531E+03 -0.31945061954E+02  0.84143573973E+02  0.40140386300E+03  0.12500000000E+03 0.  0.
         25    1    1    2    0    0  0.23662432460E+03  0.75530672127E+02 -0.27443560696E+03  0.39068639059E+03  0.12500000000E+03 0.  0.
</event>
<event>
 5    0  0.5612316E-005  0.3459203E+03  0.7546771E-02  0.1064302E+00
         21   -1    0    0  502  501  0.00000000000E+00  0.00000000000E+00  0.28949074825E+03  0.28949074825E+03  0.00000000000E+00 0.  1.
         21   -1    0    0  501  502 -0.00000000000E+00 -0.00000000000E+00 -0.41334942463E+03  0.41334942463E+03  0.00000000000E+00 0.  1.
         25    1    1    2    0    0 -0.14554763367E+03 -0.31864660277E+01 -0.11151000022E+02  0.19220721119E+03  0.12500000000E+03 0.  0.
         25    1    1    2    0    0 -0.90069308494E+02  0.73139666219E+02  0.65080239510E+02  0.18254404587E+03  0.12500000000E+03 0.  0.
         25    1    1    2    0    0  0.23561694217E+03 -0.69953200192E+02 -0.17778791587E+03  0.32808891582E+03  0.12500000000E+03 0.  0.
</event>
<event>
 5    0  0.5612316E-005  0.2716955E+03  0.7546771E-02  0.1100313E+00
         21   -1    0    0  502  501  0.00000000000E+00  0.00000000000E+00  0.44252555080E+02  0.44252555080E+02  0.00000000000E+00 0. -1.
         21   -1    0    0  501  502 -0.00000000000E+00 -0.00000000000E+00 -0.16681169843E+04  0.16681169843E+04  0.00000000000E+00 0. -1.
         25    1    1    2    0    0 -0.11892259365E+03 -0.42706161448E+02 -0.62898338838E+03  0.65361418464E+03  0.12500000000E+03 0.  0.
         25    1    1    2    0    0  0.15657053235E+03  0.67570733569E+02 -0.43975774640E+03  0.48794672984E+03  0.12500000000E+03 0.  0.
         25    1    1    2    0    0 -0.37647938700E+02 -0.24864572121E+02 -0.55512329442E+03  0.57080862488E+03  0.12500000000E+03 0.  0.
</event>
<event>
 5    0  0.5612316E-005  0.3225240E+03  0.7546771E-02  0.1074494E+00
         21   -1    0    0  502  501  0.00000000000E+00  0.00000000000E+00  0.15248503944E+04  0.15248503944E+04  0.00000000000E+00 0. -1.
         21   -1    0    0  501  502 -0.00000000000E+00 -0.00000000000E+00 -0.68217649050E+02  0.68217649050E+02  0.00000000000E+00 0. -1.
         25    1    1    2    0    0  0.38162016428E+02 -0.26474142761E+02  0.39446774923E+03  0.41639767641E+03  0.12500000000E+03 0.  0.
         25    1    1    2    0    0  0.86748168858E+02 -0.11603587781E+03  0.16961592657E+03  0.25570321133E+03  0.12500000000E+03 0.  0.
         25    1    1    2    0    0 -0.12491018529E+03  0.14251002057E+03  0.89254906951E+03  0.92096715568E+03  0.12500000000E+03 0.  0.
</event>
<event>
 5    0  0.5612316E-005  0.3570761E+03  0.7546771E-02  0.1059748E+00
         21   -1    0    0  502  501  0.00000000000E+00  0.00000000000E+00  0.18474533621E+03  0.18474533621E+03  0.00000000000E+00 0.  1.
         21   -1    0    0  501  502 -0.00000000000E+00 -0.00000000000E+00 -0.69015714997E+03  0.69015714997E+03  0.00000000000E+00 0.  1.
         25    1    1    2    0    0  0.46835248107E+02  0.16598043983E+02 -0.74650665122E+02  0.15384003813E+03  0.12500000000E+03 0.  0.
         25    1    1    2    0    0  0.68975444377E+02 -0.92982504520E+02 -0.49506407190E+03  0.52356164237E+03  0.12500000000E+03 0.  0.
         25    1    1    2    0    0 -0.11581069248E+03  0.76384460538E+02  0.64302923263E+02  0.19750080568E+03  0.12500000000E+03 0.  0.
</event>
<event>
 5    0  0.5612316E-005  0.2951511E+03  0.7546771E-02  0.1087690E+00
         21   -1    0    0  502  501  0.00000000000E+00  0.00000000000E+00  0.38560013164E+03  0.38560013164E+03  0.00000000000E+00 0.  1.
         21   -1    0    0  501  502 -0.00000000000E+00 -0.00000000000E+00 -0.22591841108E+03  0.22591841108E+03  0.00000000000E+00 0.  1.
         25    1    1    2    0    0  0.78888404267E+02 -0.46884231666E+02  0.73934013849E+02  0.17179275279E+03  0.12500000000E+03 0.  0.
         25    1    1    2    0    0  0.74962430156E+02 -0.10422691994E+03  0.11098369763E+02  0.17952935856E+03  0.12500000000E+03 0.  0.
         25    1    1    2    0    0 -0.15385083442E+03  0.15111115161E+03  0.74649336947E+02  0.26019643137E+03  0.12500000000E+03 0.  0.
</event>
<event>
 5    0  0.5612316E-005  0.6570255E+03  0.7546771E-02  0.9793685E-01
         21   -1    0    0  502  501  0.00000000000E+00  0.00000000000E+00  0.68433804979E+03  0.68433804979E+03  0.00000000000E+00 0. -1.
         21   -1    0    0  501  502 -0.00000000000E+00 -0.00000000000E+00 -0.63080297527E+03  0.63080297527E+03  0.00000000000E+00 0. -1.
         25    1    1    2    0    0  0.32332943908E+03 -0.19063015802E+03 -0.13637903169E+02  0.39584438322E+03  0.12500000000E+03 0.  0.
         25    1    1    2    0    0 -0.52550740439E+03  0.18350733395E+03 -0.15782682439E+03  0.59191830533E+03  0.12500000000E+03 0.  0.
         25    1    1    2    0    0  0.20217796531E+03  0.71228240695E+01  0.22499980208E+03  0.32737833651E+03  0.12500000000E+03 0.  0.
</event>
<event>
 5    0  0.5612316E-005  0.3083011E+03  0.7546771E-02  0.1081163E+00
         21   -1    0    0  502  501  0.00000000000E+00  0.00000000000E+00  0.11818634757E+04  0.11818634757E+04  0.00000000000E+00 0.  1.
         21   -1    0    0  501  502 -0.00000000000E+00 -0.00000000000E+00 -0.80423466276E+02  0.80423466276E+02  0.00000000000E+00 0.  1.
         25    1    1    2    0    0  0.40632884526E+02  0.98067441410E+02  0.56651095551E+02  0.17350101151E+03  0.12500000000E+03 0.  0.
         25    1    1    2    0    0 -0.58060402953E+02  0.10034637259E+02  0.53707652873E+03  0.55457001546E+03  0.12500000000E+03 0.  0.
         25    1    1    2    0    0  0.17427518427E+02 -0.10810207867E+03  0.50771238513E+03  0.53421591498E+03  0.12500000000E+03 0.  0.
</event>
<event>
 5    0  0.5612316E-005  0.3384353E+03  0.7546771E-02  0.1067464E+00
         21   -1    0    0  502  501  0.00000000000E+00  0.00000000000E+00  0.26546867325E+03  0.26546867325E+03  0.00000000000E+00 0.  1.
         21   -1    0    0  501  502 -0.00000000000E+00 -0.00000000000E+00 -0.43145758940E+03  0.43145758940E+03  0.00000000000E+00 0.  1.
         25    1    1    2    0    0 -0.42744185115E+02  0.11961068267E+03 -0.57976649719E+02  0.18740350232E+03  0.12500000000E+03 0.  0.
         25    1    1    2    0    0  0.18453827253E+03 -0.24948995650E+02 -0.17853720047E+03  0.28666593513E+03  0.12500000000E+03 0.  0.
         25    1    1    2    0    0 -0.14179408742E+03 -0.94661687018E+02  0.70524934044E+02  0.22285682520E+03  0.12500000000E+03 0.  0.
</event>
<event>
 5    0  0.5612316E-005  0.5993914E+03  0.7546771E-02  0.9906670E-01
         21   -1    0    0  502  501  0.00000000000E+00  0.00000000000E+00  0.10939172362E+04  0.10939172362E+04  0.00000000000E+00 0. -1.
         21   -1    0    0  501  502 -0.00000000000E+00 -0.00000000000E+00 -0.32842521549E+03  0.32842521549E+03  0.00000000000E+00 0. -1.
         25    1    1    2    0    0  0.29535709939E+03  0.21781720849E+03  0.81380111223E+03  0.90143075316E+03  0.12500000000E+03 0.  0.
         25    1    1    2    0    0 -0.13178631878E+03 -0.62931389449E+02 -0.15011625559E+03  0.24390138127E+03  0.12500000000E+03 0.  0.
         25    1    1    2    0    0 -0.16357078061E+03 -0.15488581904E+03  0.10180716406E+03  0.27701031725E+03  0.12500000000E+03 0.  0.
</event>
<event>
 5    0  0.5612316E-005  0.2896270E+03  0.7546771E-02  0.1090544E+00
         21   -1    0    0  502  501  0.00000000000E+00  0.00000000000E+00  0.53239432412E+02  0.53239432412E+02  0.00000000000E+00 0. -1.
         21   -1    0    0  501  502 -0.00000000000E+00 -0.00000000000E+00 -0.15755953991E+04  0.15755953991E+04  0.00000000000E+00 0. -1.
         25    1    1    2    0    0  0.12457787244E+02  0.60463753103E+02 -0.11008220285E+03  0.17763488758E+03  0.12500000000E+03 0.  0.
         25    1    1    2    0    0 -0.15330532397E+02 -0.12098015789E+03 -0.52923554891E+03  0.55730287103E+03  0.12500000000E+03 0.  0.
         25    1    1    2    0    0  0.28727451526E+01  0.60516404788E+02 -0.88303821491E+03  0.89389707288E+03  0.12500000000E+03 0.  0.
</event>
<event>
 5    0  0.5612316E-005  0.2528364E+03  0.7546771E-02  0.1111525E+00
         21   -1    0    0  502  501  0.00000000000E+00  0.00000000000E+00  0.88478221419E+03  0.88478221419E+03  0.00000000000E+00 0.  1.
         21   -1    0    0  501  502 -0.00000000000E+00 -0.00000000000E+00 -0.72250800345E+02  0.72250800345E+02  0.00000000000E+00 0.  1.
         25    1    1    2    0    0  0.42988286668E+02  0.12540288762E+02  0.57419720277E+03  0.58934936948E+03  0.12500000000E+03 0.  0.
         25    1    1    2    0    0 -0.22677316081E+02 -0.16358997828E+02  0.19591962497E+03  0.23407557951E+03  0.12500000000E+03 0.  0.
         25    1    1    2    0    0 -0.20310970587E+02  0.38187090661E+01  0.42414586106E+02  0.13360806555E+03  0.12500000000E+03 0.  0.
</event>
<event>
 5    0  0.6458974E-005  0.6626989E+03  0.7546771E-02  0.9783238E-01
         21   -1    0    0  502  501  0.00000000000E+00  0.00000000000E+00  0.46060863380E+03  0.46060863380E+03  0.00000000000E+00 0.  1.
         21   -1    0    0  501  502 -0.00000000000E+00 -0.00000000000E+00 -0.95345542003E+03  0.95345542003E+03  0.00000000000E+00 0.  1.
         25    1    1    2    0    0 -0.27640888818E+03  0.21869805180E+03  0.62080881712E+02  0.37909068466E+03  0.12500000000E+03 0.  0.
         25    1    1    2    0    0  0.32839113443E+03 -0.26436493516E+03  0.22339969360E+02  0.44028812197E+03  0.12500000000E+03 0.  0.
         25    1    1    2    0    0 -0.51982246248E+02  0.45666883367E+02 -0.57726763730E+03  0.59468524720E+03  0.12500000000E+03 0.  0.
</event>
<event>
 5    0  0.5612316E-005  0.2521230E+03  0.7546771E-02  0.1111970E+00
         21   -1    0    0  502  501  0.00000000000E+00  0.00000000000E+00  0.53865630480E+02  0.53865630480E+02  0.00000000000E+00 0.  1.
         21   -1    0    0  501  502 -0.00000000000E+00 -0.00000000000E+00 -0.11800846268E+04  0.11800846268E+04  0.00000000000E+00 0.  1.
         25    1    1    2    0    0 -0.10484430835E+03  0.77809771126E+02 -0.39424094358E+03  0.43370221474E+03  0.12500000000E+03 0.  0.
         25    1    1    2    0    0  0.12869413377E+03 -0.11333886566E+02 -0.41630149570E+03  0.45345625189E+03  0.12500000000E+03 0.  0.
         25    1    1    2    0    0 -0.23849825423E+02 -0.66475884559E+02 -0.31567655704E+03  0.34679179065E+03  0.12500000000E+03 0.  0.
</event>
<event>
 5    0  0.5612316E-005  0.2178604E+03  0.7546771E-02  0.1135488E+00
         21   -1    0    0  502  501  0.00000000000E+00  0.00000000000E+00  0.44575760783E+03  0.44575760783E+03  0.00000000000E+00 0. -1.
         21   -1    0    0  501  502 -0.00000000000E+00 -0.00000000000E+00 -0.10647744722E+03  0.10647744722E+03  0.00000000000E+00 0. -1.
         25    1    1    2    0    0 -0.10981878145E+02  0.11800848367E+01  0.85707812436E+02  0.15196323029E+03  0.12500000000E+03 0.  0.
         25    1    1    2    0    0 -0.42565501343E+02  0.76781925054E+02  0.13249524213E+03  0.20220602144E+03  0.12500000000E+03 0.  0.
         25    1    1    2    0    0  0.53547379487E+02 -0.77962009890E+02  0.12107710604E+03  0.19806580332E+03  0.12500000000E+03 0.  0.
</event>
<event>
 5    0  0.5612316E-005  0.4000325E+03  0.7546771E-02  0.1043768E+00
         21   -1    0    0  502  501  0.00000000000E+00  0.00000000000E+00  0.42476734709E+03  0.42476734709E+03  0.00000000000E+00 0. -1.
         21   -1    0    0  501  502 -0.00000000000E+00 -0.00000000000E+00 -0.37673806261E+03  0.37673806261E+03  0.00000000000E+00 0. -1.
         25    1    1    2    0    0  0.25136144138E+03  0.17063639281E+03  0.59655381676E+02  0.33389087638E+03  0.12500000000E+03 0.  0.
         25    1    1    2    0    0  0.61142984412E+01 -0.99890991965E+02 -0.55641971717E+02  0.16951880113E+03  0.12500000000E+03 0.  0.
         25    1    1    2    0    0 -0.25747573983E+03 -0.70745400841E+02  0.44015874519E+02  0.29809573219E+03  0.12500000000E+03 0.  0.
</event>
<event>
 5    0  0.5612316E-005  0.2463206E+03  0.7546771E-02  0.1115652E+00
         21   -1    0    0  502  501  0.00000000000E+00  0.00000000000E+00  0.17537217426E+03  0.17537217426E+03  0.00000000000E+00 0. -1.
         21   -1    0    0  501  502 -0.00000000000E+00 -0.00000000000E+00 -0.34597175114E+03  0.34597175114E+03  0.00000000000E+00 0. -1.
         25    1    1    2    0    0 -0.39999855000E+02  0.29060941866E+02  0.29782089660E+02  0.13768260459E+03  0.12500000000E+03 0.  0.
         25    1    1    2    0    0 -0.63270039239E+02 -0.74644871879E+02 -0.98032362154E+02  0.18657518268E+03  0.12500000000E+03 0.  0.
         25    1    1    2    0    0  0.10326989424E+03  0.45583930013E+02 -0.10234930439E+03  0.19708613812E+03  0.12500000000E+03 0.  0.
</event>
<event>
 5    0  0.5612316E-005  0.2910212E+03  0.7546771E-02  0.1089817E+00
         21   -1    0    0  502  501  0.00000000000E+00  0.00000000000E+00  0.45436878779E+02  0.45436878779E+02  0.00000000000E+00 0. -1.
         21   -1    0    0  501  502 -0.00000000000E+00 -0.00000000000E+00 -0.18639779071E+04  0.18639779071E+04  0.00000000000E+00 0. -1.
         25    1    1    2    0    0 -0.13127392135E+03  0.42664236869E+02 -0.11980623459E+04  0.12124485408E+04  0.12500000000E+03 0.  0.
         25    1    1    2    0    0  0.27108259125E+02  0.38283872835E+02 -0.22303151052E+03  0.25993954550E+03  0.12500000000E+03 0.  0.
         25    1    1    2    0    0  0.10416566222E+03 -0.80948109704E+02 -0.39744717191E+03  0.43702669954E+03  0.12500000000E+03 0.  0.
</event>
<event>
 5    0  0.5612316E-005  0.2090911E+03  0.7546771E-02  0.1142288E+00
         21   -1    0    0  502  501  0.00000000000E+00  0.00000000000E+00  0.18766622924E+03  0.18766622924E+03  0.00000000000E+00 0.  1.
         21   -1    0    0  501  502 -0.00000000000E+00 -0.00000000000E+00 -0.23296194608E+03  0.23296194608E+03  0.00000000000E+00 0.  1.
         25    1    1    2    0    0 -0.33227727494E+02  0.36443224817E+02 -0.54577943322E+02  0.14503772753E+03  0.12500000000E+03 0.  0.
         25    1    1    2    0    0  0.64423478767E+02 -0.31177275817E+02 -0.13428489187E+02  0.14466420243E+03  0.12500000000E+03 0.  0.
         25    1    1    2    0    0 -0.31195751273E+02 -0.52659490004E+01  0.22710715671E+02  0.13092624535E+03  0.12500000000E+03 0.  0.
</event>
<event>
 5    0  0.5612316E-005  0.4591565E+03  0.7546771E-02  0.1025026E+00
         21   -1    0    0  502  501  0.00000000000E+00  0.00000000000E+00  0.41761983034E+03  0.41761983034E+03  0.00000000000E+00 0. -1.
         21   -1    0    0  501  502 -0.00000000000E+00 -0.00000000000E+00 -0.50482438172E+03  0.50482438172E+03  0.00000000000E+00 0. -1.
         25    1    1    2    0    0 -0.16581175626E+03  0.16954437540E+02  0.24013721101E+03  0.31791802651E+03  0.12500000000E+03 0.  0.
         25    1    1    2    0    0  0.56843823890E+01  0.44661436363E+02  0.72847224030E+02  0.15152120033E+03  0.12500000000E+03 0.  0.
         25    1    1    2    0    0  0.16012737387E+03 -0.61615873902E+02 -0.40018898642E+03  0.45300498521E+03  0.12500000000E+03 0.  0.
</event>
<event>
 5    0  0.5612316E-005  0.2297932E+03  0.7546771E-02  0.1126785E+00
         21   -1    0    0  502  501  0.00000000000E+00  0.00000000000E+00  0.50006662770E+02  0.50006662770E+02  0.00000000000E+00 0.  1.
         21   -1    0    0  501  502 -0.00000000000E+00 -0.00000000000E+00 -0.10559573951E+04  0.10559573951E+04  0.00000000000E+00 0. -1.
         25    1    1    2    0    0  0.34692380301E+02  0.10116142807E+03 -0.45138268276E+03  0.48042535536E+03  0.12500000000E+03 0.  0.
         25    1    1    2    0    0 -0.25885660519E+02 -0.78874192502E+02 -0.20908735843E+03  0.25735914423E+03  0.12500000000E+03 0.  0.
         25    1    1    2    0    0 -0.88067197815E+01 -0.22287235570E+02 -0.34548069114E+03  0.36817955828E+03  0.12500000000E+03 0.  0.
</event>
<event>
 5    0  0.5612316E-005  0.3155639E+03  0.7546771E-02  0.1077709E+00
         21   -1    0    0  502  501  0.00000000000E+00  0.00000000000E+00  0.16847577083E+04  0.16847577083E+04  0.00000000000E+00 0.  1.
         21   -1    0    0  501  502 -0.00000000000E+00 -0.00000000000E+00 -0.59106760656E+02  0.59106760656E+02  0.00000000000E+00 0.  1.
         25    1    1    2    0    0  0.14172587964E+03 -0.38361986025E+02  0.42050663427E+03  0.46261073961E+03  0.12500000000E+03 0.  0.
         25    1    1    2    0    0 -0.10114113799E+03  0.79255105902E+02  0.10814296444E+04  0.10961870175E+04  0.12500000000E+03 0.  0.
         25    1    1    2    0    0 -0.40584741647E+02 -0.40893119877E+02  0.12371466898E+03  0.18506671183E+03  0.12500000000E+03 0.  0.
</event>
<event>
 5    0  0.5612316E-005  0.2232098E+03  0.7546771E-02  0.1131512E+00
         21   -1    0    0  502  501  0.00000000000E+00  0.00000000000E+00  0.93001175624E+02  0.93001175624E+02  0.00000000000E+00 0.  1.
         21   -1    0    0  501  502 -0.00000000000E+00 -0.00000000000E+00 -0.53572043437E+03  0.53572043437E+03  0.00000000000E+00 0.  1.
         25    1    1    2    0    0 -0.83551222200E+02  0.22231035126E+02 -0.19580674332E+03  0.24787155218E+03  0.12500000000E+03 0.  0.
         25    1    1    2    0    0  0.26035721403E+01 -0.55133127867E+02 -0.10250620617E+03  0.17081850801E+03  0.12500000000E+03 0.  0.
         25    1    1    2    0    0  0.80947650060E+02  0.32902092741E+02 -0.14440630927E+03  0.21003154980E+03  0.12500000000E+03 0.  0.
</event>
<event>
 5    0  0.5612316E-005  0.2975963E+03  0.7546771E-02  0.1086448E+00
         21   -1    0    0  502  501  0.00000000000E+00  0.00000000000E+00  0.46863688510E+03  0.46863688510E+03  0.00000000000E+00 0.  1.
         21   -1    0    0  501  502 -0.00000000000E+00 -0.00000000000E+00 -0.18898120917E+03  0.18898120917E+03  0.00000000000E+00 0.  1.
         25    1    1    2    0    0 -0.14923713583E+03 -0.80646158858E+02  0.63093199416E+01  0.21080875971E+03  0.12500000000E+03 0.  0.
         25    1    1    2    0    0  0.60565622470E+02 -0.39944701534E+02  0.56521809234E+02  0.15518855861E+03  0.12500000000E+03 0.  0.
         25    1    1    2    0    0  0.88671513364E+02  0.12059086039E+03  0.21682454675E+03  0.29162077595E+03  0.12500000000E+03 0.  0.
</event>
<event>
 5    0  0.5612316E-005  0.3500820E+03  0.7546771E-02  0.1062581E+00
         21   -1    0    0  502  501  0.00000000000E+00  0.00000000000E+00  0.99906391754E+03  0.99906391754E+03  0.00000000000E+00 0. -1.
         21   -1    0    0  501  502 -0.00000000000E+00 -0.00000000000E+00 -0.12267221769E+03  0.12267221769E+03  0.00000000000E+00 0. -1.
         25    1    1    2    0    0  0.34393549883E+02  0.14914493039E+03  0.41056714952E+03  0.45565064556E+03  0.12500000000E+03 0.  0.
         25    1    1    2    0    0  0.37996878552E+02  0.11428784667E+03  0.20116030150E+03  0.26569896796E+03  0.12500000000E+03 0.  0.
         25    1    1    2    0    0 -0.72390428435E+02 -0.26343277706E+03  0.26466424883E+03  0.40038652171E+03  0.12500000000E+03 0.  0.
</event>
<event>
 5    0  0.5612316E-005  0.2294233E+03  0.7546771E-02  0.1127046E+00
         21   -1    0    0  502  501  0.00000000000E+00  0.00000000000E+00  0.24253240877E+04  0.24253240877E+04  0.00000000000E+00 0. -1.
         21   -1    0    0  501  502 -0.00000000000E+00 -0.00000000000E+00 -0.21702273107E+02  0.21702273107E+02  0.00000000000E+00 0. -1.
         25    1    1    2    0    0 -0.45169177276E+01 -0.52199066469E+02  0.79038288228E+03  0.80191972522E+03  0.12500000000E+03 0.  0.
         25    1    1    2    0    0  0.58435239173E+02 -0.15615697681E+02  0.42349265835E+03  0.44567876196E+03  0.12500000000E+03 0.  0.
         25    1    1    2    0    0 -0.53918321446E+02  0.67814764150E+02  0.11897462740E+04  0.11994278737E+04  0.12500000000E+03 0.  0.
</event>
<event>
 5    0  0.5612316E-005  0.2444562E+03  0.7546771E-02  0.1116859E+00
         21   -1    0    0  502  501  0.00000000000E+00  0.00000000000E+00  0.63046906364E+02  0.63046906364E+02  0.00000000000E+00 0.  1.
         21   -1    0    0  501  502 -0.00000000000E+00 -0.00000000000E+00 -0.94784732941E+03  0.94784732941E+03  0.00000000000E+00 0.  1.
         25    1    1    2    0    0  0.64408430837E+02  0.11698631730E+03 -0.26524562605E+03  0.32220255514E+03  0.12500000000E+03 0.  0.
         25    1    1    2    0    0 -0.53472349260E+02 -0.10195169828E+03 -0.29569315722E+03  0.34104674774E+03  0.12500000000E+03 0.  0.
         25    1    1    2    0    0 -0.10936081577E+02 -0.15034619024E+02 -0.32386163977E+03  0.34764493289E+03  0.12500000000E+03 0.  0.
</event>
<event>
 5    0  0.6337366E-005  0.3144266E+03  0.7546771E-02  0.1078243E+00
         21   -1    0    0  502  501  0.00000000000E+00  0.00000000000E+00  0.63182489160E+02  0.63182489160E+02  0.00000000000E+00 0.  1.
         21   -1    0    0  501  502 -0.00000000000E+00 -0.00000000000E+00 -0.15647385039E+04  0.15647385039E+04  0.00000000000E+00 0.  1.
         25    1    1    2    0    0 -0.17648345514E+03 -0.10340945081E+03 -0.91145771580E+03  0.94245429181E+03  0.12500000000E+03 0.  0.
         25    1    1    2    0    0  0.87665487184E+02  0.65943450427E+02 -0.17525121694E+03  0.24160249447E+03  0.12500000000E+03 0.  0.
         25    1    1    2    0    0  0.88817967959E+02  0.37466000378E+02 -0.41484708204E+03  0.44386420682E+03  0.12500000000E+03 0.  0.
</event>
<event>
 5    0  0.5612316E-005  0.5672795E+03  0.7546771E-02  0.9975717E-01
         21   -1    0    0  502  501  0.00000000000E+00  0.00000000000E+00  0.25536424287E+04  0.25536424287E+04  0.00000000000E+00 0.  1.
         21   -1    0    0  501  502 -0.00000000000E+00 -0.00000000000E+00 -0.12601842025E+03  0.12601842025E+03  0.00000000000E+00 0.  1.
         25    1    1    2    0    0 -0.24079756562E+03 -0.24109118763E+02  0.87765123651E+03  0.91894581460E+03  0.12500000000E+03 0.  0.
         25    1    1    2    0    0 -0.92501371586E+02  0.13621916235E+03  0.12886213467E+04  0.13050985170E+04  0.12500000000E+03 0.  0.
         25    1    1    2    0    0  0.33329893720E+03 -0.11211004358E+03  0.26135142527E+03  0.45561651738E+03  0.12500000000E+03 0.  0.
</event>
<event>
 5    0  0.5612316E-005  0.2349099E+03  0.7546771E-02  0.1123231E+00
         21   -1    0    0  502  501  0.00000000000E+00  0.00000000000E+00  0.13070093083E+04  0.13070093083E+04  0.00000000000E+00 0. -1.
         21   -1    0    0  501  502 -0.00000000000E+00 -0.00000000000E+00 -0.42220569029E+02  0.42220569029E+02  0.00000000000E+00 0. -1.
         25    1    1    2    0    0  0.28458551119E+02  0.25109887044E+02  0.42865053822E+03  0.44811458298E+03  0.12500000000E+03 0.  0.
         25    1    1    2    0    0 -0.10428223962E+03  0.24575345113E+02  0.57132232908E+03  0.59456953907E+03  0.12500000000E+03 0.  0.
         25    1    1    2    0    0  0.75823688496E+02 -0.49685232157E+02  0.26481587195E+03  0.30654575526E+03  0.12500000000E+03 0.  0.
</event>
<event>
 5    0  0.5612316E-005  0.3194829E+03  0.7546771E-02  0.1075888E+00
         21   -1    0    0  502  501  0.00000000000E+00  0.00000000000E+00  0.99154814848E+03  0.99154814848E+03  0.00000000000E+00 0. -1.
         21   -1    0    0  501  502 -0.00000000000E+00 -0.00000000000E+00 -0.10293937547E+03  0.10293937547E+03  0.00000000000E+00 0. -1.
         25    1    1    2    0    0 -0.61545032519E+02 -0.15310247350E+03  0.11764128221E+03  0.23810214132E+03  0.12500000000E+03 0.  0.
         25    1    1    2    0    0 -0.40704728974E+02 -0.10651316134E+02  0.18764152441E+03  0.22935707353E+03  0.12500000000E+03 0.  0.
         25    1    1    2    0    0  0.10224976149E+03  0.16375378963E+03  0.58332596639E+03  0.62702830910E+03  0.12500000000E+03 0.  0.
</event>
<event>
 5    0  0.5612316E-005  0.3586410E+03  0.7546771E-02  0.1059123E+00
         21   -1    0    0  502  501  0.00000000000E+00  0.00000000000E+00  0.41579726592E+03  0.41579726592E+03  0.00000000000E+00 0.  1.
         21   -1    0    0  501  502 -0.00000000000E+00 -0.00000000000E+00 -0.30934146743E+03  0.30934146743E+03  0.00000000000E+00 0.  1.
         25    1    1    2    0    0  0.20442149728E+03 -0.78926850135E+02 -0.71215532994E+02  0.26213402748E+03  0.12500000000E+03 0.  0.
         25    1    1    2    0    0 -0.15613869728E+03  0.11474713684E+03  0.21926630262E+03  0.31819633823E+03  0.12500000000E+03 0.  0.
         25    1    1    2    0    0 -0.48282800004E+02 -0.35820286701E+02 -0.41594971133E+02  0.14480836764E+03  0.12500000000E+03 0.  0.
</event>
<event>
 5    0  0.5612316E-005  0.4589281E+03  0.7546771E-02  0.1025093E+00
         21   -1    0    0  502  501  0.00000000000E+00  0.00000000000E+00  0.39591844778E+03  0.39591844778E+03  0.00000000000E+00 0. -1.
         21   -1    0    0  501  502 -0.00000000000E+00 -0.00000000000E+00 -0.53196567331E+03  0.53196567331E+03  0.00000000000E+00 0. -1.
         25    1    1    2    0    0  0.36858199907E+02 -0.51013922295E+02 -0.25821970937E+02  0.14231205624E+03  0.12500000000E+03 0.  0.
         25    1    1    2    0    0  0.24643051283E+03 -0.15260610014E+03 -0.23609692043E+03  0.39418698011E+03  0.12500000000E+03 0.  0.
         25    1    1    2    0    0 -0.28328871274E+03  0.20362002243E+03  0.12587166584E+03  0.39138508474E+03  0.12500000000E+03 0.  0.
</event>
<event>
 5    0  0.5612316E-005  0.3681279E+03  0.7546771E-02  0.1055411E+00
         21   -1    0    0  502  501  0.00000000000E+00  0.00000000000E+00  0.87487097018E+03  0.87487097018E+03  0.00000000000E+00 0.  1.
         21   -1    0    0  501  502 -0.00000000000E+00 -0.00000000000E+00 -0.15490075539E+03  0.15490075539E+03  0.00000000000E+00 0.  1.
         25    1    1    2    0    0  0.92507990816E+02 -0.86325934033E+02  0.29963300507E+03  0.34844631291E+03  0.12500000000E+03 0.  0.
         25    1    1    2    0    0 -0.59163313521E+02  0.29486519831E+02 -0.79278912184E+02  0.16211075978E+03  0.12500000000E+03 0.  0.
         25    1    1    2    0    0 -0.33344677295E+02  0.56839414202E+02  0.49961612190E+03  0.51921465289E+03  0.12500000000E+03 0.  0.
</event>
<event>
 5    0  0.5612316E-005  0.3202494E+03  0.7546771E-02  0.1075535E+00
         21   -1    0    0  502  501  0.00000000000E+00  0.00000000000E+00  0.41374069344E+03  0.41374069344E+03  0.00000000000E+00 0. -1.
         21   -1    0    0  501  502 -0.00000000000E+00 -0.00000000000E+00 -0.24788394348E+03  0.24788394348E+03  0.00000000000E+00 0. -1.
         25    1    1    2    0    0  0.12875606749E+03  0.62505718954E+02 -0.68883660640E+02  0.20212631823E+03  0.12500000000E+03 0.  0.
         25    1    1    2    0    0  0.33192289148E+02 -0.12621008262E+03  0.10425993474E+03  0.20862849040E+03  0.12500000000E+03 0.  0.
         25    1    1    2    0    0 -0.16194835664E+03  0.63704363668E+02  0.13048047586E+03  0.25086982830E+03  0.12500000000E+03 0.  0.
</event>
<event>
 5    0  0.5612316E-005  0.3214785E+03  0.7546771E-02  0.1074971E+00
         21   -1    0    0  502  501  0.00000000000E+00  0.00000000000E+00  0.69052647999E+03  0.69052647999E+03  0.00000000000E+00 0.  1.
         21   -1    0    0  501  502 -0.00000000000E+00 -0.00000000000E+00 -0.14966613960E+03  0.14966613960E+03  0.00000000000E+00 0.  1.
         25    1    1    2    0    0  0.15018620504E+03  0.13963980623E+02  0.37601913178E+03  0.42398853334E+03  0.12500000000E+03 0.  0.
         25    1    1    2    0    0  0.17765949525E+02 -0.92418491802E+02  0.89588167103E+02  0.18029932411E+03  0.12500000000E+03 0.  0.
         25    1    1    2    0    0 -0.16795215456E+03  0.78454511179E+02  0.75253041507E+02  0.23590476214E+03  0.12500000000E+03 0.  0.
</event>
<event>
 5    0  0.7028410E-005  0.3299397E+03  0.7546771E-02  0.1071164E+00
         21   -1    0    0  502  501  0.00000000000E+00  0.00000000000E+00  0.41705962900E+03  0.41705962900E+03  0.00000000000E+00 0.  1.
         21   -1    0    0  501  502 -0.00000000000E+00 -0.00000000000E+00 -0.26101839129E+03  0.26101839129E+03  0.00000000000E+00 0.  1.
         25    1    1    2    0    0 -0.10239023807E+03  0.16004224182E+03 -0.86799502138E+02  0.24342644390E+03  0.12500000000E+03 0.  0.
         25    1    1    2    0    0 -0.30781975480E+02 -0.67729151640E+02  0.15311436029E+03  0.21119605897E+03  0.12500000000E+03 0.  0.
         25    1    1    2    0    0  0.13317221355E+03 -0.92313090175E+02  0.89726379557E+02  0.22345551742E+03  0.12500000000E+03 0.  0.
</event>
<event>
 5    0  0.5612316E-005  0.3279604E+03  0.7546771E-02  0.1072043E+00
         21   -1    0    0  502  501  0.00000000000E+00  0.00000000000E+00  0.16981627751E+03  0.16981627751E+03  0.00000000000E+00 0.  1.
         21   -1    0    0  501  502 -0.00000000000E+00 -0.00000000000E+00 -0.63337875126E+03  0.63337875126E+03  0.00000000000E+00 0.  1.
         25    1    1    2    0    0 -0.18820307049E+02 -0.69347302719E+02  0.47641121458E+02  0.15184837439E+03  0.12500000000E+03 0.  0.
         25    1    1    2    0    0  0.71159829321E+02 -0.10087904248E+03 -0.15679694098E+03  0.23547947516E+03  0.12500000000E+03 0.  0.
         25    1    1    2    0    0 -0.52339522272E+02  0.17022634520E+03 -0.35440665423E+03  0.41586717922E+03  0.12500000000E+03 0.  0.
</event>
<event>
 5    0  0.5612316E-005  0.4088624E+03  0.7546771E-02  0.1040753E+00
         21   -1    0    0  502  501  0.00000000000E+00  0.00000000000E+00  0.37066027037E+03  0.37066027037E+03  0.00000000000E+00 0.  1.
         21   -1    0    0  501  502 -0.00000000000E+00 -0.00000000000E+00 -0.45100176256E+03  0.45100176256E+03  0.00000000000E+00 0. -1.
         25    1    1    2    0    0  0.24254880341E+02  0.24103251489E+03  0.77500678354E+02  0.28340135426E+03  0.12500000000E+03 0.  0.
         25    1    1    2    0    0 -0.36836140729E+02  0.85474122910E+02 -0.95868237692E+02  0.18297116152E+03  0.12500000000E+03 0.  0.
         25    1    1    2    0    0  0.12581260388E+02 -0.32650663780E+03 -0.61973932860E+02  0.35528951714E+03  0.12500000000E+03 0.  0.
</event>
<event>
 5    0  0.5612316E-005  0.3411702E+03  0.7546771E-02  0.1066299E+00
         21   -1    0    0  502  501  0.00000000000E+00  0.00000000000E+00  0.15921196832E+03  0.15921196832E+03  0.00000000000E+00 0.  1.
         21   -1    0    0  501  502 -0.00000000000E+00 -0.00000000000E+00 -0.73108273218E+03  0.73108273218E+03  0.00000000000E+00 0.  1.
         25    1    1    2    0    0 -0.15555752353E+02  0.13100958819E+03 -0.44827243800E+03  0.48371341960E+03  0.12500000000E+03 0.  0.
         25    1    1    2    0    0  0.12503358345E+03 -0.13287272037E+03 -0.71046688154E+02  0.23229547716E+03  0.12500000000E+03 0.  0.
         25    1    1    2    0    0 -0.10947783110E+03  0.18631321854E+01 -0.52551637706E+02  0.17428580375E+03  0.12500000000E+03 0.  0.
</event>
<event>
 5    0  0.5612316E-005  0.2634687E+03  0.7546771E-02  0.1105077E+00
         21   -1    0    0  502  501  0.00000000000E+00  0.00000000000E+00  0.97524774325E+02  0.97524774325E+02  0.00000000000E+00 0.  1.
         21   -1    0    0  501  502 -0.00000000000E+00 -0.00000000000E+00 -0.71177585064E+03  0.71177585064E+03  0.00000000000E+00 0.  1.
         25    1    1    2    0    0 -0.86557148908E+02 -0.97010182740E+02 -0.39226353835E+03  0.43173927213E+03  0.12500000000E+03 0.  0.
         25    1    1    2    0    0 -0.12473090400E+02  0.47305250556E+02 -0.68451477355E+02  0.15067836429E+03  0.12500000000E+03 0.  0.
         25    1    1    2    0    0  0.99030239307E+02  0.49704932184E+02 -0.15353606061E+03  0.22688298854E+03  0.12500000000E+03 0.  0.
</event>
<event>
 5    0  0.5612316E-005  0.3431583E+03  0.7546771E-02  0.1065459E+00
         21   -1    0    0  502  501  0.00000000000E+00  0.00000000000E+00  0.74902894954E+03  0.74902894954E+03  0.00000000000E+00 0. -1.
         21   -1    0    0  501  502 -0.00000000000E+00 -0.00000000000E+00 -0.15721373016E+03  0.15721373016E+03  0.00000000000E+00 0. -1.
         25    1    1    2    0    0  0.44550205129E+02  0.15720013523E+03  0.12406489093E+03  0.24023675917E+03  0.12500000000E+03 0.  0.
         25    1    1    2    0    0  0.54126420077E+02 -0.41385670014E+01 -0.13042759190E+02  0.13690109808E+03  0.12500000000E+03 0.  0.
         25    1    1    2    0    0 -0.98676625206E+02 -0.15306156823E+03  0.48079308764E+03  0.52910482246E+03  0.12500000000E+03 0.  0.
</event>
<event>
 5    0  0.5612316E-005  0.3372113E+03  0.7546771E-02  0.1067990E+00
         21   -1    0    0  502  501  0.00000000000E+00  0.00000000000E+00  0.35616314398E+03  0.35616314398E+03  0.00000000000E+00 0.  1.
         21   -1    0    0  501  502 -0.00000000000E+00 -0.00000000000E+00 -0.31926784118E+03  0.31926784118E+03  0.00000000000E+00 0.  1.
         25    1    1    2    0    0  0.92715532309E+02 -0.19343505210E+03  0.86421890407E+02  0.26288216458E+03  0.12500000000E+03 0.  0.
         25    1    1    2    0    0 -0.61310052580E+02  0.17699688940E+03  0.70187040409E+02  0.23587717576E+03  0.12500000000E+03 0.  0.
         25    1    1    2    0    0 -0.31405479730E+02  0.16438162704E+02 -0.11971362801E+03  0.17667164482E+03  0.12500000000E+03 0.  0.
</event>
<event>
 5    0  0.5612316E-005  0.3490550E+03  0.7546771E-02  0.1063004E+00
         21   -1    0    0  502  501  0.00000000000E+00  0.00000000000E+00  0.15720253789E+03  0.15720253789E+03  0.00000000000E+00 0. -1.
         21   -1    0    0  501  502 -0.00000000000E+00 -0.00000000000E+00 -0.77504707538E+03  0.77504707538E+03  0.00000000000E+00 0. -1.
         25    1    1    2    0    0  0.19117382681E+03 -0.14503590063E+01 -0.29888686476E+03  0.37617534944E+03  0.12500000000E+03 0.  0.
         25    1    1    2    0    0 -0.13832349101E+02 -0.14634822331E+03 -0.13758010988E+03  0.23698612403E+03  0.12500000000E+03 0.  0.
         25    1    1    2    0    0 -0.17734147771E+03  0.14779858232E+03 -0.18137756286E+03  0.31908813980E+03  0.12500000000E+03 0.  0.
</event>
<event>
 5    0  0.5612316E-005  0.5136606E+03  0.7546771E-02  0.1010274E+00
         21   -1    0    0  502  501  0.00000000000E+00  0.00000000000E+00  0.68647499412E+03  0.68647499412E+03  0.00000000000E+00 0.  1.
         21   -1    0    0  501  502 -0.00000000000E+00 -0.00000000000E+00 -0.38435079746E+03  0.38435079746E+03  0.00000000000E+00 0.  1.
         25    1    1    2    0    0 -0.36488319753E+03  0.38972391674E+02  0.60779180677E+02  0.39239992858E+03  0.12500000000E+03 0.  0.
         25    1    1    2    0    0 -0.88531439763E+02 -0.35127627069E+02  0.10396140341E+03  0.18842701348E+03  0.12500000000E+03 0.  0.
         25    1    1    2    0    0  0.45341463729E+03 -0.38447646050E+01  0.13738361257E+03  0.48999884951E+03  0.12500000000E+03 0.  0.
</event>
<event>
 5    0  0.5612316E-005  0.2887478E+03  0.7546771E-02  0.1091005E+00
         21   -1    0    0  502  501  0.00000000000E+00  0.00000000000E+00  0.17742948899E+03  0.17742948899E+03  0.00000000000E+00 0.  1.
         21   -1    0    0  501  502 -0.00000000000E+00 -0.00000000000E+00 -0.46990647005E+03  0.46990647005E+03  0.00000000000E+00 0.  1.
         25    1    1    2    0    0  0.11838595885E+03 -0.29745903454E+01 -0.14131645731E+03  0.22275417964E+03  0.12500000000E+03 0.  0.
         25    1    1    2    0    0  0.82402831212E+02  0.39257323489E+02 -0.83740370229E+02  0.17597958304E+03  0.12500000000E+03 0.  0.
         25    1    1    2    0    0 -0.20078879006E+03 -0.36282733143E+02 -0.67420153520E+02  0.24860219637E+03  0.12500000000E+03 0.  0.
</event>
<event>
 5    0  0.5612316E-005  0.3841460E+03  0.7546771E-02  0.1049412E+00
         21   -1    0    0  502  501  0.00000000000E+00  0.00000000000E+00  0.96555759815E+02  0.96555759815E+02  0.00000000000E+00 0.  1.
         21   -1    0    0  501  502 -0.00000000000E+00 -0.00000000000E+00 -0.15283202284E+04  0.15283202284E+04  0.00000000000E+00 0.  1.
         25    1    1    2    0    0 -0.19861317516E+03 -0.51329542702E+02 -0.14875221726E+03  0.28254935399E+03  0.12500000000E+03 0.  0.
         25    1    1    2    0    0  0.76803123862E+02  0.94796067970E+02 -0.92859516923E+03  0.94488041712E+03  0.12500000000E+03 0.  0.
         25    1    1    2    0    0  0.12181005129E+03 -0.43466525268E+02 -0.35441708212E+03  0.39744621713E+03  0.12500000000E+03 0.  0.
</event>
<event>
 5    0  0.5612316E-005  0.3441985E+03  0.7546771E-02  0.1065022E+00
         21   -1    0    0  502  501  0.00000000000E+00  0.00000000000E+00  0.71454429042E+03  0.71454429042E+03  0.00000000000E+00 0. -1.
         21   -1    0    0  501  502 -0.00000000000E+00 -0.00000000000E+00 -0.16580164359E+03  0.16580164359E+03  0.00000000000E+00 0. -1.
         25    1    1    2    0    0 -0.80721001381E+02 -0.23614063730E+03  0.87746012293E+02  0.29257929407E+03  0.12500000000E+03 0.  0.
         25    1    1    2    0    0  0.64574121663E+02  0.16533862788E+03  0.31262370569E+03  0.38061169243E+03  0.12500000000E+03 0.  0.
         25    1    1    2    0    0  0.16146879718E+02  0.70802009413E+02  0.14837292885E+03  0.20715494751E+03  0.12500000000E+03 0.  0.
</event>
<event>
 5    0  0.5612316E-005  0.2030571E+03  0.7546771E-02  0.1147185E+00
         21   -1    0    0  502  501  0.00000000000E+00  0.00000000000E+00  0.12040536594E+04  0.12040536594E+04  0.00000000000E+00 0.  1.
         21   -1    0    0  501  502 -0.00000000000E+00 -0.00000000000E+00 -0.34244491620E+02  0.34244491620E+02  0.00000000000E+00 0.  1.
         25    1    1    2    0    0  0.20531349494E+02 -0.15407280722E+02  0.29447525617E+03  0.32093550303E+03  0.12500000000E+03 0.  0.
         25    1    1    2    0    0  0.21883658784E+02 -0.34768607691E+02  0.47329234087E+03  0.49124168240E+03  0.12500000000E+03 0.  0.
         25    1    1    2    0    0 -0.42415008278E+02  0.50175888413E+02  0.40204157070E+03  0.42612096555E+03  0.12500000000E+03 0.  0.
</event>
<event>
 5    0  0.5612316E-005  0.1963609E+03  0.7546771E-02  0.1152846E+00
         21   -1    0    0  502  501  0.00000000000E+00  0.00000000000E+00  0.32450621688E+02  0.32450621688E+02  0.00000000000E+00 0. -1.
         21   -1    0    0  501  502 -0.00000000000E+00 -0.00000000000E+00 -0.11881935833E+04  0.11881935833E+04  0.00000000000E+00 0. -1.
         25    1    1    2    0    0  0.14890066754E+01 -0.14651988036E+02 -0.46050123619E+03  0.47739217256E+03  0.12500000000E+03 0.  0.
         25    1    1    2    0    0 -0.15656990496E+02 -0.22692915488E+02 -0.40443144437E+03  0.42420502468E+03  0.12500000000E+03 0.  0.
         25    1    1    2    0    0  0.14167983821E+02  0.37344903525E+02 -0.29081028101E+03  0.31904700770E+03  0.12500000000E+03 0.  0.
</event>
<event>
 5    0  0.5612316E-005  0.3685304E+03  0.7546771E-02  0.1055256E+00
         21   -1    0    0  502  501  0.00000000000E+00  0.00000000000E+00  0.68123979260E+03  0.68123979260E+03  0.00000000000E+00 0. -1.
         21   -1    0    0  501  502 -0.00000000000E+00 -0.00000000000E+00 -0.19936394874E+03  0.19936394874E+03  0.00000000000E+00 0. -1.
         25    1    1    2    0    0  0.10964929594E+03  0.12041160193E+03  0.39824755335E+02  0.20912420500E+03  0.12500000000E+03 0.  0.
         25    1    1    2    0    0 -0.89514082047E+02 -0.19164562417E+03  0.46353575864E+03  0.52462483327E+03  0.12500000000E+03 0.  0.
         25    1    1    2    0    0 -0.20135213892E+02  0.71234022240E+02 -0.21484670105E+02  0.14685470307E+03  0.12500000000E+03 0.  0.
</event>
<event>
 5    0  0.5612316E-005  0.4352599E+03  0.7546771E-02  0.1032211E+00
         21   -1    0    0  502  501  0.00000000000E+00  0.00000000000E+00  0.11762931026E+04  0.11762931026E+04  0.00000000000E+00 0. -1.
         21   -1    0    0  501  502 -0.00000000000E+00 -0.00000000000E+00 -0.16105778678E+03  0.16105778678E+03  0.00000000000E+00 0. -1.
         25    1    1    2    0    0 -0.68667569104E+02 -0.56362729185E+02  0.62885414472E+03  0.64728241720E+03  0.12500000000E+03 0.  0.
         25    1    1    2    0    0 -0.96304465229E+02 -0.19194979776E+03  0.16624292078E+03  0.29896652587E+03  0.12500000000E+03 0.  0.
         25    1    1    2    0    0  0.16497203433E+03  0.24831252695E+03  0.22013825031E+03  0.39110194630E+03  0.12500000000E+03 0.  0.
</event>
<event>
 5    0  0.5612316E-005  0.3449241E+03  0.7546771E-02  0.1064718E+00
         21   -1    0    0  502  501  0.00000000000E+00  0.00000000000E+00  0.69676492984E+03  0.69676492984E+03  0.00000000000E+00 0.  1.
         21   -1    0    0  501  502 -0.00000000000E+00 -0.00000000000E+00 -0.17075007229E+03  0.17075007229E+03  0.00000000000E+00 0.  1.
         25    1    1    2    0    0 -0.12295229100E+03 -0.70209419741E+02  0.23429408055E+03  0.30094076603E+03  0.12500000000E+03 0.  0.
         25    1    1    2    0    0 -0.12197769119E+03 -0.42389282426E+02  0.16342914825E+03  0.24291870021E+03  0.12500000000E+03 0.  0.
         25    1    1    2    0    0  0.24492998219E+03  0.11259870217E+03  0.12829162875E+03  0.32365553589E+03  0.12500000000E+03 0.  0.
</event>
<event>
 5    0  0.5612316E-005  0.2517569E+03  0.7546771E-02  0.1112200E+00
         21   -1    0    0  502  501  0.00000000000E+00  0.00000000000E+00  0.56326167334E+03  0.56326167334E+03  0.00000000000E+00 0. -1.
         21   -1    0    0  501  502 -0.00000000000E+00 -0.00000000000E+00 -0.11252587409E+03  0.11252587409E+03  0.00000000000E+00 0. -1.
         25    1    1    2    0    0 -0.99789189296E+01 -0.36708003699E+02  0.97898291265E+02  0.16326705666E+03  0.12500000000E+03 0.  0.
         25    1    1    2    0    0  0.83489576729E+01 -0.10167137556E+03  0.25545359942E+03  0.30213956239E+03  0.12500000000E+03 0.  0.
         25    1    1    2    0    0  0.16299612568E+01  0.13837937926E+03  0.97383908563E+02  0.21038092838E+03  0.12500000000E+03 0.  0.
</event>
<event>
 5    0  0.5612316E-005  0.2456795E+03  0.7546771E-02  0.1116066E+00
         21   -1    0    0  502  501  0.00000000000E+00  0.00000000000E+00  0.54989805094E+02  0.54989805094E+02  0.00000000000E+00 0.  1.
         21   -1    0    0  501  502 -0.00000000000E+00 -0.00000000000E+00 -0.10976288339E+04  0.10976288339E+04  0.00000000000E+00 0.  1.
         25    1    1    2    0    0  0.33219155792E+02  0.28459086910E+02 -0.38310321580E+03  0.40534738915E+03  0.12500000000E+03 0.  0.
         25    1    1    2    0    0  0.17215937897E+02 -0.13032387244E+03 -0.31370116205E+03  0.36237290091E+03  0.12500000000E+03 0.  0.
         25    1    1    2    0    0 -0.50435093688E+02  0.10186478552E+03 -0.34583465097E+03  0.38489834894E+03  0.12500000000E+03 0.  0.
</event>
<event>
 5    0  0.5612316E-005  0.3476631E+03  0.7546771E-02  0.1063578E+00
         21   -1    0    0  502  501  0.00000000000E+00  0.00000000000E+00  0.19712715809E+03  0.19712715809E+03  0.00000000000E+00 0.  1.
         21   -1    0    0  501  502 -0.00000000000E+00 -0.00000000000E+00 -0.61315549927E+03  0.61315549927E+03  0.00000000000E+00 0.  1.
         25    1    1    2    0    0 -0.22306373902E+02  0.12382106349E+03 -0.46127600559E+03  0.49419609813E+03  0.12500000000E+03 0.  0.
         25    1    1    2    0    0  0.74857712773E+02 -0.91198882150E+02  0.40207593648E+02  0.17652921530E+03  0.12500000000E+03 0.  0.
         25    1    1    2    0    0 -0.52551338871E+02 -0.32622181342E+02  0.50400707586E+01  0.13955734393E+03  0.12500000000E+03 0.  0.
</event>
<event>
 5    0  0.5612316E-005  0.3132616E+03  0.7546771E-02  0.1078793E+00
         21   -1    0    0  502  501  0.00000000000E+00  0.00000000000E+00  0.47377043977E+03  0.47377043977E+03  0.00000000000E+00 0. -1.
         21   -1    0    0  501  502 -0.00000000000E+00 -0.00000000000E+00 -0.20713162079E+03  0.20713162079E+03  0.00000000000E+00 0. -1.
         25    1    1    2    0    0  0.12282980902E+03  0.28755638010E+02  0.17032520267E+03  0.24606853388E+03  0.12500000000E+03 0.  0.
         25    1    1    2    0    0  0.53088955752E+02  0.14045149592E+02  0.15556865730E+03  0.20698384136E+03  0.12500000000E+03 0.  0.
         25    1    1    2    0    0 -0.17591876477E+03 -0.42800787603E+02 -0.59255040985E+02  0.22784968532E+03  0.12500000000E+03 0.  0.
</event>
<event>
 5    0  0.5612316E-005  0.3381217E+03  0.7546771E-02  0.1067599E+00
         21   -1    0    0  502  501  0.00000000000E+00  0.00000000000E+00  0.19673317599E+04  0.19673317599E+04  0.00000000000E+00 0. -1.
         21   -1    0    0  501  502 -0.00000000000E+00 -0.00000000000E+00 -0.58112351479E+02  0.58112351479E+02  0.00000000000E+00 0. -1.
         25    1    1    2    0    0 -0.25965913666E+01 -0.30516467113E+02  0.45617495757E+03  0.47398163357E+03  0.12500000000E+03 0.  0.
         25    1    1    2    0    0  0.11817451782E+03 -0.79644827726E+02  0.17681497781E+03  0.25922394107E+03  0.12500000000E+03 0.  0.
         25    1    1    2    0    0 -0.11557792646E+03  0.11016129484E+03  0.12762294731E+04  0.12922385368E+04  0.12500000000E+03 0.  0.
</event>
<event>
 5    0  0.5612316E-005  0.2646594E+03  0.7546771E-02  0.1104376E+00
         21   -1    0    0  502  501  0.00000000000E+00  0.00000000000E+00  0.26219803525E+03  0.26219803525E+03  0.00000000000E+00 0.  1.
         21   -1    0    0  501  502 -0.00000000000E+00 -0.00000000000E+00 -0.26714385027E+03  0.26714385027E+03  0.00000000000E+00 0.  1.
         25    1    1    2    0    0  0.13663294673E+03  0.24396860925E+02  0.25190394524E+02  0.18847632459E+03  0.12500000000E+03 0.  0.
         25    1    1    2    0    0 -0.12069417179E+03  0.10059917791E+02  0.57791072268E+02  0.18339327437E+03  0.12500000000E+03 0.  0.
         25    1    1    2    0    0 -0.15938774946E+02 -0.34456778717E+02 -0.87927281818E+02  0.15747228656E+03  0.12500000000E+03 0.  0.
</event>
<event>
 5    0  0.5612316E-005  0.4024585E+03  0.7546771E-02  0.1042932E+00
         21   -1    0    0  502  501  0.00000000000E+00  0.00000000000E+00  0.31031564320E+03  0.31031564320E+03  0.00000000000E+00 0. -1.
         21   -1    0    0  501  502 -0.00000000000E+00 -0.00000000000E+00 -0.52196148853E+03  0.52196148853E+03  0.00000000000E+00 0. -1.
         25    1    1    2    0    0  0.17085856657E+03 -0.55505687969E+02 -0.56893888464E+02  0.22613147881E+03  0.12500000000E+03 0.  0.
         25    1    1    2    0    0 -0.24589416731E+03  0.19484529666E+03  0.21373334379E+02  0.33839392809E+03  0.12500000000E+03 0.  0.
         25    1    1    2    0    0  0.75035600744E+02 -0.13933960869E+03 -0.17612529125E+03  0.26775172482E+03  0.12500000000E+03 0.  0.
</event>
<event>
 5    0  0.5612316E-005  0.3384942E+03  0.7546771E-02  0.1067439E+00
         21   -1    0    0  502  501  0.00000000000E+00  0.00000000000E+00  0.13388126878E+03  0.13388126878E+03  0.00000000000E+00 0.  1.
         21   -1    0    0  501  502 -0.00000000000E+00 -0.00000000000E+00 -0.85582041939E+03  0.85582041939E+03  0.00000000000E+00 0.  1.
         25    1    1    2    0    0 -0.11210009348E+02  0.58782894433E+02 -0.38851638272E+03  0.41249372435E+03  0.12500000000E+03 0.  0.
         25    1    1    2    0    0  0.16648933058E+03  0.73023022671E+02 -0.22387967709E+03  0.31432176007E+03  0.12500000000E+03 0.  0.
         25    1    1    2    0    0 -0.15527932123E+03 -0.13180591710E+03 -0.10954309080E+03  0.26288620376E+03  0.12500000000E+03 0.  0.
</event>
<event>
 5    0  0.5612316E-005  0.2713107E+03  0.7546771E-02  0.1100532E+00
         21   -1    0    0  502  501  0.00000000000E+00  0.00000000000E+00  0.23351672764E+03  0.23351672764E+03  0.00000000000E+00 0.  1.
         21   -1    0    0  501  502 -0.00000000000E+00 -0.00000000000E+00 -0.31522146264E+03  0.31522146264E+03  0.00000000000E+00 0.  1.
         25    1    1    2    0    0  0.67500655477E+02  0.66339258692E+02 -0.10411902842E+03  0.18821000987E+03  0.12500000000E+03 0.  0.
         25    1    1    2    0    0 -0.59673507706E+02 -0.20303398069E+02 -0.10579973416E+03  0.17547575115E+03  0.12500000000E+03 0.  0.
         25    1    1    2    0    0 -0.78271477706E+01 -0.46035860623E+02  0.12821402759E+03  0.18505242926E+03  0.12500000000E+03 0.  0.
</event>
<event>
 5    0  0.5612316E-005  0.3072190E+03  0.7546771E-02  0.1081687E+00
         21   -1    0    0  502  501  0.00000000000E+00  0.00000000000E+00  0.37994783587E+03  0.37994783587E+03  0.00000000000E+00 0.  1.
         21   -1    0    0  501  502 -0.00000000000E+00 -0.00000000000E+00 -0.24841180592E+03  0.24841180592E+03  0.00000000000E+00 0.  1.
         25    1    1    2    0    0 -0.11596495709E+01 -0.11645642507E+03  0.72500949313E+02  0.18559318786E+03  0.12500000000E+03 0.  0.
         25    1    1    2    0    0 -0.15777268700E+03  0.89976621810E+02  0.86810468513E+02  0.23695795129E+03  0.12500000000E+03 0.  0.
         25    1    1    2    0    0  0.15893233657E+03  0.26479803262E+02 -0.27775387878E+02  0.20580850265E+03  0.12500000000E+03 0.  0.
</event>
<event>
 5    0  0.9612360E-005  0.7536321E+03  0.7546771E-02  0.9629669E-01
         21   -1    0    0  502  501  0.00000000000E+00  0.00000000000E+00  0.35553042532E+03  0.35553042532E+03  0.00000000000E+00 0. -1.
         21   -1    0    0  501  502 -0.00000000000E+00 -0.00000000000E+00 -0.15975042909E+04  0.15975042909E+04  0.00000000000E+00 0. -1.
         25    1    1    2    0    0  0.27912981664E+03 -0.28088095365E+03 -0.70687531293E+03  0.81982026852E+03  0.12500000000E+03 0.  0.
         25    1    1    2    0    0  0.75388032507E+02  0.45623270293E+03 -0.53541342221E+03  0.71841782226E+03  0.12500000000E+03 0.  0.
         25    1    1    2    0    0 -0.35451784914E+03 -0.17535174928E+03  0.31486954078E+00  0.41479662544E+03  0.12500000000E+03 0.  0.
</event>
<event>
 5    0  0.5612316E-005  0.4611260E+03  0.7546771E-02  0.1024455E+00
         21   -1    0    0  502  501  0.00000000000E+00  0.00000000000E+00  0.11783540306E+03  0.11783540306E+03  0.00000000000E+00 0. -1.
         21   -1    0    0  501  502 -0.00000000000E+00 -0.00000000000E+00 -0.18045270630E+04  0.18045270630E+04  0.00000000000E+00 0. -1.
         25    1    1    2    0    0 -0.62438477687E+02 -0.22235130044E+03 -0.50522720194E+03  0.56940160685E+03  0.12500000000E+03 0.  0.
         25    1    1    2    0    0  0.29969266517E+03  0.42344858242E+02 -0.48435865317E+03  0.58466835512E+03  0.12500000000E+03 0.  0.
         25    1    1    2    0    0 -0.23725418748E+03  0.18000644220E+03 -0.69710580480E+03  0.76829250406E+03  0.12500000000E+03 0.  0.
</event>
<event>
 5    0  0.6008899E-005  0.3265123E+03  0.7546771E-02  0.1072691E+00
         21   -1    0    0  502  501  0.00000000000E+00  0.00000000000E+00  0.30003570207E+03  0.30003570207E+03  0.00000000000E+00 0.  1.
         21   -1    0    0  501  502 -0.00000000000E+00 -0.00000000000E+00 -0.35532534204E+03  0.35532534204E+03  0.00000000000E+00 0.  1.
         25    1    1    2    0    0  0.60014919084E+02 -0.95746793562E+02  0.12907215591E+03  0.21225894662E+03  0.12500000000E+03 0.  0.
         25    1    1    2    0    0  0.22801370645E+02  0.17688297719E+03 -0.16139342977E+03  0.27107255357E+03  0.12500000000E+03 0.  0.
         25    1    1    2    0    0 -0.82816289729E+02 -0.81136183633E+02 -0.22968366109E+02  0.17202954392E+03  0.12500000000E+03 0.  0.
</event>
<event>
 5    0  0.5612316E-005  0.2161896E+03  0.7546771E-02  0.1136756E+00
         21   -1    0    0  502  501  0.00000000000E+00  0.00000000000E+00  0.12205158800E+03  0.12205158800E+03  0.00000000000E+00 0. -1.
         21   -1    0    0  501  502 -0.00000000000E+00 -0.00000000000E+00 -0.38293589471E+03  0.38293589471E+03  0.00000000000E+00 0. -1.
         25    1    1    2    0    0  0.33931644072E+02  0.58752706667E+01  0.51004162281E+01  0.12975704035E+03  0.12500000000E+03 0.  0.
         25    1    1    2    0    0  0.74370440109E+01 -0.29493411922E+02 -0.15486405592E+03  0.20132820663E+03  0.12500000000E+03 0.  0.
         25    1    1    2    0    0 -0.41368688083E+02  0.23618141255E+02 -0.11112066702E+03  0.17390223572E+03  0.12500000000E+03 0.  0.
</event>
<event>
 5    0  0.6210017E-005  0.2708114E+03  0.7546771E-02  0.1100816E+00
         21   -1    0    0  502  501  0.00000000000E+00  0.00000000000E+00  0.39205538409E+03  0.39205538409E+03  0.00000000000E+00 0. -1.
         21   -1    0    0  501  502 -0.00000000000E+00 -0.00000000000E+00 -0.18706232245E+03  0.18706232245E+03  0.00000000000E+00 0. -1.
         25    1    1    2    0    0 -0.51677371874E+02  0.11213718323E+03  0.22066381918E+03  0.28206882090E+03  0.12500000000E+03 0.  0.
         25    1    1    2    0    0  0.44568195688E+02 -0.80375198240E+02  0.33699028493E+02  0.15876750637E+03  0.12500000000E+03 0.  0.
         25    1    1    2    0    0  0.71091761856E+01 -0.31761984994E+02 -0.49369786039E+02  0.13828137926E+03  0.12500000000E+03 0.  0.
</event>
<event>
 5    0  0.5973211E-005  0.3039139E+03  0.7546771E-02  0.1083300E+00
         21   -1    0    0  502  501  0.00000000000E+00  0.00000000000E+00  0.42767066195E+03  0.42767066195E+03  0.00000000000E+00 0. -1.
         21   -1    0    0  501  502 -0.00000000000E+00 -0.00000000000E+00 -0.21596907409E+03  0.21596907409E+03  0.00000000000E+00 0. -1.
         25    1    1    2    0    0  0.14010914073E+03 -0.40639108716E+02  0.26247132929E+03  0.32526651714E+03  0.12500000000E+03 0.  0.
         25    1    1    2    0    0 -0.11245526197E+03  0.42343636090E+02  0.15725266277E+02  0.17410184796E+03  0.12500000000E+03 0.  0.
         25    1    1    2    0    0 -0.27653878753E+02 -0.17045273746E+01 -0.66495007711E+02  0.14427137094E+03  0.12500000000E+03 0.  0.
</event>
<event>
 5    0  0.5612316E-005  0.2720602E+03  0.7546771E-02  0.1100106E+00
         21   -1    0    0  502  501  0.00000000000E+00  0.00000000000E+00  0.20062939941E+03  0.20062939941E+03  0.00000000000E+00 0. -1.
         21   -1    0    0  501  502 -0.00000000000E+00 -0.00000000000E+00 -0.36892268071E+03  0.36892268071E+03  0.00000000000E+00 0. -1.
         25    1    1    2    0    0  0.65277991816E+02  0.49784525112E+02 -0.94991009808E+02  0.17716660831E+03  0.12500000000E+03 0.  0.
         25    1    1    2    0    0 -0.77007204051E+02 -0.15713706812E+03 -0.93653717123E+01  0.21525537819E+03  0.12500000000E+03 0.  0.
         25    1    1    2    0    0  0.11729212236E+02  0.10735254301E+03 -0.63936899784E+02  0.17713009361E+03  0.12500000000E+03 0.  0.
</event>
<event>
 5    0  0.5612316E-005  0.3452583E+03  0.7546771E-02  0.1064578E+00
         21   -1    0    0  502  501  0.00000000000E+00  0.00000000000E+00  0.82162186272E+03  0.82162186272E+03  0.00000000000E+00 0.  1.
         21   -1    0    0  501  502 -0.00000000000E+00 -0.00000000000E+00 -0.14508287238E+03  0.14508287238E+03  0.00000000000E+00 0.  1.
         25    1    1    2    0    0 -0.20972700636E+03 -0.91465957666E+02  0.14953035835E+03  0.30055909016E+03  0.12500000000E+03 0.  0.
         25    1    1    2    0    0 -0.20497077878E+02 -0.11884355284E+01  0.12959106183E+03  0.18121916534E+03  0.12500000000E+03 0.  0.
         25    1    1    2    0    0  0.23022408424E+03  0.92654393194E+02  0.39741757016E+03  0.48492647960E+03  0.12500000000E+03 0.  0.
</event>
<event>
 5    0  0.5612316E-005  0.2786332E+03  0.7546771E-02  0.1096438E+00
         21   -1    0    0  502  501  0.00000000000E+00  0.00000000000E+00  0.52127792256E+03  0.52127792256E+03  0.00000000000E+00 0. -1.
         21   -1    0    0  501  502 -0.00000000000E+00 -0.00000000000E+00 -0.14893484693E+03  0.14893484693E+03  0.00000000000E+00 0. -1.
         25    1    1    2    0    0  0.46786021285E+02 -0.28252990435E+02  0.31043021165E+03  0.33908565225E+03  0.12500000000E+03 0.  0.
         25    1    1    2    0    0  0.67569914232E+02  0.54622745448E+02  0.12768976701E+02  0.15276578280E+03  0.12500000000E+03 0.  0.
         25    1    1    2    0    0 -0.11435593552E+03 -0.26369755013E+02  0.49143887277E+02  0.17836133444E+03  0.12500000000E+03 0.  0.
</event>
<event>
 5    0  0.5612316E-005  0.3201211E+03  0.7546771E-02  0.1075594E+00
         21   -1    0    0  502  501  0.00000000000E+00  0.00000000000E+00  0.38596797227E+03  0.38596797227E+03  0.00000000000E+00 0.  1.
         21   -1    0    0  501  502 -0.00000000000E+00 -0.00000000000E+00 -0.26550780245E+03  0.26550780245E+03  0.00000000000E+00 0.  1.
         25    1    1    2    0    0  0.12049516855E+03  0.10370200157E+02  0.33823710825E+02  0.17718823355E+03  0.12500000000E+03 0.  0.
         25    1    1    2    0    0  0.67079511768E+02 -0.92852144213E+02  0.14963187699E+03  0.22613243951E+03  0.12500000000E+03 0.  0.
         25    1    1    2    0    0 -0.18757468032E+03  0.82481944055E+02 -0.62995418003E+02  0.24815510166E+03  0.12500000000E+03 0.  0.
</event>
<event>
 5    0  0.5612316E-005  0.2650551E+03  0.7546771E-02  0.1104144E+00
         21   -1    0    0  502  501  0.00000000000E+00  0.00000000000E+00  0.68621280193E+03  0.68621280193E+03  0.00000000000E+00 0.  1.
         21   -1    0    0  501  502 -0.00000000000E+00 -0.00000000000E+00 -0.10237959175E+03  0.10237959175E+03  0.00000000000E+00 0.  1.
         25    1    1    2    0    0 -0.45035744643E+02  0.45171903094E+01  0.92252939925E+01  0.13326188260E+03  0.12500000000E+03 0.  0.
         25    1    1    2    0    0  0.69319992442E+02  0.62015705646E+02  0.19603025883E+03  0.25040781034E+03  0.12500000000E+03 0.  0.
         25    1    1    2    0    0 -0.24284247799E+02 -0.66532895956E+02  0.37857765736E+03  0.40492270075E+03  0.12500000000E+03 0.  0.
</event>
<event>
 5    0  0.5612316E-005  0.3133400E+03  0.7546771E-02  0.1078756E+00
         21   -1    0    0  502  501  0.00000000000E+00  0.00000000000E+00  0.31023581740E+03  0.31023581740E+03  0.00000000000E+00 0. -1.
         21   -1    0    0  501  502 -0.00000000000E+00 -0.00000000000E+00 -0.31647533821E+03  0.31647533821E+03  0.00000000000E+00 0. -1.
         25    1    1    2    0    0  0.28217470143E+02 -0.13273046308E+03  0.75446709750E+02  0.19932588257E+03  0.12500000000E+03 0.  0.
         25    1    1    2    0    0 -0.31379403042E+02 -0.34521129028E+02 -0.15641684672E+03  0.20559086853E+03  0.12500000000E+03 0.  0.
         25    1    1    2    0    0  0.31619328987E+01  0.16725159210E+03  0.74730616167E+02  0.22179440451E+03  0.12500000000E+03 0.  0.
</event>
<event>
 5    0  0.5612316E-005  0.4730486E+03  0.7546771E-02  0.1021063E+00
         21   -1    0    0  502  501  0.00000000000E+00  0.00000000000E+00  0.99644319433E+03  0.99644319433E+03  0.00000000000E+00 0.  1.
         21   -1    0    0  501  502 -0.00000000000E+00 -0.00000000000E+00 -0.22457373622E+03  0.22457373622E+03  0.00000000000E+00 0.  1.
         25    1    1    2    0    0 -0.88683345867E+02 -0.13557618822E+03  0.49000083639E+02  0.21040828606E+03  0.12500000000E+03 0.  0.
         25    1    1    2    0    0  0.19222366236E+03 -0.13940793493E+02  0.75356574125E+03  0.78780112241E+03  0.12500000000E+03 0.  0.
         25    1    1    2    0    0 -0.10354031650E+03  0.14951698171E+03 -0.30696366771E+02  0.22280752207E+03  0.12500000000E+03 0.  0.
</event>
<event>
 5    0  0.5612316E-005  0.2567854E+03  0.7546771E-02  0.1109090E+00
         21   -1    0    0  502  501  0.00000000000E+00  0.00000000000E+00  0.71203090808E+02  0.71203090808E+02  0.00000000000E+00 0. -1.
         21   -1    0    0  501  502 -0.00000000000E+00 -0.00000000000E+00 -0.92606556033E+03  0.92606556033E+03  0.00000000000E+00 0. -1.
         25    1    1    2    0    0 -0.99478014100E+02  0.13547586864E+01 -0.41187985926E+03  0.44177791833E+03  0.12500000000E+03 0.  0.
         25    1    1    2    0    0  0.11738196174E+03 -0.63658870133E+02 -0.31975958017E+03  0.36837774879E+03  0.12500000000E+03 0.  0.
         25    1    1    2    0    0 -0.17903947642E+02  0.62304111446E+02 -0.12322303008E+03  0.18711298402E+03  0.12500000000E+03 0.  0.
</event>
<event>
 5    0  0.5612316E-005  0.2368645E+03  0.7546771E-02  0.1121899E+00
         21   -1    0    0  502  501  0.00000000000E+00  0.00000000000E+00  0.21915642953E+03  0.21915642953E+03  0.00000000000E+00 0. -1.
         21   -1    0    0  501  502 -0.00000000000E+00 -0.00000000000E+00 -0.25600343144E+03  0.25600343144E+03  0.00000000000E+00 0. -1.
         25    1    1    2    0    0 -0.53962220021E+02  0.33124383101E+02  0.92156385863E+02  0.16771089828E+03  0.12500000000E+03 0.  0.
         25    1    1    2    0    0  0.18064325945E+02 -0.33129904451E+02 -0.96457394413E+01  0.13092727268E+03  0.12500000000E+03 0.  0.
         25    1    1    2    0    0  0.35897894076E+02  0.55213502236E-02 -0.11935764834E+03  0.17652169002E+03  0.12500000000E+03 0.  0.
</event>
<event>
 5    0  0.5612316E-005  0.2218453E+03  0.7546771E-02  0.1132515E+00
         21   -1    0    0  502  501  0.00000000000E+00  0.00000000000E+00  0.95532468425E+02  0.95532468425E+02  0.00000000000E+00 0.  1.
         21   -1    0    0  501  502 -0.00000000000E+00 -0.00000000000E+00 -0.51516857115E+03  0.51516857115E+03  0.00000000000E+00 0.  1.
         25    1    1    2    0    0  0.18707752663E+02 -0.48147703086E+02 -0.13376152883E+03  0.19022441462E+03  0.12500000000E+03 0.  0.
         25    1    1    2    0    0  0.11105626318E+02  0.10359911497E+03 -0.19326846352E+03  0.25265353856E+03  0.12500000000E+03 0.  0.
         25    1    1    2    0    0 -0.29813378982E+02 -0.55451411884E+02 -0.92606110372E+02  0.16782308639E+03  0.12500000000E+03 0.  0.
</event>
<event>
 5    0  0.5612316E-005  0.3064279E+03  0.7546771E-02  0.1082071E+00
         21   -1    0    0  502  501  0.00000000000E+00  0.00000000000E+00  0.17525372204E+03  0.17525372204E+03  0.00000000000E+00 0.  1.
         21   -1    0    0  501  502 -0.00000000000E+00 -0.00000000000E+00 -0.53578354696E+03  0.53578354696E+03  0.00000000000E+00 0.  1.
         25    1    1    2    0    0  0.13341926831E+03 -0.63052926263E+02 -0.32207345063E+03  0.37567629719E+03  0.12500000000E+03 0.  0.
         25    1    1    2    0    0  0.95841163963E+00  0.80519035579E+02 -0.21259344678E+02  0.15020383943E+03  0.12500000000E+03 0.  0.
         25    1    1    2    0    0 -0.13437767995E+03 -0.17466109316E+02 -0.17197029601E+02  0.18515713238E+03  0.12500000000E+03 0.  0.
</event>
<event>
 5    0  0.5612316E-005  0.2873315E+03  0.7546771E-02  0.1091751E+00
         21   -1    0    0  502  501  0.00000000000E+00  0.00000000000E+00  0.22191412967E+03  0.22191412967E+03  0.00000000000E+00 0.  1.
         21   -1    0    0  501  502 -0.00000000000E+00 -0.00000000000E+00 -0.37203299512E+03  0.37203299512E+03  0.00000000000E+00 0.  1.
         25    1    1    2    0    0 -0.11408211384E+02  0.37742398219E+02  0.77813767575E+02  0.15242906001E+03  0.12500000000E+03 0.  0.
         25    1    1    2    0    0 -0.15253265005E+02  0.70728127030E+02  0.16238507422E+02  0.14534035630E+03  0.12500000000E+03 0.  0.
         25    1    1    2    0    0  0.26661476388E+02 -0.10847052525E+03 -0.24417114045E+03  0.29617770848E+03  0.12500000000E+03 0.  0.
</event>
<event>
 5    0  0.5612316E-005  0.2720141E+03  0.7546771E-02  0.1100132E+00
         21   -1    0    0  502  501  0.00000000000E+00  0.00000000000E+00  0.63111689572E+03  0.63111689572E+03  0.00000000000E+00 0.  1.
         21   -1    0    0  501  502 -0.00000000000E+00 -0.00000000000E+00 -0.11723921894E+03  0.11723921894E+03  0.00000000000E+00 0.  1.
         25    1    1    2    0    0  0.41478954366E+02  0.89196923040E+02  0.83460879633E+02  0.17963104733E+03  0.12500000000E+03 0.  0.
         25    1    1    2    0    0 -0.54896551801E+01 -0.17550423417E+03  0.24330379890E+03  0.32504401407E+03  0.12500000000E+03 0.  0.
         25    1    1    2    0    0 -0.35989299186E+02  0.86307311125E+02  0.18711299825E+03  0.24368105327E+03  0.12500000000E+03 0.  0.
</event>
<event>
 5    0  0.5612316E-005  0.2258891E+03  0.7546771E-02  0.1129567E+00
         21   -1    0    0  502  501  0.00000000000E+00  0.00000000000E+00  0.52072587493E+03  0.52072587493E+03  0.00000000000E+00 0.  1.
         21   -1    0    0  501  502 -0.00000000000E+00 -0.00000000000E+00 -0.97989952900E+02  0.97989952900E+02  0.00000000000E+00 0.  1.
         25    1    1    2    0    0  0.20121689115E+02 -0.66285533844E+01  0.25166912642E+03  0.28179987453E+03  0.12500000000E+03 0.  0.
         25    1    1    2    0    0 -0.46729047491E+02 -0.52374259806E+02  0.12073056028E+03  0.18742341144E+03  0.12500000000E+03 0.  0.
         25    1    1    2    0    0  0.26607358376E+02  0.59002813190E+02  0.50336235325E+02  0.14949254186E+03  0.12500000000E+03 0.  0.
</event>
<event>
 5    0  0.5612316E-005  0.6116015E+03  0.7546771E-02  0.9881625E-01
         21   -1    0    0  502  501  0.00000000000E+00  0.00000000000E+00  0.58216571776E+03  0.58216571776E+03  0.00000000000E+00 0. -1.
         21   -1    0    0  501  502 -0.00000000000E+00 -0.00000000000E+00 -0.64252559240E+03  0.64252559240E+03  0.00000000000E+00 0. -1.
         25    1    1    2    0    0 -0.88609570560E+02 -0.74671894891E+02 -0.59314787498E+03  0.61715229034E+03  0.12500000000E+03 0.  0.
         25    1    1    2    0    0  0.62765010137E+02  0.69182896328E+02  0.22054014284E+03  0.27016416166E+03  0.12500000000E+03 0.  0.
         25    1    1    2    0    0  0.25844560423E+02  0.54889985624E+01  0.31224785749E+03  0.33737485816E+03  0.12500000000E+03 0.  0.
</event>
<event>
 5    0  0.5612316E-005  0.3241803E+03  0.7546771E-02  0.1073741E+00
         21   -1    0    0  502  501  0.00000000000E+00  0.00000000000E+00  0.11532968332E+03  0.11532968332E+03  0.00000000000E+00 0.  1.
         21   -1    0    0  501  502 -0.00000000000E+00 -0.00000000000E+00 -0.91123874854E+03  0.91123874854E+03  0.00000000000E+00 0.  1.
         25    1    1    2    0    0 -0.46216533979E+02 -0.27712415492E+01  0.26421975120E+02  0.13589248898E+03  0.12500000000E+03 0.  0.
         25    1    1    2    0    0  0.47804049080E+02  0.38648244168E+01 -0.12816107020E+03  0.18533867349E+03  0.12500000000E+03 0.  0.
         25    1    1    2    0    0 -0.15875151010E+01 -0.10935828676E+01 -0.69416997015E+03  0.70533726939E+03  0.12500000000E+03 0.  0.
</event>
<event>
 5    0  0.5612316E-005  0.2525017E+03  0.7546771E-02  0.1111734E+00
         21   -1    0    0  502  501  0.00000000000E+00  0.00000000000E+00  0.11924360407E+04  0.11924360407E+04  0.00000000000E+00 0.  1.
         21   -1    0    0  501  502 -0.00000000000E+00 -0.00000000000E+00 -0.53467945556E+02  0.53467945556E+02  0.00000000000E+00 0.  1.
         25    1    1    2    0    0 -0.39181862625E+02  0.38097472922E+02  0.33644463519E+03  0.36305182599E+03  0.12500000000E+03 0.  0.
         25    1    1    2    0    0  0.94082289621E+02 -0.12975658128E+03  0.45972021847E+03  0.50264891015E+03  0.12500000000E+03 0.  0.
         25    1    1    2    0    0 -0.54900426996E+02  0.91659108355E+02  0.34280324145E+03  0.38020325008E+03  0.12500000000E+03 0.  0.
</event>
<event>
 5    0  0.5612316E-005  0.4479285E+03  0.7546771E-02  0.1028342E+00
         21   -1    0    0  502  501  0.00000000000E+00  0.00000000000E+00  0.14099643161E+04  0.14099643161E+04  0.00000000000E+00 0.  1.
         21   -1    0    0  501  502 -0.00000000000E+00 -0.00000000000E+00 -0.14230144911E+03  0.14230144911E+03  0.00000000000E+00 0.  1.
         25    1    1    2    0    0 -0.10041341420E+03  0.11708087744E+03  0.54147980116E+03  0.57672884502E+03  0.12500000000E+03 0.  0.
         25    1    1    2    0    0 -0.15206511580E+03  0.15984484006E+03  0.24054268250E+03  0.34951388305E+03  0.12500000000E+03 0.  0.
         25    1    1    2    0    0  0.25247853001E+03 -0.27692571750E+03  0.48564038336E+03  0.62602303718E+03  0.12500000000E+03 0.  0.
</event>
<event>
 5    0  0.5612316E-005  0.1950184E+03  0.7546771E-02  0.1154011E+00
         21   -1    0    0  502  501  0.00000000000E+00  0.00000000000E+00  0.12643151143E+04  0.12643151143E+04  0.00000000000E+00 0. -1.
         21   -1    0    0  501  502 -0.00000000000E+00 -0.00000000000E+00 -0.30081255657E+02  0.30081255657E+02  0.00000000000E+00 0. -1.
         25    1    1    2    0    0 -0.11343743486E+02  0.32808279140E+01  0.32489102437E+03  0.34830822853E+03  0.12500000000E+03 0.  0.
         25    1    1    2    0    0 -0.12695663871E+01  0.21715420155E+02  0.35066753710E+03  0.37291539636E+03  0.12500000000E+03 0.  0.
         25    1    1    2    0    0  0.12613309873E+02 -0.24996248069E+02  0.55867529715E+03  0.57317274503E+03  0.12500000000E+03 0.  0.
</event>
<event>
 5    0  0.5612316E-005  0.2662644E+03  0.7546771E-02  0.1103437E+00
         21   -1    0    0  502  501  0.00000000000E+00  0.00000000000E+00  0.20342556210E+03  0.20342556210E+03  0.00000000000E+00 0.  1.
         21   -1    0    0  501  502 -0.00000000000E+00 -0.00000000000E+00 -0.34851428512E+03  0.34851428512E+03  0.00000000000E+00 0.  1.
         25    1    1    2    0    0  0.45600760906E+02  0.39287389358E+02 -0.56357615123E+02  0.14974681679E+03  0.12500000000E+03 0.  0.
         25    1    1    2    0    0  0.74735170927E+02  0.90281781154E+02 -0.95363343496E+01  0.17161610488E+03  0.12500000000E+03 0.  0.
         25    1    1    2    0    0 -0.12033593183E+03 -0.12956917051E+03 -0.79194773548E+02  0.23057692555E+03  0.12500000000E+03 0.  0.
</event>
<event>
 5    0  0.5612316E-005  0.2387718E+03  0.7546771E-02  0.1120614E+00
         21   -1    0    0  502  501  0.00000000000E+00  0.00000000000E+00  0.28309263512E+03  0.28309263512E+03  0.00000000000E+00 0. -1.
         21   -1    0    0  501  502 -0.00000000000E+00 -0.00000000000E+00 -0.20138988192E+03  0.20138988192E+03  0.00000000000E+00 0. -1.
         25    1    1    2    0    0  0.82504022850E+02  0.94837231978E+02 -0.12702381487E+01  0.17727839084E+03  0.12500000000E+03 0.  0.
         25    1    1    2    0    0 -0.16753373910E+02 -0.24657854321E+02 -0.10411063026E+01  0.12850980204E+03  0.12500000000E+03 0.  0.
         25    1    1    2    0    0 -0.65750648940E+02 -0.70179377656E+02  0.84014097652E+02  0.17869432416E+03  0.12500000000E+03 0.  0.
</event>
<event>
 5    0  0.5612316E-005  0.2390304E+03  0.7546771E-02  0.1120440E+00
         21   -1    0    0  502  501  0.00000000000E+00  0.00000000000E+00  0.96254921006E+03  0.96254921006E+03  0.00000000000E+00 0.  1.
         21   -1    0    0  501  502 -0.00000000000E+00 -0.00000000000E+00 -0.59358560642E+02  0.59358560642E+02  0.00000000000E+00 0.  1.
         25    1    1    2    0    0  0.14677146225E+02  0.92133531755E+02  0.23555017148E+03  0.28251175122E+03  0.12500000000E+03 0.  0.
         25    1    1    2    0    0  0.40941517795E+02 -0.88681983012E+02  0.49068821968E+03  0.51569431927E+03  0.12500000000E+03 0.  0.
         25    1    1    2    0    0 -0.55618664020E+02 -0.34515487429E+01  0.17695225826E+03  0.22370170021E+03  0.12500000000E+03 0.  0.
</event>
<event>
 5    0  0.5612316E-005  0.2808475E+03  0.7546771E-02  0.1095227E+00
         21   -1    0    0  502  501  0.00000000000E+00  0.00000000000E+00  0.10679590901E+04  0.10679590901E+04  0.00000000000E+00 0.  1.
         21   -1    0    0  501  502 -0.00000000000E+00 -0.00000000000E+00 -0.73856115897E+02  0.73856115897E+02  0.00000000000E+00 0.  1.
         25    1    1    2    0    0 -0.30566056031E+02 -0.11734093422E+03  0.33838118811E+03  0.38056537821E+03  0.12500000000E+03 0.  0.
         25    1    1    2    0    0 -0.55093945766E+02 -0.63319524232E+02  0.27095546276E+03  0.30997833442E+03  0.12500000000E+03 0.  0.
         25    1    1    2    0    0  0.85660001797E+02  0.18066045846E+03  0.38476632334E+03  0.45127149338E+03  0.12500000000E+03 0.  0.
</event>
<event>
 5    0  0.5612316E-005  0.3287941E+03  0.7546771E-02  0.1071672E+00
         21   -1    0    0  502  501  0.00000000000E+00  0.00000000000E+00  0.20225004234E+03  0.20225004234E+03  0.00000000000E+00 0.  1.
         21   -1    0    0  501  502 -0.00000000000E+00 -0.00000000000E+00 -0.53451426759E+03  0.53451426759E+03  0.00000000000E+00 0.  1.
         25    1    1    2    0    0  0.35698772531E+01  0.23677285588E+03 -0.76751733392E+02  0.27854974042E+03  0.12500000000E+03 0.  0.
         25    1    1    2    0    0  0.17712107805E+02 -0.20686038908E+03 -0.20856906905E+03  0.31973582204E+03  0.12500000000E+03 0.  0.
         25    1    1    2    0    0 -0.21281985059E+02 -0.29912466804E+02 -0.46943422805E+02  0.13847874748E+03  0.12500000000E+03 0.  0.
</event>
<event>
 5    0  0.5612316E-005  0.5713446E+03  0.7546771E-02  0.9966708E-01
         21   -1    0    0  502  501  0.00000000000E+00  0.00000000000E+00  0.67263589847E+03  0.67263589847E+03  0.00000000000E+00 0. -1.
         21   -1    0    0  501  502 -0.00000000000E+00 -0.00000000000E+00 -0.48530655968E+03  0.48530655968E+03  0.00000000000E+00 0. -1.
         25    1    1    2    0    0 -0.10797553117E+03  0.93546475453E+02 -0.92458984261E+02  0.21114763122E+03  0.12500000000E+03 0.  0.
         25    1    1    2    0    0  0.23024268740E+03  0.34418856871E+03  0.15098339171E+03  0.45814675651E+03  0.12500000000E+03 0.  0.
         25    1    1    2    0    0 -0.12226715623E+03 -0.43773504416E+03  0.12880493135E+03  0.48864807041E+03  0.12500000000E+03 0.  0.
</event>
<event>
 5    0  0.5612316E-005  0.2895716E+03  0.7546771E-02  0.1090573E+00
         21   -1    0    0  502  501  0.00000000000E+00  0.00000000000E+00  0.69540916026E+02  0.69540916026E+02  0.00000000000E+00 0. -1.
         21   -1    0    0  501  502 -0.00000000000E+00 -0.00000000000E+00 -0.12057895655E+04  0.12057895655E+04  0.00000000000E+00 0. -1.
         25    1    1    2    0    0  0.17010129144E+03  0.15734956367E+02 -0.30370272090E+03  0.37019235659E+03  0.12500000000E+03 0.  0.
         25    1    1    2    0    0 -0.47066489173E+02 -0.43979286945E+02 -0.17762660319E+03  0.22655163262E+03  0.12500000000E+03 0.  0.
         25    1    1    2    0    0 -0.12303480227E+03  0.28244330578E+02 -0.65491932543E+03  0.67858649235E+03  0.12500000000E+03 0.  0.
</event>
<event>
 5    0  0.5612316E-005  0.2396144E+03  0.7546771E-02  0.1120050E+00
         21   -1    0    0  502  501  0.00000000000E+00  0.00000000000E+00  0.17295594209E+04  0.17295594209E+04  0.00000000000E+00 0.  1.
         21   -1    0    0  501  502 -0.00000000000E+00 -0.00000000000E+00 -0.33196353093E+02  0.33196353093E+02  0.00000000000E+00 0.  1.
         25    1    1    2    0    0  0.79638621322E+02 -0.33457490729E+02  0.45624506541E+03  0.48088072679E+03  0.12500000000E+03 0.  0.
         25    1    1    2    0    0  0.12869897006E+01  0.92237582653E+02  0.46077547097E+03  0.48625966586E+03  0.12500000000E+03 0.  0.
         25    1    1    2    0    0 -0.80925611022E+02 -0.58780091924E+02  0.77934253138E+03  0.79561538129E+03  0.12500000000E+03 0.  0.
</event>
<event>
 5    0  0.5612316E-005  0.2715881E+03  0.7546771E-02  0.1100374E+00
         21   -1    0    0  502  501  0.00000000000E+00  0.00000000000E+00  0.15238787911E+03  0.15238787911E+03  0.00000000000E+00 0. -1.
         21   -1    0    0  501  502 -0.00000000000E+00 -0.00000000000E+00 -0.48402872912E+03  0.48402872912E+03  0.00000000000E+00 0. -1.
         25    1    1    2    0    0 -0.70966125793E+02  0.11395277082E+03 -0.15607591186E+02  0.18409242757E+03  0.12500000000E+03 0.  0.
         25    1    1    2    0    0  0.79372896358E+02 -0.42741546195E+02 -0.25028043240E+03  0.29392548595E+03  0.12500000000E+03 0.  0.
         25    1    1    2    0    0 -0.84067705650E+01 -0.71211224622E+02 -0.65752826428E+02  0.15839869471E+03  0.12500000000E+03 0.  0.
</event>
<event>
 5    0  0.5612316E-005  0.4239704E+03  0.7546771E-02  0.1035782E+00
         21   -1    0    0  502  501  0.00000000000E+00  0.00000000000E+00  0.21333252087E+04  0.21333252087E+04  0.00000000000E+00 0.  1.
         21   -1    0    0  501  502 -0.00000000000E+00 -0.00000000000E+00 -0.84258568966E+02  0.84258568966E+02  0.00000000000E+00 0.  1.
         25    1    1    2    0    0 -0.13570177456E+03  0.22898987508E+03  0.11975635900E+04  0.12331402543E+04  0.12500000000E+03 0.  0.
         25    1    1    2    0    0  0.13439298581E+03 -0.25768015221E+03  0.77006051325E+03  0.83251350112E+03  0.12500000000E+03 0.  0.
         25    1    1    2    0    0  0.13087887545E+01  0.28690277132E+02  0.81442536463E+02  0.15193002230E+03  0.12500000000E+03 0.  0.
</event>
<event>
 5    0  0.5612316E-005  0.2602056E+03  0.7546771E-02  0.1107020E+00
         21   -1    0    0  502  501  0.00000000000E+00  0.00000000000E+00  0.36740345271E+03  0.36740345271E+03  0.00000000000E+00 0.  1.
         21   -1    0    0  501  502 -0.00000000000E+00 -0.00000000000E+00 -0.18428499320E+03  0.18428499320E+03  0.00000000000E+00 0.  1.
         25    1    1    2    0    0  0.59816363004E+02 -0.53855633209E+02 -0.13594154995E+02  0.14929242299E+03  0.12500000000E+03 0.  0.
         25    1    1    2    0    0  0.56651172551E+02 -0.94163128834E+00  0.14943903554E+01  0.13724968205E+03  0.12500000000E+03 0.  0.
         25    1    1    2    0    0 -0.11646753555E+03  0.54797264497E+02  0.19521822415E+03  0.26514634087E+03  0.12500000000E+03 0.  0.
</event>
<event>
 5    0  0.5612316E-005  0.2142290E+03  0.7546771E-02  0.1138260E+00
         21   -1    0    0  502  501  0.00000000000E+00  0.00000000000E+00  0.61731754899E+02  0.61731754899E+02  0.00000000000E+00 0.  1.
         21   -1    0    0  501  502 -0.00000000000E+00 -0.00000000000E+00 -0.74344359372E+03  0.74344359372E+03  0.00000000000E+00 0.  1.
         25    1    1    2    0    0  0.73056117034E+02 -0.27512484001E+02 -0.25152689524E+03  0.29152171796E+03  0.12500000000E+03 0.  0.
         25    1    1    2    0    0 -0.57178944393E+01  0.53750272902E+02 -0.20178814581E+03  0.24344453566E+03  0.12500000000E+03 0.  0.
         25    1    1    2    0    0 -0.67338222595E+02 -0.26237788900E+02 -0.22839679777E+03  0.27020909500E+03  0.12500000000E+03 0.  0.
</event>
<event>
 5    0  0.5612316E-005  0.2394202E+03  0.7546771E-02  0.1120180E+00
         21   -1    0    0  502  501  0.00000000000E+00  0.00000000000E+00  0.12594970551E+03  0.12594970551E+03  0.00000000000E+00 0.  1.
         21   -1    0    0  501  502 -0.00000000000E+00 -0.00000000000E+00 -0.45511850038E+03  0.45511850038E+03  0.00000000000E+00 0.  1.
         25    1    1    2    0    0 -0.77611734622E+02 -0.37169399068E+00 -0.16479841500E+03  0.22092360013E+03  0.12500000000E+03 0.  0.
         25    1    1    2    0    0 -0.44709455210E+02 -0.10876371182E+02 -0.12018467495E+03  0.17940620649E+03  0.12500000000E+03 0.  0.
         25    1    1    2    0    0  0.12232118983E+03  0.11248065172E+02 -0.44185704917E+02  0.18073839927E+03  0.12500000000E+03 0.  0.
</event>
<event>
 5    0  0.5612316E-005  0.4294938E+03  0.7546771E-02  0.1034020E+00
         21   -1    0    0  502  501  0.00000000000E+00  0.00000000000E+00  0.64881499445E+03  0.64881499445E+03  0.00000000000E+00 0.  1.
         21   -1    0    0  501  502 -0.00000000000E+00 -0.00000000000E+00 -0.28431056432E+03  0.28431056432E+03  0.00000000000E+00 0.  1.
         25    1    1    2    0    0  0.24287255694E+02  0.16868378619E+03  0.48762081649E+03  0.53145380908E+03  0.12500000000E+03 0.  0.
         25    1    1    2    0    0 -0.80104668936E+02 -0.19267052498E+03 -0.73486022714E+02  0.25409424377E+03  0.12500000000E+03 0.  0.
         25    1    1    2    0    0  0.55817413242E+02  0.23986738796E+02 -0.49630363640E+02  0.14757750592E+03  0.12500000000E+03 0.  0.
</event>
<event>
 5    0  0.5612316E-005  0.5273605E+03  0.7546771E-02  0.1006874E+00
         21   -1    0    0  502  501  0.00000000000E+00  0.00000000000E+00  0.15602626226E+03  0.15602626226E+03  0.00000000000E+00 0.  1.
         21   -1    0    0  501  502 -0.00000000000E+00 -0.00000000000E+00 -0.17824503561E+04  0.17824503561E+04  0.00000000000E+00 0.  1.
         25    1    1    2    0    0 -0.54398670903E+02  0.60727395089E+02 -0.13580975943E+04  0.13662727061E+04  0.12500000000E+03 0.  0.
         25    1    1    2    0    0  0.12093368263E+03  0.14204209050E+03 -0.23086412889E+03  0.32206234968E+03  0.12500000000E+03 0.  0.
         25    1    1    2    0    0 -0.66535011730E+02 -0.20276948559E+03 -0.37462370607E+02  0.25014156249E+03  0.12500000000E+03 0.  0.
</event>
<event>
 5    0  0.5612316E-005  0.2395704E+03  0.7546771E-02  0.1120079E+00
         21   -1    0    0  502  501  0.00000000000E+00  0.00000000000E+00  0.98712891959E+02  0.98712891959E+02  0.00000000000E+00 0.  1.
         21   -1    0    0  501  502 -0.00000000000E+00 -0.00000000000E+00 -0.58142353875E+03  0.58142353875E+03  0.00000000000E+00 0.  1.
         25    1    1    2    0    0 -0.31825934053E+02  0.62261037514E+02 -0.23590931297E+03  0.27598465685E+03  0.12500000000E+03 0.  0.
         25    1    1    2    0    0  0.63939773847E+02 -0.91491768255E+01 -0.26213676208E+02  0.14312288055E+03  0.12500000000E+03 0.  0.
         25    1    1    2    0    0 -0.32113839793E+02 -0.53111860689E+02 -0.22058765761E+03  0.26102889331E+03  0.12500000000E+03 0.  0.
</event>
<event>
 5    0  0.5612316E-005  0.3925195E+03  0.7546771E-02  0.1046401E+00
         21   -1    0    0  502  501  0.00000000000E+00  0.00000000000E+00  0.73769199895E+03  0.73769199895E+03  0.00000000000E+00 0.  1.
         21   -1    0    0  501  502 -0.00000000000E+00 -0.00000000000E+00 -0.20885619407E+03  0.20885619407E+03  0.00000000000E+00 0.  1.
         25    1    1    2    0    0 -0.46214894135E+02  0.24990048414E+02  0.12529957317E+03  0.18462205176E+03  0.12500000000E+03 0.  0.
         25    1    1    2    0    0  0.11771634510E+03 -0.12783481935E+02  0.53778295315E+03  0.56467341004E+03  0.12500000000E+03 0.  0.
         25    1    1    2    0    0 -0.71501450964E+02 -0.12206566479E+02 -0.13424672144E+03  0.19725273122E+03  0.12500000000E+03 0.  0.
</event>
<event>
 5    0  0.5612316E-005  0.2729515E+03  0.7546771E-02  0.1099602E+00
         21   -1    0    0  502  501  0.00000000000E+00  0.00000000000E+00  0.48218370307E+03  0.48218370307E+03  0.00000000000E+00 0.  1.
         21   -1    0    0  501  502 -0.00000000000E+00 -0.00000000000E+00 -0.15451067109E+03  0.15451067109E+03  0.00000000000E+00 0.  1.
         25    1    1    2    0    0  0.12976919480E+03  0.81145566383E+01  0.13368411311E+03  0.22450463702E+03  0.12500000000E+03 0.  0.
         25    1    1    2    0    0 -0.98112012729E+02 -0.17555606941E+02  0.22803151077E+03  0.27849153718E+03  0.12500000000E+03 0.  0.
         25    1    1    2    0    0 -0.31657182067E+02  0.94410503025E+01 -0.34042591900E+02  0.13369819995E+03  0.12500000000E+03 0.  0.
</event>
<event>
 5    0  0.5612316E-005  0.5449033E+03  0.7546771E-02  0.1002681E+00
         21   -1    0    0  502  501  0.00000000000E+00  0.00000000000E+00  0.80387695198E+03  0.80387695198E+03  0.00000000000E+00 0.  1.
         21   -1    0    0  501  502 -0.00000000000E+00 -0.00000000000E+00 -0.36935946334E+03  0.36935946334E+03  0.00000000000E+00 0.  1.
         25    1    1    2    0    0  0.42438008658E+03  0.49417386646E+02  0.50328851069E+03  0.67191134905E+03  0.12500000000E+03 0.  0.
         25    1    1    2    0    0 -0.22112474351E+03 -0.76551627384E+01 -0.27801552672E+02  0.25564170247E+03  0.12500000000E+03 0.  0.
         25    1    1    2    0    0 -0.20325534307E+03 -0.41762223907E+02 -0.40969469376E+02  0.24568336381E+03  0.12500000000E+03 0.  0.
</event>
<event>
 5    0  0.5612316E-005  0.2624164E+03  0.7546771E-02  0.1105700E+00
         21   -1    0    0  502  501  0.00000000000E+00  0.00000000000E+00  0.80589902408E+02  0.80589902408E+02  0.00000000000E+00 0. -1.
         21   -1    0    0  501  502 -0.00000000000E+00 -0.00000000000E+00 -0.85447872281E+03  0.85447872281E+03  0.00000000000E+00 0. -1.
         25    1    1    2    0    0 -0.14786182936E+03 -0.64554327945E+02 -0.35014836562E+03  0.40528910642E+03  0.12500000000E+03 0.  0.
         25    1    1    2    0    0  0.35383360014E+02  0.12346612416E+02 -0.11300211486E+03  0.17262357593E+03  0.12500000000E+03 0.  0.
         25    1    1    2    0    0  0.11247846934E+03  0.52207715529E+02 -0.31073833993E+03  0.35715594287E+03  0.12500000000E+03 0.  0.
</event>
<event>
 5    0  0.5612316E-005  0.3239385E+03  0.7546771E-02  0.1073851E+00
         21   -1    0    0  502  501  0.00000000000E+00  0.00000000000E+00  0.34020286763E+03  0.34020286763E+03  0.00000000000E+00 0. -1.
         21   -1    0    0  501  502 -0.00000000000E+00 -0.00000000000E+00 -0.30845176402E+03  0.30845176402E+03  0.00000000000E+00 0. -1.
         25    1    1    2    0    0 -0.86501488877E+02 -0.79811645223E+02 -0.14690572737E+03  0.22596172027E+03  0.12500000000E+03 0.  0.
         25    1    1    2    0    0  0.11355515476E+03  0.49755982405E+02  0.22292084787E+03  0.28405833093E+03  0.12500000000E+03 0.  0.
         25    1    1    2    0    0 -0.27053665881E+02  0.30055662818E+02 -0.44264016887E+02  0.13863458045E+03  0.12500000000E+03 0.  0.
</event>
<event>
 5    0  0.5612316E-005  0.3386310E+03  0.7546771E-02  0.1067381E+00
         21   -1    0    0  502  501  0.00000000000E+00  0.00000000000E+00  0.35367451377E+03  0.35367451377E+03  0.00000000000E+00 0. -1.
         21   -1    0    0  501  502 -0.00000000000E+00 -0.00000000000E+00 -0.32422730794E+03  0.32422730794E+03  0.00000000000E+00 0. -1.
         25    1    1    2    0    0  0.22148322446E+03 -0.82428740337E+02 -0.15008207704E+01  0.26735102097E+03  0.12500000000E+03 0.  0.
         25    1    1    2    0    0 -0.11156821361E+03  0.57506389579E+00 -0.88937897562E+02  0.18969118748E+03  0.12500000000E+03 0.  0.
         25    1    1    2    0    0 -0.10991501085E+03  0.81853676442E+02  0.11988592417E+03  0.22085961326E+03  0.12500000000E+03 0.  0.
</event>
<event>
 5    0  0.5612316E-005  0.3152565E+03  0.7546771E-02  0.1077853E+00
         21   -1    0    0  502  501  0.00000000000E+00  0.00000000000E+00  0.10096380096E+04  0.10096380096E+04  0.00000000000E+00 0. -1.
         21   -1    0    0  501  502 -0.00000000000E+00 -0.00000000000E+00 -0.98437891475E+02  0.98437891475E+02  0.00000000000E+00 0. -1.
         25    1    1    2    0    0  0.56389239371E+02 -0.85679951635E+02  0.55995112425E+03  0.58283021711E+03  0.12500000000E+03 0.  0.
         25    1    1    2    0    0 -0.13506534815E+03 -0.16686538821E+02  0.27202607313E+03  0.32885296610E+03  0.12500000000E+03 0.  0.
         25    1    1    2    0    0  0.78676108782E+02  0.10236649046E+03  0.79222920753E+02  0.19639271787E+03  0.12500000000E+03 0.  0.
</event>
<event>
 5    0  0.5612316E-005  0.3404940E+03  0.7546771E-02  0.1066586E+00
         21   -1    0    0  502  501  0.00000000000E+00  0.00000000000E+00  0.16471785815E+04  0.16471785815E+04  0.00000000000E+00 0.  1.
         21   -1    0    0  501  502 -0.00000000000E+00 -0.00000000000E+00 -0.70384701332E+02  0.70384701332E+02  0.00000000000E+00 0.  1.
         25    1    1    2    0    0  0.93393456448E+02 -0.17420592875E+03  0.10561992836E+04  0.10817818495E+04  0.12500000000E+03 0.  0.
         25    1    1    2    0    0 -0.83410104072E+02  0.18522004819E+03  0.32360356760E+03  0.40200495106E+03  0.12500000000E+03 0.  0.
         25    1    1    2    0    0 -0.99833523759E+01 -0.11014119434E+02  0.19699102898E+03  0.23377648224E+03  0.12500000000E+03 0.  0.
</event>
<event>
 5    0  0.5612316E-005  0.5311428E+03  0.7546771E-02  0.1005955E+00
         21   -1    0    0  502  501  0.00000000000E+00  0.00000000000E+00  0.16185690639E+03  0.16185690639E+03  0.00000000000E+00 0.  1.
         21   -1    0    0  501  502 -0.00000000000E+00 -0.00000000000E+00 -0.17429759767E+04  0.17429759767E+04  0.00000000000E+00 0.  1.
         25    1    1    2    0    0  0.18774776754E+03  0.12430892658E+03 -0.26891312747E+02  0.25894029456E+03  0.12500000000E+03 0.  0.
         25    1    1    2    0    0  0.46935561116E+02  0.13243308051E+02 -0.11764307520E+03  0.17844670142E+03  0.12500000000E+03 0.  0.
         25    1    1    2    0    0 -0.23468332866E+03 -0.13755223463E+03 -0.14365846824E+04  0.14674458871E+04  0.12500000000E+03 0.  0.
</event>
<event>
 5    0  0.5612316E-005  0.3395723E+03  0.7546771E-02  0.1066978E+00
         21   -1    0    0  502  501  0.00000000000E+00  0.00000000000E+00  0.13372850395E+04  0.13372850395E+04  0.00000000000E+00 0.  1.
         21   -1    0    0  501  502 -0.00000000000E+00 -0.00000000000E+00 -0.86226477909E+02  0.86226477909E+02  0.00000000000E+00 0.  1.
         25    1    1    2    0    0  0.19943694214E+03  0.38100842752E+02  0.44392092934E+03  0.50390233143E+03  0.12500000000E+03 0.  0.
         25    1    1    2    0    0 -0.21630691590E+03 -0.12455719517E+01  0.27522148869E+03  0.37170162921E+03  0.12500000000E+03 0.  0.
         25    1    1    2    0    0  0.16869973766E+02 -0.36855270801E+02  0.53191614360E+03  0.54790755682E+03  0.12500000000E+03 0.  0.
</event>
<event>
 5    0  0.5612316E-005  0.3706471E+03  0.7546771E-02  0.1054446E+00
         21   -1    0    0  502  501  0.00000000000E+00  0.00000000000E+00  0.48063350967E+03  0.48063350967E+03  0.00000000000E+00 0. -1.
         21   -1    0    0  501  502 -0.00000000000E+00 -0.00000000000E+00 -0.28582959842E+03  0.28582959842E+03  0.00000000000E+00 0. -1.
         25    1    1    2    0    0 -0.23176026673E+02  0.21708621568E+03 -0.11013826257E+03  0.27462518117E+03  0.12500000000E+03 0.  0.
         25    1    1    2    0    0  0.89811093919E+02 -0.16811681804E+03  0.23169957912E+03  0.32502152554E+03  0.12500000000E+03 0.  0.
         25    1    1    2    0    0 -0.66635067245E+02 -0.48969397635E+02  0.73242594698E+02  0.16681640138E+03  0.12500000000E+03 0.  0.
</event>
<event>
 5    0  0.5612316E-005  0.3262663E+03  0.7546771E-02  0.1072801E+00
         21   -1    0    0  502  501  0.00000000000E+00  0.00000000000E+00  0.24871618360E+03  0.24871618360E+03  0.00000000000E+00 0. -1.
         21   -1    0    0  501  502 -0.00000000000E+00 -0.00000000000E+00 -0.42799663228E+03  0.42799663228E+03  0.00000000000E+00 0. -1.
         25    1    1    2    0    0  0.19473637500E+03 -0.31410008254E+02 -0.96696170042E+02  0.25275283118E+03  0.12500000000E+03 0.  0.
         25    1    1    2    0    0 -0.23846916284E+03 -0.14013773731E+01 -0.98284802286E+02  0.28662590226E+03  0.12500000000E+03 0.  0.
         25    1    1    2    0    0  0.43732787842E+02  0.32811385627E+02  0.15700523642E+02  0.13733408245E+03  0.12500000000E+03 0.  0.
</event>
<event>
 5    0  0.5612316E-005  0.3306929E+03  0.7546771E-02  0.1070831E+00
         21   -1    0    0  502  501  0.00000000000E+00  0.00000000000E+00  0.35838479066E+03  0.35838479066E+03  0.00000000000E+00 0. -1.
         21   -1    0    0  501  502 -0.00000000000E+00 -0.00000000000E+00 -0.30514065404E+03  0.30514065404E+03  0.00000000000E+00 0. -1.
         25    1    1    2    0    0  0.13382455712E+03 -0.17526312128E+03 -0.41563485918E+01  0.25351222654E+03  0.12500000000E+03 0.  0.
         25    1    1    2    0    0 -0.56150550069E+02 -0.38079314227E+02 -0.88558278362E+01  0.14250033029E+03  0.12500000000E+03 0.  0.
         25    1    1    2    0    0 -0.77674007053E+02  0.21334243551E+03  0.66256313045E+02  0.26751288788E+03  0.12500000000E+03 0.  0.
</event>
<event>
 5    0  0.5612316E-005  0.3091457E+03  0.7546771E-02  0.1080756E+00
         21   -1    0    0  502  501  0.00000000000E+00  0.00000000000E+00  0.35618311267E+03  0.35618311267E+03  0.00000000000E+00 0. -1.
         21   -1    0    0  501  502 -0.00000000000E+00 -0.00000000000E+00 -0.26832006286E+03  0.26832006286E+03  0.00000000000E+00 0. -1.
         25    1    1    2    0    0  0.10614834287E+03  0.98822904706E+00 -0.25713146891E+02  0.16599582288E+03  0.12500000000E+03 0.  0.
         25    1    1    2    0    0 -0.65556824114E+02  0.17477500673E+03  0.62280191115E+02  0.23312619409E+03  0.12500000000E+03 0.  0.
         25    1    1    2    0    0 -0.40591518755E+02 -0.17576323578E+03  0.51296005586E+02  0.22538115856E+03  0.12500000000E+03 0.  0.
</event>
<event>
 5    0  0.5612316E-005  0.2244386E+03  0.7546771E-02  0.1130616E+00
         21   -1    0    0  502  501  0.00000000000E+00  0.00000000000E+00  0.95301478607E+02  0.95301478607E+02  0.00000000000E+00 0.  1.
         21   -1    0    0  501  502 -0.00000000000E+00 -0.00000000000E+00 -0.52856162469E+03  0.52856162469E+03  0.00000000000E+00 0.  1.
         25    1    1    2    0    0  0.73168656050E+02 -0.24918894166E+02 -0.21919225795E+03  0.26390310619E+03  0.12500000000E+03 0.  0.
         25    1    1    2    0    0 -0.40904243407E+02  0.68468632153E+02 -0.78566331173E+02  0.16780577794E+03  0.12500000000E+03 0.  0.
         25    1    1    2    0    0 -0.32264412644E+02 -0.43549737987E+02 -0.13550155697E+03  0.19215421916E+03  0.12500000000E+03 0.  0.
</event>
<event>
 5    0  0.5612316E-005  0.3140152E+03  0.7546771E-02  0.1078437E+00
         21   -1    0    0  502  501  0.00000000000E+00  0.00000000000E+00  0.18844459775E+04  0.18844459775E+04  0.00000000000E+00 0.  1.
         21   -1    0    0  501  502 -0.00000000000E+00 -0.00000000000E+00 -0.52326000908E+02  0.52326000908E+02  0.00000000000E+00 0.  1.
         25    1    1    2    0    0  0.12226005847E+03 -0.13649869277E+03  0.11469028401E+04  0.11681568986E+04  0.12500000000E+03 0.  0.
         25    1    1    2    0    0 -0.11596971441E+03  0.15677806674E+02  0.28949010328E+03  0.33633954299E+03  0.12500000000E+03 0.  0.
         25    1    1    2    0    0 -0.62903440630E+01  0.12082088610E+03  0.39572703315E+03  0.43227553680E+03  0.12500000000E+03 0.  0.
</event>
<event>
 5    0  0.5612316E-005  0.4406178E+03  0.7546771E-02  0.1030557E+00
         21   -1    0    0  502  501  0.00000000000E+00  0.00000000000E+00  0.13026799505E+04  0.13026799505E+04  0.00000000000E+00 0.  1.
         21   -1    0    0  501  502 -0.00000000000E+00 -0.00000000000E+00 -0.14903433169E+03  0.14903433169E+03  0.00000000000E+00 0.  1.
         25    1    1    2    0    0  0.30072779825E+03 -0.16650915317E+03  0.45719686837E+03  0.58550532293E+03  0.12500000000E+03 0.  0.
         25    1    1    2    0    0 -0.19311784683E+03  0.20373470257E+03  0.59326377129E+03  0.66812366679E+03  0.12500000000E+03 0.  0.
         25    1    1    2    0    0 -0.10760995142E+03 -0.37225549393E+02  0.10318497914E+03  0.19808529247E+03  0.12500000000E+03 0.  0.
</event>
<event>
 5    0  0.5612316E-005  0.3667200E+03  0.7546771E-02  0.1055954E+00
         21   -1    0    0  502  501  0.00000000000E+00  0.00000000000E+00  0.22078596914E+03  0.22078596914E+03  0.00000000000E+00 0. -1.
         21   -1    0    0  501  502 -0.00000000000E+00 -0.00000000000E+00 -0.60911288019E+03  0.60911288019E+03  0.00000000000E+00 0. -1.
         25    1    1    2    0    0 -0.14221193332E+03  0.21751341673E+03 -0.16040789516E+03  0.32998789866E+03  0.12500000000E+03 0.  0.
         25    1    1    2    0    0  0.16354168774E+03 -0.11583123782E+03 -0.21488145566E+02  0.23716976975E+03  0.12500000000E+03 0.  0.
         25    1    1    2    0    0 -0.21329754417E+02 -0.10168217891E+03 -0.20643087032E+03  0.26274118092E+03  0.12500000000E+03 0.  0.
</event>
<event>
 5    0  0.5612316E-005  0.3332126E+03  0.7546771E-02  0.1069724E+00
         21   -1    0    0  502  501  0.00000000000E+00  0.00000000000E+00  0.12599408842E+03  0.12599408842E+03  0.00000000000E+00 0. -1.
         21   -1    0    0  501  502 -0.00000000000E+00 -0.00000000000E+00 -0.88123683638E+03  0.88123683638E+03  0.00000000000E+00 0. -1.
         25    1    1    2    0    0  0.65808823906E+01 -0.11153629765E+03 -0.50857339309E+03  0.53549561143E+03  0.12500000000E+03 0.  0.
         25    1    1    2    0    0 -0.64836659508E+02 -0.23943573825E+02  0.18015706227E+02  0.14396754084E+03  0.12500000000E+03 0.  0.
         25    1    1    2    0    0  0.58255777117E+02  0.13547987147E+03 -0.26468506110E+03  0.32776777253E+03  0.12500000000E+03 0.  0.
</event>
<event>
 5    0  0.5612316E-005  0.2828172E+03  0.7546771E-02  0.1094160E+00
         21   -1    0    0  502  501  0.00000000000E+00  0.00000000000E+00  0.77627254811E+03  0.77627254811E+03  0.00000000000E+00 0.  1.
         21   -1    0    0  501  502 -0.00000000000E+00 -0.00000000000E+00 -0.10303798954E+03  0.10303798954E+03  0.00000000000E+00 0.  1.
         25    1    1    2    0    0  0.15962378477E+03  0.30000616415E+02  0.12019689217E+03  0.23759646996E+03  0.12500000000E+03 0.  0.
         25    1    1    2    0    0 -0.17865261050E+02 -0.45676738400E+02  0.26070910271E+03  0.29325717079E+03  0.12500000000E+03 0.  0.
         25    1    1    2    0    0 -0.14175852372E+03  0.15676121986E+02  0.29232856369E+03  0.34845689690E+03  0.12500000000E+03 0.  0.
</event>
<event>
 5    0  0.5811015E-005  0.3014723E+03  0.7546771E-02  0.1084507E+00
         21   -1    0    0  502  501  0.00000000000E+00  0.00000000000E+00  0.12568994450E+03  0.12568994450E+03  0.00000000000E+00 0. -1.
         21   -1    0    0  501  502 -0.00000000000E+00 -0.00000000000E+00 -0.72309341925E+03  0.72309341925E+03  0.00000000000E+00 0. -1.
         25    1    1    2    0    0  0.64549276939E+02  0.27969425263E+02 -0.32379966130E+03  0.35414702958E+03  0.12500000000E+03 0.  0.
         25    1    1    2    0    0  0.16874943010E+02  0.27987061781E+02 -0.30590007575E+03  0.33206610136E+03  0.12500000000E+03 0.  0.
         25    1    1    2    0    0 -0.81424219949E+02 -0.55956487043E+02  0.32296262301E+02  0.16257023281E+03  0.12500000000E+03 0.  0.
</event>
<event>
 5    0  0.5612316E-005  0.2728448E+03  0.7546771E-02  0.1099662E+00
         21   -1    0    0  502  501  0.00000000000E+00  0.00000000000E+00  0.86418262904E+02  0.86418262904E+02  0.00000000000E+00 0.  1.
         21   -1    0    0  501  502 -0.00000000000E+00 -0.00000000000E+00 -0.86144183940E+03  0.86144183940E+03  0.00000000000E+00 0.  1.
         25    1    1    2    0    0  0.15457032164E+03 -0.10309507447E+03 -0.33301700259E+03  0.40130524882E+03  0.12500000000E+03 0.  0.
         25    1    1    2    0    0 -0.72853883302E+02  0.82084618474E+02 -0.27618012274E+03  0.32240662694E+03  0.12500000000E+03 0.  0.
         25    1    1    2    0    0 -0.81716438338E+02  0.21010456000E+02 -0.16582645117E+03  0.22414822655E+03  0.12500000000E+03 0.  0.
</event>
<event>
 5    0  0.5612316E-005  0.2317706E+03  0.7546771E-02  0.1125400E+00
         21   -1    0    0  502  501  0.00000000000E+00  0.00000000000E+00  0.78981963804E+02  0.78981963804E+02  0.00000000000E+00 0. -1.
         21   -1    0    0  501  502 -0.00000000000E+00 -0.00000000000E+00 -0.68012523299E+03  0.68012523299E+03  0.00000000000E+00 0. -1.
         25    1    1    2    0    0 -0.67281344940E+02  0.56203992561E+02 -0.96516491760E+02  0.18062696736E+03  0.12500000000E+03 0.  0.
         25    1    1    2    0    0  0.76427565145E+02 -0.42762138045E+01 -0.24343394723E+03  0.28415584700E+03  0.12500000000E+03 0.  0.
         25    1    1    2    0    0 -0.91462202046E+01 -0.51927778756E+02 -0.26119283020E+03  0.29432438244E+03  0.12500000000E+03 0.  0.
</event>
<event>
 5    0  0.5612316E-005  0.2453803E+03  0.7546771E-02  0.1116260E+00
         21   -1    0    0  502  501  0.00000000000E+00  0.00000000000E+00  0.76622485044E+03  0.76622485044E+03  0.00000000000E+00 0.  1.
         21   -1    0    0  501  502 -0.00000000000E+00 -0.00000000000E+00 -0.78582026293E+02  0.78582026293E+02  0.00000000000E+00 0.  1.
         25    1    1    2    0    0 -0.50574457557E+02  0.72986951094E+02  0.42803197607E+03  0.45466607892E+03  0.12500000000E+03 0.  0.
         25    1    1    2    0    0  0.81370919761E+02 -0.39204032131E+02  0.17086934006E+03  0.23017279181E+03  0.12500000000E+03 0.  0.
         25    1    1    2    0    0 -0.30796462204E+02 -0.33782918963E+02  0.88741508026E+02  0.15996800600E+03  0.12500000000E+03 0.  0.
</event>
<event>
 5    0  0.5612316E-005  0.3565433E+03  0.7546771E-02  0.1059961E+00
         21   -1    0    0  502  501  0.00000000000E+00  0.00000000000E+00  0.32612909267E+03  0.32612909267E+03  0.00000000000E+00 0.  1.
         21   -1    0    0  501  502 -0.00000000000E+00 -0.00000000000E+00 -0.38979380634E+03  0.38979380634E+03  0.00000000000E+00 0.  1.
         25    1    1    2    0    0 -0.16070070148E+02  0.34650969063E+02 -0.45450627433E+02  0.13838242788E+03  0.12500000000E+03 0.  0.
         25    1    1    2    0    0 -0.20708882658E+03 -0.51457294720E+02  0.13211172415E+03  0.28037857075E+03  0.12500000000E+03 0.  0.
         25    1    1    2    0    0  0.22315889673E+03  0.16806325657E+02 -0.15032581039E+03  0.29716190039E+03  0.12500000000E+03 0.  0.
</event>
<event>
 5    0  0.5612316E-005  0.3823378E+03  0.7546771E-02  0.1050073E+00
         21   -1    0    0  502  501  0.00000000000E+00  0.00000000000E+00  0.16565028275E+03  0.16565028275E+03  0.00000000000E+00 0.  1.
         21   -1    0    0  501  502 -0.00000000000E+00 -0.00000000000E+00 -0.88247489406E+03  0.88247489406E+03  0.00000000000E+00 0.  1.
         25    1    1    2    0    0 -0.88461183259E+02  0.13696617707E+01 -0.24209474495E+03  0.28646487123E+03  0.12500000000E+03 0.  0.
         25    1    1    2    0    0  0.20574724368E+03 -0.32793049233E+01  0.16550000667E+02  0.24133293319E+03  0.12500000000E+03 0.  0.
         25    1    1    2    0    0 -0.11728606042E+03  0.19096431526E+01 -0.49127986702E+03  0.52032737238E+03  0.12500000000E+03 0.  0.
</event>
<event>
 5    0  0.5612316E-005  0.3741574E+03  0.7546771E-02  0.1053115E+00
         21   -1    0    0  502  501  0.00000000000E+00  0.00000000000E+00  0.34183946158E+03  0.34183946158E+03  0.00000000000E+00 0.  1.
         21   -1    0    0  501  502 -0.00000000000E+00 -0.00000000000E+00 -0.40953069648E+03  0.40953069648E+03  0.00000000000E+00 0.  1.
         25    1    1    2    0    0  0.59087616766E+01  0.10331994248E+02 -0.21103817736E+03  0.24556827131E+03  0.12500000000E+03 0.  0.
         25    1    1    2    0    0  0.13081930518E+03 -0.23753088847E+02  0.23592525743E+03  0.29826771017E+03  0.12500000000E+03 0.  0.
         25    1    1    2    0    0 -0.13672806685E+03  0.13421094599E+02 -0.92578314969E+02  0.20753417658E+03  0.12500000000E+03 0.  0.
</event>
<event>
 5    0  0.5612316E-005  0.3038722E+03  0.7546771E-02  0.1083321E+00
         21   -1    0    0  502  501  0.00000000000E+00  0.00000000000E+00  0.46706901909E+03  0.46706901909E+03  0.00000000000E+00 0. -1.
         21   -1    0    0  501  502 -0.00000000000E+00 -0.00000000000E+00 -0.19769737121E+03  0.19769737121E+03  0.00000000000E+00 0. -1.
         25    1    1    2    0    0 -0.30227063533E+02 -0.86377835491E+02  0.47047607950E+02  0.16190516745E+03  0.12500000000E+03 0.  0.
         25    1    1    2    0    0 -0.36926635684E+02 -0.13398186733E+03  0.11621111466E+03  0.22010165916E+03  0.12500000000E+03 0.  0.
         25    1    1    2    0    0  0.67153699217E+02  0.22035970282E+03  0.10611292527E+03  0.28275956369E+03  0.12500000000E+03 0.  0.
</event>
<event>
 5    0  0.5612316E-005  0.2744250E+03  0.7546771E-02  0.1098773E+00
         21   -1    0    0  502  501  0.00000000000E+00  0.00000000000E+00  0.19751354172E+03  0.19751354172E+03  0.00000000000E+00 0. -1.
         21   -1    0    0  501  502 -0.00000000000E+00 -0.00000000000E+00 -0.38128565562E+03  0.38128565562E+03  0.00000000000E+00 0. -1.
         25    1    1    2    0    0 -0.10937051977E+03 -0.13302678135E+02  0.24071992487E+02  0.16835478212E+03  0.12500000000E+03 0.  0.
         25    1    1    2    0    0 -0.58341039844E+02 -0.23629094245E+02 -0.63846561895E+02  0.15382910807E+03  0.12500000000E+03 0.  0.
         25    1    1    2    0    0  0.16771155962E+03  0.36931772380E+02 -0.14399754449E+03  0.25661530715E+03  0.12500000000E+03 0.  0.
</event>
<event>
 5    0  0.5612316E-005  0.3316544E+03  0.7546771E-02  0.1070407E+00
         21   -1    0    0  502  501  0.00000000000E+00  0.00000000000E+00  0.29212395591E+03  0.29212395591E+03  0.00000000000E+00 0. -1.
         21   -1    0    0  501  502 -0.00000000000E+00 -0.00000000000E+00 -0.37653404703E+03  0.37653404703E+03  0.00000000000E+00 0. -1.
         25    1    1    2    0    0  0.44030353746E+02 -0.77908247191E+01 -0.61353136493E+02  0.14624833797E+03  0.12500000000E+03 0.  0.
         25    1    1    2    0    0 -0.17690590939E+03  0.14341933860E+03 -0.10578594569E+03  0.28050039887E+03  0.12500000000E+03 0.  0.
         25    1    1    2    0    0  0.13287555564E+03 -0.13562851388E+03  0.82728991064E+02  0.24190926610E+03  0.12500000000E+03 0.  0.
</event>
<event>
 5    0  0.5612316E-005  0.3192271E+03  0.7546771E-02  0.1076006E+00
         21   -1    0    0  502  501  0.00000000000E+00  0.00000000000E+00  0.43091476843E+03  0.43091476843E+03  0.00000000000E+00 0. -1.
         21   -1    0    0  501  502 -0.00000000000E+00 -0.00000000000E+00 -0.23648748130E+03  0.23648748130E+03  0.00000000000E+00 0. -1.
         25    1    1    2    0    0  0.59822312757E+01 -0.38946279985E+02  0.15255202577E+03  0.20112115847E+03  0.12500000000E+03 0.  0.
         25    1    1    2    0    0  0.98307853959E+02 -0.61656588311E+02 -0.12572841151E+03  0.21189290336E+03  0.12500000000E+03 0.  0.
         25    1    1    2    0    0 -0.10429008524E+03  0.10060286830E+03  0.16760367287E+03  0.25438818791E+03  0.12500000000E+03 0.  0.
</event>
<event>
 5    0  0.5612316E-005  0.2541337E+03  0.7546771E-02  0.1110720E+00
         21   -1    0    0  502  501  0.00000000000E+00  0.00000000000E+00  0.67693819039E+03  0.67693819039E+03  0.00000000000E+00 0.  1.
         21   -1    0    0  501  502 -0.00000000000E+00 -0.00000000000E+00 -0.95405945714E+02  0.95405945714E+02  0.00000000000E+00 0.  1.
         25    1    1    2    0    0  0.63027972056E+02  0.88341812516E+02  0.12228028454E+03  0.20580152839E+03  0.12500000000E+03 0.  0.
         25    1    1    2    0    0  0.18390726971E+02 -0.11393170782E+03  0.31202611188E+03  0.35539266647E+03  0.12500000000E+03 0.  0.
         25    1    1    2    0    0 -0.81418699027E+02  0.25589895305E+02  0.14722584825E+03  0.21114994124E+03  0.12500000000E+03 0.  0.
</event>
<event>
 5    0  0.5612316E-005  0.2530023E+03  0.7546771E-02  0.1111422E+00
         21   -1    0    0  502  501  0.00000000000E+00  0.00000000000E+00  0.22963033685E+03  0.22963033685E+03  0.00000000000E+00 0. -1.
         21   -1    0    0  501  502 -0.00000000000E+00 -0.00000000000E+00 -0.27875298768E+03  0.27875298768E+03  0.00000000000E+00 0. -1.
         25    1    1    2    0    0  0.12177885923E+03  0.67971147814E+02  0.52324956875E+02  0.19445582687E+03  0.12500000000E+03 0.  0.
         25    1    1    2    0    0 -0.70474058157E+02 -0.69192686485E+02 -0.75667697832E+02  0.17636558970E+03  0.12500000000E+03 0.  0.
         25    1    1    2    0    0 -0.51304801071E+02  0.12215386710E+01 -0.25779909866E+02  0.13756190796E+03  0.12500000000E+03 0.  0.
</event>
<event>
 5    0  0.5612316E-005  0.3103083E+03  0.7546771E-02  0.1080198E+00
         21   -1    0    0  502  501  0.00000000000E+00  0.00000000000E+00  0.16392668328E+03  0.16392668328E+03  0.00000000000E+00 0. -1.
         21   -1    0    0  501  502 -0.00000000000E+00 -0.00000000000E+00 -0.58740419675E+03  0.58740419675E+03  0.00000000000E+00 0. -1.
         25    1    1    2    0    0 -0.17207574331E+03  0.23749938642E+02 -0.47333521496E+02  0.21917934044E+03  0.12500000000E+03 0.  0.
         25    1    1    2    0    0  0.75855904100E+02  0.40162025816E+02 -0.31798771042E+03  0.35229006583E+03  0.12500000000E+03 0.  0.
         25    1    1    2    0    0  0.96219839208E+02 -0.63911964457E+02 -0.58156281548E+02  0.17986147376E+03  0.12500000000E+03 0.  0.
</event>
<event>
 5    0  0.5612316E-005  0.3761303E+03  0.7546771E-02  0.1052373E+00
         21   -1    0    0  502  501  0.00000000000E+00  0.00000000000E+00  0.79336363062E+02  0.79336363062E+02  0.00000000000E+00 0. -1.
         21   -1    0    0  501  502 -0.00000000000E+00 -0.00000000000E+00 -0.17832176845E+04  0.17832176845E+04  0.00000000000E+00 0. -1.
         25    1    1    2    0    0  0.28615299913E+03  0.27839761095E+02 -0.83968548983E+03  0.89630090541E+03  0.12500000000E+03 0.  0.
         25    1    1    2    0    0 -0.15210090685E+03 -0.87272089125E+02 -0.29437928746E+03  0.36474000095E+03  0.12500000000E+03 0.  0.
         25    1    1    2    0    0 -0.13405209228E+03  0.59432328031E+02 -0.56981654411E+03  0.60151314117E+03  0.12500000000E+03 0.  0.
</event>
<event>
 5    0  0.5612316E-005  0.2909596E+03  0.7546771E-02  0.1089849E+00
         21   -1    0    0  502  501  0.00000000000E+00  0.00000000000E+00  0.10885957605E+04  0.10885957605E+04  0.00000000000E+00 0. -1.
         21   -1    0    0  501  502 -0.00000000000E+00 -0.00000000000E+00 -0.77767629965E+02  0.77767629965E+02  0.00000000000E+00 0. -1.
         25    1    1    2    0    0  0.76759852803E+02 -0.72969644073E+02  0.14167735161E+03  0.21659666645E+03  0.12500000000E+03 0.  0.
         25    1    1    2    0    0  0.88408504134E+02  0.63664211448E+02  0.49459464222E+03  0.52164936072E+03  0.12500000000E+03 0.  0.
         25    1    1    2    0    0 -0.16516835694E+03  0.93054326243E+01  0.37455613667E+03  0.42811736326E+03  0.12500000000E+03 0.  0.
</event>
<event>
 5    0  0.5612316E-005  0.2553385E+03  0.7546771E-02  0.1109977E+00
         21   -1    0    0  502  501  0.00000000000E+00  0.00000000000E+00  0.12993607553E+03  0.12993607553E+03  0.00000000000E+00 0.  1.
         21   -1    0    0  501  502 -0.00000000000E+00 -0.00000000000E+00 -0.50176795358E+03  0.50176795358E+03  0.00000000000E+00 0.  1.
         25    1    1    2    0    0 -0.92047355615E+01 -0.20563427829E+02 -0.30351445342E+02  0.13059016791E+03  0.12500000000E+03 0.  0.
         25    1    1    2    0    0 -0.91847770881E+01 -0.11904295807E+03 -0.12008371815E+03  0.21047727992E+03  0.12500000000E+03 0.  0.
         25    1    1    2    0    0  0.18389512650E+02  0.13960638590E+03 -0.22139671456E+03  0.29063658128E+03  0.12500000000E+03 0.  0.
</event>
<event>
 5    0  0.5612316E-005  0.4931673E+03  0.7546771E-02  0.1015578E+00
         21   -1    0    0  502  501  0.00000000000E+00  0.00000000000E+00  0.59824744245E+03  0.59824744245E+03  0.00000000000E+00 0.  1.
         21   -1    0    0  501  502 -0.00000000000E+00 -0.00000000000E+00 -0.40654413448E+03  0.40654413448E+03  0.00000000000E+00 0.  1.
         25    1    1    2    0    0  0.59535400304E+02  0.91938139186E+02 -0.31170889629E+03  0.35324852633E+03  0.12500000000E+03 0.  0.
         25    1    1    2    0    0 -0.14599678386E+03 -0.15358126907E+03  0.25921788048E+03  0.35738099651E+03  0.12500000000E+03 0.  0.
         25    1    1    2    0    0  0.86461383552E+02  0.61643129884E+02  0.24419432377E+03  0.29416205410E+03  0.12500000000E+03 0.  0.
</event>
<event>
 5    0  0.5612316E-005  0.2672241E+03  0.7546771E-02  0.1102879E+00
         21   -1    0    0  502  501  0.00000000000E+00  0.00000000000E+00  0.49766233809E+02  0.49766233809E+02  0.00000000000E+00 0.  1.
         21   -1    0    0  501  502 -0.00000000000E+00 -0.00000000000E+00 -0.14348824406E+04  0.14348824406E+04  0.00000000000E+00 0.  1.
         25    1    1    2    0    0 -0.90457897568E+01 -0.82896316253E+02 -0.34949912120E+03  0.38043167755E+03  0.12500000000E+03 0.  0.
         25    1    1    2    0    0  0.55959252551E+02 -0.64459221950E+02 -0.68134311682E+03  0.69795406159E+03  0.12500000000E+03 0.  0.
         25    1    1    2    0    0 -0.46913462795E+02  0.14735553820E+03 -0.35427396872E+03  0.40626293524E+03  0.12500000000E+03 0.  0.
</event>
<event>
 5    0  0.5612316E-005  0.3804656E+03  0.7546771E-02  0.1050762E+00
         21   -1    0    0  502  501  0.00000000000E+00  0.00000000000E+00  0.13028913068E+03  0.13028913068E+03  0.00000000000E+00 0.  1.
         21   -1    0    0  501  502 -0.00000000000E+00 -0.00000000000E+00 -0.11110220534E+04  0.11110220534E+04  0.00000000000E+00 0. -1.
         25    1    1    2    0    0 -0.23057999610E+03 -0.13242398954E+03 -0.29970710935E+03  0.41970537166E+03  0.12500000000E+03 0.  0.
         25    1    1    2    0    0  0.17659033540E+03  0.17526084411E+03 -0.58975869626E+03  0.65218159270E+03  0.12500000000E+03 0.  0.
         25    1    1    2    0    0  0.53989660700E+02 -0.42836854570E+02 -0.91267117156E+02  0.16942421977E+03  0.12500000000E+03 0.  0.
</event>
<event>
 5    0  0.5612316E-005  0.3725490E+03  0.7546771E-02  0.1053723E+00
         21   -1    0    0  502  501  0.00000000000E+00  0.00000000000E+00  0.10289892380E+04  0.10289892380E+04  0.00000000000E+00 0.  1.
         21   -1    0    0  501  502 -0.00000000000E+00 -0.00000000000E+00 -0.13488261359E+03  0.13488261359E+03  0.00000000000E+00 0.  1.
         25    1    1    2    0    0 -0.18539033283E+03  0.63944546609E+02  0.73120617294E+03  0.76729782216E+03  0.12500000000E+03 0.  0.
         25    1    1    2    0    0  0.12563022068E+03 -0.11174488247E+03  0.12933165908E+03  0.24621443732E+03  0.12500000000E+03 0.  0.
         25    1    1    2    0    0  0.59760112148E+02  0.47800335857E+02  0.33568792375E+02  0.15035959209E+03  0.12500000000E+03 0.  0.
</event>
<event>
 5    0  0.5612316E-005  0.2907515E+03  0.7546771E-02  0.1089957E+00
         21   -1    0    0  502  501  0.00000000000E+00  0.00000000000E+00  0.57217217143E+02  0.57217217143E+02  0.00000000000E+00 0. -1.
         21   -1    0    0  501  502 -0.00000000000E+00 -0.00000000000E+00 -0.14774646579E+04  0.14774646579E+04  0.00000000000E+00 0. -1.
         25    1    1    2    0    0  0.57964421444E+02  0.12643670316E+03 -0.90227865692E+03  0.92145422501E+03  0.12500000000E+03 0.  0.
         25    1    1    2    0    0  0.12020612475E+02  0.48524191165E+01 -0.13929557499E+03  0.18760676509E+03  0.12500000000E+03 0.  0.
         25    1    1    2    0    0 -0.69985033919E+02 -0.13128912227E+03 -0.37867320884E+03  0.42562088494E+03  0.12500000000E+03 0.  0.
</event>
<event>
 5    0  0.5612316E-005  0.2072618E+03  0.7546771E-02  0.1143753E+00
         21   -1    0    0  502  501  0.00000000000E+00  0.00000000000E+00  0.13934579811E+03  0.13934579811E+03  0.00000000000E+00 0.  1.
         21   -1    0    0  501  502 -0.00000000000E+00 -0.00000000000E+00 -0.30827954393E+03  0.30827954393E+03  0.00000000000E+00 0.  1.
         25    1    1    2    0    0  0.73402338788E+02 -0.70338957008E+01 -0.95783454075E+02  0.17388746103E+03  0.12500000000E+03 0.  0.
         25    1    1    2    0    0 -0.56978409925E+02  0.88766494711E+01 -0.35954038641E+02  0.14227799197E+03  0.12500000000E+03 0.  0.
         25    1    1    2    0    0 -0.16423928864E+02 -0.18427537702E+01 -0.37196253105E+02  0.13145988904E+03  0.12500000000E+03 0.  0.
</event>
<event>
 5    0  0.5612316E-005  0.5304315E+03  0.7546771E-02  0.1006128E+00
         21   -1    0    0  502  501  0.00000000000E+00  0.00000000000E+00  0.42179129597E+03  0.42179129597E+03  0.00000000000E+00 0.  1.
         21   -1    0    0  501  502 -0.00000000000E+00 -0.00000000000E+00 -0.66705411796E+03  0.66705411796E+03  0.00000000000E+00 0. -1.
         25    1    1    2    0    0  0.11667119919E+03 -0.27338474931E+02  0.11273388353E+03  0.20662402916E+03  0.12500000000E+03 0.  0.
         25    1    1    2    0    0  0.18827454652E+02 -0.35174167661E+03 -0.95973115490E+02  0.38589184885E+03  0.12500000000E+03 0.  0.
         25    1    1    2    0    0 -0.13549865384E+03  0.37908015154E+03 -0.26202359003E+03  0.49632953591E+03  0.12500000000E+03 0.  0.
</event>
<event>
 5    0  0.5612316E-005  0.2892608E+03  0.7546771E-02  0.1090736E+00
         21   -1    0    0  502  501  0.00000000000E+00  0.00000000000E+00  0.13579657231E+03  0.13579657231E+03  0.00000000000E+00 0. -1.
         21   -1    0    0  501  502 -0.00000000000E+00 -0.00000000000E+00 -0.61615539420E+03  0.61615539420E+03  0.00000000000E+00 0. -1.
         25    1    1    2    0    0  0.37429880736E+02 -0.20616996328E+03 -0.15563032188E+03  0.28940084108E+03  0.12500000000E+03 0.  0.
         25    1    1    2    0    0 -0.10198113325E+02  0.85712141430E+02 -0.17461785026E+03  0.23144538521E+03  0.12500000000E+03 0.  0.
         25    1    1    2    0    0 -0.27231767411E+02  0.12045782185E+03 -0.15011064975E+03  0.23110574023E+03  0.12500000000E+03 0.  0.
</event>
<event>
 5    0  0.5612316E-005  0.3260360E+03  0.7546771E-02  0.1072904E+00
         21   -1    0    0  502  501  0.00000000000E+00  0.00000000000E+00  0.36242071038E+03  0.36242071038E+03  0.00000000000E+00 0.  1.
         21   -1    0    0  501  502 -0.00000000000E+00 -0.00000000000E+00 -0.29330401915E+03  0.29330401915E+03  0.00000000000E+00 0.  1.
         25    1    1    2    0    0  0.18609572460E+02  0.13754439538E+03 -0.17176659807E+03  0.25375882467E+03  0.12500000000E+03 0.  0.
         25    1    1    2    0    0 -0.27083942207E+02 -0.14462476587E+03  0.11766294383E+03  0.22609606626E+03  0.12500000000E+03 0.  0.
         25    1    1    2    0    0  0.84743697473E+01  0.70803704900E+01  0.12322034547E+03  0.17586983859E+03  0.12500000000E+03 0.  0.
</event>
<event>
 5    0  0.5612316E-005  0.3568099E+03  0.7546771E-02  0.1059854E+00
         21   -1    0    0  502  501  0.00000000000E+00  0.00000000000E+00  0.67374790855E+03  0.67374790855E+03  0.00000000000E+00 0.  1.
         21   -1    0    0  501  502 -0.00000000000E+00 -0.00000000000E+00 -0.18896284324E+03  0.18896284324E+03  0.00000000000E+00 0.  1.
         25    1    1    2    0    0 -0.36795279465E+02  0.12495514092E+03  0.34158624605E+03  0.38635973305E+03  0.12500000000E+03 0.  0.
         25    1    1    2    0    0 -0.12104355420E+03 -0.11335542631E+03  0.17576377327E+03  0.27206414442E+03  0.12500000000E+03 0.  0.
         25    1    1    2    0    0  0.15783883366E+03 -0.11599714610E+02 -0.32564954009E+02  0.20428687432E+03  0.12500000000E+03 0.  0.
</event>
<event>
 5    0  0.5612316E-005  0.4976613E+03  0.7546771E-02  0.1014391E+00
         21   -1    0    0  502  501  0.00000000000E+00  0.00000000000E+00  0.11845877794E+03  0.11845877794E+03  0.00000000000E+00 0.  1.
         21   -1    0    0  501  502 -0.00000000000E+00 -0.00000000000E+00 -0.20907426304E+04  0.20907426304E+04  0.00000000000E+00 0.  1.
         25    1    1    2    0    0 -0.44219991170E+03  0.71792232320E+01 -0.96325865982E+03  0.10672790398E+04  0.12500000000E+03 0.  0.
         25    1    1    2    0    0  0.31555325582E+03 -0.49714930957E+02 -0.55543477476E+03  0.65282326906E+03  0.12500000000E+03 0.  0.
         25    1    1    2    0    0  0.12664665589E+03  0.42535707725E+02 -0.45359041790E+03  0.48909909946E+03  0.12500000000E+03 0.  0.
</event>
<event>
 5    0  0.5612316E-005  0.3760907E+03  0.7546771E-02  0.1052388E+00
         21   -1    0    0  502  501  0.00000000000E+00  0.00000000000E+00  0.96268042181E+03  0.96268042181E+03  0.00000000000E+00 0. -1.
         21   -1    0    0  501  502 -0.00000000000E+00 -0.00000000000E+00 -0.14692747297E+03  0.14692747297E+03  0.00000000000E+00 0. -1.
         25    1    1    2    0    0 -0.16599570285E+03  0.38370019405E+02  0.15738200532E+03  0.26347851403E+03  0.12500000000E+03 0.  0.
         25    1    1    2    0    0 -0.10176217317E+03  0.89677798936E+02  0.37179975305E+03  0.41503940039E+03  0.12500000000E+03 0.  0.
         25    1    1    2    0    0  0.26775787602E+03 -0.12804781834E+03  0.28657119047E+03  0.43108998036E+03  0.12500000000E+03 0.  0.
</event>
<event>
 5    0  0.5612316E-005  0.3453295E+03  0.7546771E-02  0.1064548E+00
         21   -1    0    0  502  501  0.00000000000E+00  0.00000000000E+00  0.15209591947E+03  0.15209591947E+03  0.00000000000E+00 0.  1.
         21   -1    0    0  501  502 -0.00000000000E+00 -0.00000000000E+00 -0.78406091073E+03  0.78406091073E+03  0.00000000000E+00 0.  1.
         25    1    1    2    0    0  0.37822915356E+02  0.46588445572E+02 -0.69216899195E+02  0.15497430536E+03  0.12500000000E+03 0.  0.
         25    1    1    2    0    0 -0.12218372062E+02  0.21470201975E+03 -0.29541921669E+03  0.38619135088E+03  0.12500000000E+03 0.  0.
         25    1    1    2    0    0 -0.25604543294E+02 -0.26129046532E+03 -0.26732887537E+03  0.39499117397E+03  0.12500000000E+03 0.  0.
</event>
<event>
 5    0  0.5612316E-005  0.3760574E+03  0.7546771E-02  0.1052401E+00
         21   -1    0    0  502  501  0.00000000000E+00  0.00000000000E+00  0.23973397118E+03  0.23973397118E+03  0.00000000000E+00 0. -1.
         21   -1    0    0  501  502 -0.00000000000E+00 -0.00000000000E+00 -0.58990048709E+03  0.58990048709E+03  0.00000000000E+00 0. -1.
         25    1    1    2    0    0 -0.10067586641E+03 -0.69936899051E+02  0.11224157778E+03  0.20796627541E+03  0.12500000000E+03 0.  0.
         25    1    1    2    0    0  0.19386592662E+03  0.25019875759E+01 -0.34557443392E+03  0.41549602504E+03  0.12500000000E+03 0.  0.
         25    1    1    2    0    0 -0.93190060210E+02  0.67434911475E+02 -0.11683365976E+03  0.20617215782E+03  0.12500000000E+03 0.  0.
</event>
<event>
 5    0  0.5612316E-005  0.3441561E+03  0.7546771E-02  0.1065039E+00
         21   -1    0    0  502  501  0.00000000000E+00  0.00000000000E+00  0.19524377229E+04  0.19524377229E+04  0.00000000000E+00 0.  1.
         21   -1    0    0  501  502 -0.00000000000E+00 -0.00000000000E+00 -0.60664379382E+02  0.60664379382E+02  0.00000000000E+00 0.  1.
         25    1    1    2    0    0  0.14904491102E+03 -0.11951608005E+03  0.72113079056E+03  0.75640802216E+03  0.12500000000E+03 0.  0.
         25    1    1    2    0    0 -0.64043682008E+02  0.75248627358E+02  0.13411923242E+03  0.20827125973E+03  0.12500000000E+03 0.  0.
         25    1    1    2    0    0 -0.85001229010E+02  0.44267452696E+02  0.10365233206E+04  0.10484228204E+04  0.12500000000E+03 0.  0.
</event>
<event>
 5    0  0.5612316E-005  0.2499275E+03  0.7546771E-02  0.1113351E+00
         21   -1    0    0  502  501  0.00000000000E+00  0.00000000000E+00  0.11505954384E+03  0.11505954384E+03  0.00000000000E+00 0.  1.
         21   -1    0    0  501  502 -0.00000000000E+00 -0.00000000000E+00 -0.54288188729E+03  0.54288188729E+03  0.00000000000E+00 0.  1.
         25    1    1    2    0    0  0.33485262192E+02  0.30275383839E+02 -0.20109928882E+03  0.24104726842E+03  0.12500000000E+03 0.  0.
         25    1    1    2    0    0  0.82642374473E+02  0.12734673007E+01 -0.26895292560E+02  0.15224894265E+03  0.12500000000E+03 0.  0.
         25    1    1    2    0    0 -0.11612763667E+03 -0.31548851140E+02 -0.19982776207E+03  0.26464522006E+03  0.12500000000E+03 0.  0.
</event>
<event>
 5    0  0.5612316E-005  0.5345495E+03  0.7546771E-02  0.1005135E+00
         21   -1    0    0  502  501  0.00000000000E+00  0.00000000000E+00  0.27729703595E+03  0.27729703595E+03  0.00000000000E+00 0.  1.
         21   -1    0    0  501  502 -0.00000000000E+00 -0.00000000000E+00 -0.10304587051E+04  0.10304587051E+04  0.00000000000E+00 0.  1.
         25    1    1    2    0    0 -0.37610726763E+03  0.18742205732E+01 -0.52537949824E+03  0.65811002624E+03  0.12500000000E+03 0.  0.
         25    1    1    2    0    0  0.39572918029E+03  0.84783031812E+02 -0.69471651901E+02  0.42923310338E+03  0.12500000000E+03 0.  0.
         25    1    1    2    0    0 -0.19621912662E+02 -0.86657252385E+02 -0.15831051896E+03  0.22041261139E+03  0.12500000000E+03 0.  0.
</event>
<event>
 5    0  0.5612316E-005  0.3790597E+03  0.7546771E-02  0.1051282E+00
         21   -1    0    0  502  501  0.00000000000E+00  0.00000000000E+00  0.17454172081E+04  0.17454172081E+04  0.00000000000E+00 0.  1.
         21   -1    0    0  501  502 -0.00000000000E+00 -0.00000000000E+00 -0.82322032666E+02  0.82322032666E+02  0.00000000000E+00 0.  1.
         25    1    1    2    0    0 -0.50738364942E+02 -0.87948998982E+02  0.60698638846E+03  0.62798637236E+03  0.12500000000E+03 0.  0.
         25    1    1    2    0    0  0.20755911072E+03  0.91187718968E+02  0.21942496535E+03  0.33936455318E+03  0.12500000000E+03 0.  0.
         25    1    1    2    0    0 -0.15682074578E+03 -0.32387199866E+01  0.83668382163E+03  0.86038831523E+03  0.12500000000E+03 0.  0.
</event>
<event>
 5    0  0.5612316E-005  0.2819767E+03  0.7546771E-02  0.1094614E+00
         21   -1    0    0  502  501  0.00000000000E+00  0.00000000000E+00  0.14362462306E+04  0.14362462306E+04  0.00000000000E+00 0. -1.
         21   -1    0    0  501  502 -0.00000000000E+00 -0.00000000000E+00 -0.55360173162E+02  0.55360173162E+02  0.00000000000E+00 0. -1.
         25    1    1    2    0    0 -0.10943496309E+03  0.81572544156E+02  0.19376906260E+03  0.26795809510E+03  0.12500000000E+03 0.  0.
         25    1    1    2    0    0  0.35390759714E+02 -0.72689915478E+02  0.67681779818E+03  0.69299614834E+03  0.12500000000E+03 0.  0.
         25    1    1    2    0    0  0.74044203381E+02 -0.88826286776E+01  0.51029919670E+03  0.53065216036E+03  0.12500000000E+03 0.  0.
</event>
<event>
 5    0  0.5612316E-005  0.2869047E+03  0.7546771E-02  0.1091976E+00
         21   -1    0    0  502  501  0.00000000000E+00  0.00000000000E+00  0.66086533993E+03  0.66086533993E+03  0.00000000000E+00 0. -1.
         21   -1    0    0  501  502 -0.00000000000E+00 -0.00000000000E+00 -0.12455533223E+03  0.12455533223E+03  0.00000000000E+00 0. -1.
         25    1    1    2    0    0  0.99240915093E+02  0.10887641201E+03  0.64932115010E+02  0.20382348216E+03  0.12500000000E+03 0.  0.
         25    1    1    2    0    0 -0.13302956510E+03 -0.99680879628E+02  0.32600889547E+03  0.38670394733E+03  0.12500000000E+03 0.  0.
         25    1    1    2    0    0  0.33788650005E+02 -0.91955323852E+01  0.14536899721E+03  0.19489324266E+03  0.12500000000E+03 0.  0.
</event>
<event>
 5    0  0.5612316E-005  0.2360367E+03  0.7546771E-02  0.1122462E+00
         21   -1    0    0  502  501  0.00000000000E+00  0.00000000000E+00  0.26992824776E+03  0.26992824776E+03  0.00000000000E+00 0. -1.
         21   -1    0    0  501  502 -0.00000000000E+00 -0.00000000000E+00 -0.20640046164E+03  0.20640046164E+03  0.00000000000E+00 0. -1.
         25    1    1    2    0    0  0.10068457364E+03 -0.16867184270E+02 -0.53841412048E+02  0.17013460238E+03  0.12500000000E+03 0.  0.
         25    1    1    2    0    0 -0.72990650695E+02 -0.14706078765E+02  0.31597956322E+02  0.14888698629E+03  0.12500000000E+03 0.  0.
         25    1    1    2    0    0 -0.27693922944E+02  0.31573263035E+02  0.85771241850E+02  0.15730712074E+03  0.12500000000E+03 0.  0.
</event>
<event>
 5    0  0.5612316E-005  0.3560534E+03  0.7546771E-02  0.1060158E+00
         21   -1    0    0  502  501  0.00000000000E+00  0.00000000000E+00  0.75701686540E+03  0.75701686540E+03  0.00000000000E+00 0. -1.
         21   -1    0    0  501  502 -0.00000000000E+00 -0.00000000000E+00 -0.16746528783E+03  0.16746528783E+03  0.00000000000E+00 0. -1.
         25    1    1    2    0    0  0.39904258310E+02  0.14253809328E+03 -0.57481514396E+02  0.20208558178E+03  0.12500000000E+03 0.  0.
         25    1    1    2    0    0 -0.93813015443E+01 -0.43940488597E+02  0.15386142857E+03  0.20326611759E+03  0.12500000000E+03 0.  0.
         25    1    1    2    0    0 -0.30522956766E+02 -0.98597604685E+02  0.49317166340E+03  0.51913045386E+03  0.12500000000E+03 0.  0.
</event>
<event>
 5    0  0.5612316E-005  0.5421836E+03  0.7546771E-02  0.1003319E+00
         21   -1    0    0  502  501  0.00000000000E+00  0.00000000000E+00  0.24009730419E+03  0.24009730419E+03  0.00000000000E+00 0.  1.
         21   -1    0    0  501  502 -0.00000000000E+00 -0.00000000000E+00 -0.12243497015E+04  0.12243497015E+04  0.00000000000E+00 0.  1.
         25    1    1    2    0    0 -0.30290539877E+03  0.15040522047E+03 -0.10682392678E+03  0.37604489397E+03  0.12500000000E+03 0.  0.
         25    1    1    2    0    0  0.35993782643E+03 -0.16077500551E+03 -0.85368897795E+03  0.94858511077E+03  0.12500000000E+03 0.  0.
         25    1    1    2    0    0 -0.57032427660E+02  0.10369785046E+02 -0.23739492558E+02  0.13981700095E+03  0.12500000000E+03 0.  0.
</event>
<event>
 5    0  0.5612316E-005  0.2891487E+03  0.7546771E-02  0.1090794E+00
         21   -1    0    0  502  501  0.00000000000E+00  0.00000000000E+00  0.17471454771E+03  0.17471454771E+03  0.00000000000E+00 0.  1.
         21   -1    0    0  501  502 -0.00000000000E+00 -0.00000000000E+00 -0.47853458787E+03  0.47853458787E+03  0.00000000000E+00 0.  1.
         25    1    1    2    0    0 -0.88666172108E+02  0.15560266100E+02  0.18698653179E+02  0.15517232868E+03  0.12500000000E+03 0.  0.
         25    1    1    2    0    0  0.83012686644E+02  0.12170994303E+03 -0.15037251666E+03  0.24482914480E+03  0.12500000000E+03 0.  0.
         25    1    1    2    0    0  0.56534854639E+01 -0.13727020913E+03 -0.17214617668E+03  0.25324766210E+03  0.12500000000E+03 0.  0.
</event>
<event>
 5    0  0.5612316E-005  0.2493409E+03  0.7546771E-02  0.1113722E+00
         21   -1    0    0  502  501  0.00000000000E+00  0.00000000000E+00  0.61814482683E+03  0.61814482683E+03  0.00000000000E+00 0.  1.
         21   -1    0    0  501  502 -0.00000000000E+00 -0.00000000000E+00 -0.10057659249E+03  0.10057659249E+03  0.00000000000E+00 0.  1.
         25    1    1    2    0    0 -0.66847675283E+02  0.51182955077E+02  0.11784521211E+03  0.19131335708E+03  0.12500000000E+03 0.  0.
         25    1    1    2    0    0  0.51677139608E+02  0.31660609047E+02  0.33633765928E+03  0.36389688371E+03  0.12500000000E+03 0.  0.
         25    1    1    2    0    0  0.15170535676E+02 -0.82843564124E+02  0.63385362951E+02  0.16351117853E+03  0.12500000000E+03 0.  0.
</event>
<event>
 5    0  0.5612316E-005  0.2510068E+03  0.7546771E-02  0.1112670E+00
         21   -1    0    0  502  501  0.00000000000E+00  0.00000000000E+00  0.58895048359E+03  0.58895048359E+03  0.00000000000E+00 0. -1.
         21   -1    0    0  501  502 -0.00000000000E+00 -0.00000000000E+00 -0.10697740631E+03  0.10697740631E+03  0.00000000000E+00 0. -1.
         25    1    1    2    0    0 -0.31518827035E+02  0.11762825400E+03  0.16422474574E+03  0.23963432498E+03  0.12500000000E+03 0.  0.
         25    1    1    2    0    0 -0.56871253337E+02 -0.21856301550E+02  0.18841620500E+03  0.23417451544E+03  0.12500000000E+03 0.  0.
         25    1    1    2    0    0  0.88390080372E+02 -0.95771952450E+02  0.12933212655E+03  0.22211904948E+03  0.12500000000E+03 0.  0.
</event>
<event>
 5    0  0.5612316E-005  0.3704531E+03  0.7546771E-02  0.1054520E+00
         21   -1    0    0  502  501  0.00000000000E+00  0.00000000000E+00  0.10216995019E+04  0.10216995019E+04  0.00000000000E+00 0.  1.
         21   -1    0    0  501  502 -0.00000000000E+00 -0.00000000000E+00 -0.13432081492E+03  0.13432081492E+03  0.00000000000E+00 0.  1.
         25    1    1    2    0    0 -0.13429820543E+03 -0.55871840527E+01  0.94223053240E+02  0.20632549132E+03  0.12500000000E+03 0.  0.
         25    1    1    2    0    0  0.25662645534E+03  0.75847354293E+02  0.29662832435E+03  0.41859684846E+03  0.12500000000E+03 0.  0.
         25    1    1    2    0    0 -0.12232824991E+03 -0.70260170240E+02  0.49652730941E+03  0.53109797706E+03  0.12500000000E+03 0.  0.
</event>
<event>
 5    0  0.5612316E-005  0.2826172E+03  0.7546771E-02  0.1094268E+00
         21   -1    0    0  502  501  0.00000000000E+00  0.00000000000E+00  0.10520554489E+03  0.10520554489E+03  0.00000000000E+00 0.  1.
         21   -1    0    0  501  502 -0.00000000000E+00 -0.00000000000E+00 -0.75920391601E+03  0.75920391601E+03  0.00000000000E+00 0.  1.
         25    1    1    2    0    0  0.65267183597E+02  0.18356123383E+02 -0.49953247114E+03  0.51937890046E+03  0.12500000000E+03 0.  0.
         25    1    1    2    0    0 -0.77995961644E+02 -0.54746851260E+02 -0.14505148504E+03  0.21388202605E+03  0.12500000000E+03 0.  0.
         25    1    1    2    0    0  0.12728778048E+02  0.36390727877E+02 -0.94144149481E+01  0.13114853440E+03  0.12500000000E+03 0.  0.
</event>
<event>
 5    0  0.5612316E-005  0.2120291E+03  0.7546771E-02  0.1139969E+00
         21   -1    0    0  502  501  0.00000000000E+00  0.00000000000E+00  0.69451780631E+02  0.69451780631E+02  0.00000000000E+00 0. -1.
         21   -1    0    0  501  502 -0.00000000000E+00 -0.00000000000E+00 -0.64730302765E+03  0.64730302765E+03  0.00000000000E+00 0. -1.
         25    1    1    2    0    0 -0.23818370886E+02  0.14265517290E+02 -0.17737876869E+03  0.21876710758E+03  0.12500000000E+03 0.  0.
         25    1    1    2    0    0 -0.50378787449E+02 -0.17073063070E+02 -0.27170647604E+03  0.30377445717E+03  0.12500000000E+03 0.  0.
         25    1    1    2    0    0  0.74197158335E+02  0.28075457806E+01 -0.12876600229E+03  0.19421324353E+03  0.12500000000E+03 0.  0.
</event>
<event>
 5    0  0.5612316E-005  0.2520811E+03  0.7546771E-02  0.1111997E+00
         21   -1    0    0  502  501  0.00000000000E+00  0.00000000000E+00  0.35280484133E+03  0.35280484133E+03  0.00000000000E+00 0.  1.
         21   -1    0    0  501  502 -0.00000000000E+00 -0.00000000000E+00 -0.18011346912E+03  0.18011346912E+03  0.00000000000E+00 0.  1.
         25    1    1    2    0    0  0.21776091424E+02 -0.67319040457E+02  0.50856125235E+02  0.15237255934E+03  0.12500000000E+03 0.  0.
         25    1    1    2    0    0 -0.12777344768E+03  0.76286598690E+02  0.45892658906E+02  0.19969185064E+03  0.12500000000E+03 0.  0.
         25    1    1    2    0    0  0.10599735626E+03 -0.89675582330E+01  0.75942588069E+02  0.18085390047E+03  0.12500000000E+03 0.  0.
</event>
<event>
 5    0  0.5612316E-005  0.4155368E+03  0.7546771E-02  0.1038529E+00
         21   -1    0    0  502  501  0.00000000000E+00  0.00000000000E+00  0.26248121260E+03  0.26248121260E+03  0.00000000000E+00 0. -1.
         21   -1    0    0  501  502 -0.00000000000E+00 -0.00000000000E+00 -0.65784058691E+03  0.65784058691E+03  0.00000000000E+00 0. -1.
         25    1    1    2    0    0  0.20488000486E+02 -0.64993067542E+02 -0.15188917416E+03  0.20818063844E+03  0.12500000000E+03 0.  0.
         25    1    1    2    0    0 -0.15743982864E+03  0.24225184587E+03 -0.31551360210E+03  0.44569842896E+03  0.12500000000E+03 0.  0.
         25    1    1    2    0    0  0.13695182815E+03 -0.17725877832E+03  0.72043401965E+02  0.26644273211E+03  0.12500000000E+03 0.  0.
</event>
<event>
 5    0  0.5612316E-005  0.3041126E+03  0.7546771E-02  0.1083203E+00
         21   -1    0    0  502  501  0.00000000000E+00  0.00000000000E+00  0.18486419889E+04  0.18486419889E+04  0.00000000000E+00 0.  1.
         21   -1    0    0  501  502 -0.00000000000E+00 -0.00000000000E+00 -0.50028317638E+02  0.50028317638E+02  0.00000000000E+00 0.  1.
         25    1    1    2    0    0 -0.80789154720E+02  0.16993065417E+03  0.35858640631E+03  0.42380717966E+03  0.12500000000E+03 0.  0.
         25    1    1    2    0    0  0.27634710911E+02 -0.11476254911E+03  0.79754079104E+03  0.81586177341E+03  0.12500000000E+03 0.  0.
         25    1    1    2    0    0  0.53154443809E+02 -0.55168105059E+02  0.64248647393E+03  0.65900135348E+03  0.12500000000E+03 0.  0.
</event>
<event>
 5    0  0.5612316E-005  0.2721187E+03  0.7546771E-02  0.1100073E+00
         21   -1    0    0  502  501  0.00000000000E+00  0.00000000000E+00  0.30100119684E+03  0.30100119684E+03  0.00000000000E+00 0. -1.
         21   -1    0    0  501  502 -0.00000000000E+00 -0.00000000000E+00 -0.24600758896E+03  0.24600758896E+03  0.00000000000E+00 0. -1.
         25    1    1    2    0    0  0.61571973037E+02  0.65109036382E+02 -0.39225732045E+02  0.15872602980E+03  0.12500000000E+03 0.  0.
         25    1    1    2    0    0 -0.35174606262E+02 -0.16293859386E+03  0.90947348130E+02  0.22733820275E+03  0.12500000000E+03 0.  0.
         25    1    1    2    0    0 -0.26397366775E+02  0.97829557482E+02  0.32719917955E+01  0.16094455325E+03  0.12500000000E+03 0.  0.
</event>
<event>
 5    0  0.5612316E-005  0.2231117E+03  0.7546771E-02  0.1131584E+00
         21   -1    0    0  502  501  0.00000000000E+00  0.00000000000E+00  0.10497633317E+03  0.10497633317E+03  0.00000000000E+00 0. -1.
         21   -1    0    0  501  502 -0.00000000000E+00 -0.00000000000E+00 -0.47419117210E+03  0.47419117210E+03  0.00000000000E+00 0. -1.
         25    1    1    2    0    0  0.65419203363E+02 -0.71226985402E+02 -0.95860680623E+02  0.18484378731E+03  0.12500000000E+03 0.  0.
         25    1    1    2    0    0 -0.40054902185E+02  0.38517739586E+02 -0.74333741755E+02  0.15568723973E+03  0.12500000000E+03 0.  0.
         25    1    1    2    0    0 -0.25364301178E+02  0.32709245816E+02 -0.19902041656E+03  0.23863647823E+03  0.12500000000E+03 0.  0.
</event>
<event>
 5    0  0.5612316E-005  0.2440875E+03  0.7546771E-02  0.1117099E+00
         21   -1    0    0  502  501  0.00000000000E+00  0.00000000000E+00  0.52526395408E+02  0.52526395408E+02  0.00000000000E+00 0. -1.
         21   -1    0    0  501  502 -0.00000000000E+00 -0.00000000000E+00 -0.11342625555E+04  0.11342625555E+04  0.00000000000E+00 0. -1.
         25    1    1    2    0    0 -0.10715346088E+03  0.63454923966E+02 -0.48699174389E+03  0.51797137968E+03  0.12500000000E+03 0.  0.
         25    1    1    2    0    0  0.77279391487E+02 -0.76227345535E+02 -0.42058395769E+03  0.45199400220E+03  0.12500000000E+03 0.  0.
         25    1    1    2    0    0  0.29874069389E+02  0.12772421569E+02 -0.17416045849E+03  0.21682356900E+03  0.12500000000E+03 0.  0.
</event>
<event>
 5    0  0.5612316E-005  0.2896119E+03  0.7546771E-02  0.1090552E+00
         21   -1    0    0  502  501  0.00000000000E+00  0.00000000000E+00  0.83059441161E+03  0.83059441161E+03  0.00000000000E+00 0.  1.
         21   -1    0    0  501  502 -0.00000000000E+00 -0.00000000000E+00 -0.10098198406E+03  0.10098198406E+03  0.00000000000E+00 0.  1.
         25    1    1    2    0    0  0.16648891548E+02 -0.74711560922E+02  0.17657877368E+03  0.22948652736E+03  0.12500000000E+03 0.  0.
         25    1    1    2    0    0  0.54916058552E+02  0.61833637101E+02  0.21717851480E+02  0.15144582278E+03  0.12500000000E+03 0.  0.
         25    1    1    2    0    0 -0.71564950099E+02  0.12877923822E+02  0.53131580240E+03  0.55064404553E+03  0.12500000000E+03 0.  0.
</event>
<event>
 5    0  0.5612316E-005  0.3124953E+03  0.7546771E-02  0.1079156E+00
         21   -1    0    0  502  501  0.00000000000E+00  0.00000000000E+00  0.46776501083E+02  0.46776501083E+02  0.00000000000E+00 0.  1.
         21   -1    0    0  501  502 -0.00000000000E+00 -0.00000000000E+00 -0.20876578231E+04  0.20876578231E+04  0.00000000000E+00 0.  1.
         25    1    1    2    0    0  0.18108339345E+02 -0.92035839246E+02 -0.33706517852E+03  0.37153255878E+03  0.12500000000E+03 0.  0.
         25    1    1    2    0    0 -0.82044875278E+02  0.18419700307E+03 -0.58063569667E+03  0.62723417457E+03  0.12500000000E+03 0.  0.
         25    1    1    2    0    0  0.63936535933E+02 -0.92161163825E+02 -0.11231804468E+04  0.11356675908E+04  0.12500000000E+03 0.  0.
</event>
<event>
 5    0  0.5729114E-005  0.2831042E+03  0.7546771E-02  0.1094005E+00
         21   -1    0    0  502  501  0.00000000000E+00  0.00000000000E+00  0.69846272013E+03  0.69846272013E+03  0.00000000000E+00 0.  1.
         21   -1    0    0  501  502 -0.00000000000E+00 -0.00000000000E+00 -0.11474909369E+03  0.11474909369E+03  0.00000000000E+00 0.  1.
         25    1    1    2    0    0 -0.17673244088E+02 -0.10202825644E+03  0.89723864348E+02  0.18546557768E+03  0.12500000000E+03 0.  0.
         25    1    1    2    0    0 -0.18950322281E+02  0.27502724293E+02  0.45451687582E+03  0.47257391481E+03  0.12500000000E+03 0.  0.
         25    1    1    2    0    0  0.36623566369E+02  0.74525532150E+02  0.39472886268E+02  0.15517232133E+03  0.12500000000E+03 0.  0.
</event>
<event>
 5    0  0.5683514E-005  0.6156436E+03  0.7546771E-02  0.9873472E-01
         21   -1    0    0  502  501  0.00000000000E+00  0.00000000000E+00  0.50481623548E+03  0.50481623548E+03  0.00000000000E+00 0.  1.
         21   -1    0    0  501  502 -0.00000000000E+00 -0.00000000000E+00 -0.75080206729E+03  0.75080206729E+03  0.00000000000E+00 0.  1.
         25    1    1    2    0    0 -0.21910551936E+03 -0.60320095700E+02  0.10686018834E+03  0.28051709825E+03  0.12500000000E+03 0.  0.
         25    1    1    2    0    0 -0.40510983030E+02 -0.33866675586E+03 -0.31616337528E+03  0.48158134426E+03  0.12500000000E+03 0.  0.
         25    1    1    2    0    0  0.25961650239E+03  0.39898685156E+03 -0.36682644879E+02  0.49351986026E+03  0.12500000000E+03 0.  0.
</event>
<event>
 5    0  0.5612316E-005  0.2527893E+03  0.7546771E-02  0.1111555E+00
         21   -1    0    0  502  501  0.00000000000E+00  0.00000000000E+00  0.58789327900E+02  0.58789327900E+02  0.00000000000E+00 0. -1.
         21   -1    0    0  501  502 -0.00000000000E+00 -0.00000000000E+00 -0.10869731503E+04  0.10869731503E+04  0.00000000000E+00 0. -1.
         25    1    1    2    0    0 -0.39610137974E+02 -0.70556930797E+02 -0.43924856561E+03  0.46380119222E+03  0.12500000000E+03 0.  0.
         25    1    1    2    0    0  0.70423529439E+02  0.10984529805E+03 -0.46545864971E+03  0.49930173001E+03  0.12500000000E+03 0.  0.
         25    1    1    2    0    0 -0.30813391465E+02 -0.39288367251E+02 -0.12347660711E+03  0.18265955600E+03  0.12500000000E+03 0.  0.
</event>
<event>
 5    0  0.5612316E-005  0.2950300E+03  0.7546771E-02  0.1087752E+00
         21   -1    0    0  502  501  0.00000000000E+00  0.00000000000E+00  0.13937660790E+03  0.13937660790E+03  0.00000000000E+00 0. -1.
         21   -1    0    0  501  502 -0.00000000000E+00 -0.00000000000E+00 -0.62451426762E+03  0.62451426762E+03  0.00000000000E+00 0. -1.
         25    1    1    2    0    0 -0.87551550127E+02  0.12810354748E+03 -0.12012034866E+02  0.19961232875E+03  0.12500000000E+03 0.  0.
         25    1    1    2    0    0  0.61537618369E+02 -0.94570627632E+02 -0.32380394452E+03  0.36497188463E+03  0.12500000000E+03 0.  0.
         25    1    1    2    0    0  0.26013931758E+02 -0.33532919844E+02 -0.14932168033E+03  0.19930666215E+03  0.12500000000E+03 0.  0.
</event>
<event>
 5    0  0.5612316E-005  0.2982514E+03  0.7546771E-02  0.1086118E+00
         21   -1    0    0  502  501  0.00000000000E+00  0.00000000000E+00  0.11866961503E+04  0.11866961503E+04  0.00000000000E+00 0. -1.
         21   -1    0    0  501  502 -0.00000000000E+00 -0.00000000000E+00 -0.74959295916E+02  0.74959295916E+02  0.00000000000E+00 0. -1.
         25    1    1    2    0    0 -0.22937973733E+01  0.10162299320E+03  0.29639094356E+03  0.33735009364E+03  0.12500000000E+03 0.  0.
         25    1    1    2    0    0  0.11682924939E+03  0.76386365493E+02  0.39892910999E+03  0.44074185772E+03  0.12500000000E+03 0.  0.
         25    1    1    2    0    0 -0.11453545202E+03 -0.17800935869E+03  0.41641680087E+03  0.48356349490E+03  0.12500000000E+03 0.  0.
</event>
<event>
 5    0  0.5612316E-005  0.4193457E+03  0.7546771E-02  0.1037279E+00
         21   -1    0    0  502  501  0.00000000000E+00  0.00000000000E+00  0.65260099855E+03  0.65260099855E+03  0.00000000000E+00 0.  1.
         21   -1    0    0  501  502 -0.00000000000E+00 -0.00000000000E+00 -0.26946142156E+03  0.26946142156E+03  0.00000000000E+00 0.  1.
         25    1    1    2    0    0 -0.51186756790E+02  0.10860982644E+03  0.49360437783E+02  0.18021551345E+03  0.12500000000E+03 0.  0.
         25    1    1    2    0    0  0.31139246928E+03  0.37099606626E+02  0.19593730513E+03  0.39033072935E+03  0.12500000000E+03 0.  0.
         25    1    1    2    0    0 -0.26020571249E+03 -0.14570943307E+03  0.13784183408E+03  0.35151617732E+03  0.12500000000E+03 0.  0.
</event>
<event>
 5    0  0.5612316E-005  0.2779676E+03  0.7546771E-02  0.1096804E+00
         21   -1    0    0  502  501  0.00000000000E+00  0.00000000000E+00  0.56034093986E+02  0.56034093986E+02  0.00000000000E+00 0. -1.
         21   -1    0    0  501  502 -0.00000000000E+00 -0.00000000000E+00 -0.13789104084E+04  0.13789104084E+04  0.00000000000E+00 0. -1.
         25    1    1    2    0    0 -0.99012719935E+02  0.10368981253E+03 -0.38307500934E+03  0.42769914510E+03  0.12500000000E+03 0.  0.
         25    1    1    2    0    0  0.11877040513E+03  0.33302664499E+02 -0.47492575863E+03  0.50635457222E+03  0.12500000000E+03 0.  0.
         25    1    1    2    0    0 -0.19757685194E+02 -0.13699247703E+03 -0.46487554639E+03  0.50089078502E+03  0.12500000000E+03 0.  0.
</event>
<event>
 5    0  0.5612316E-005  0.3491888E+03  0.7546771E-02  0.1062948E+00
         21   -1    0    0  502  501  0.00000000000E+00  0.00000000000E+00  0.13930826032E+04  0.13930826032E+04  0.00000000000E+00 0.  1.
         21   -1    0    0  501  502 -0.00000000000E+00 -0.00000000000E+00 -0.87527336153E+02  0.87527336153E+02  0.00000000000E+00 0.  1.
         25    1    1    2    0    0 -0.56862569170E+02  0.54625808463E+02  0.51584268621E+03  0.53659668992E+03  0.12500000000E+03 0.  0.
         25    1    1    2    0    0  0.20517410807E+03 -0.21941623265E+02  0.67383600239E+03  0.71572187865E+03  0.12500000000E+03 0.  0.
         25    1    1    2    0    0 -0.14831153890E+03 -0.32684185198E+02  0.11587657842E+03  0.22829137075E+03  0.12500000000E+03 0.  0.
</event>
<event>
 5    0  0.5612316E-005  0.3096675E+03  0.7546771E-02  0.1080505E+00
         21   -1    0    0  502  501  0.00000000000E+00  0.00000000000E+00  0.19967549112E+03  0.19967549112E+03  0.00000000000E+00 0. -1.
         21   -1    0    0  501  502 -0.00000000000E+00 -0.00000000000E+00 -0.48024903826E+03  0.48024903826E+03  0.00000000000E+00 0. -1.
         25    1    1    2    0    0 -0.10848369880E+03 -0.33530547095E+02 -0.28018828363E+03  0.32714444023E+03  0.12500000000E+03 0.  0.
         25    1    1    2    0    0  0.11034651765E+03  0.10070782059E+03  0.51815310147E+02  0.20156449452E+03  0.12500000000E+03 0.  0.
         25    1    1    2    0    0 -0.18628188519E+01 -0.67177273492E+02 -0.52200573664E+02  0.15121559463E+03  0.12500000000E+03 0.  0.
</event>
<event>
 5    0  0.5612316E-005  0.3117910E+03  0.7546771E-02  0.1079491E+00
         21   -1    0    0  502  501  0.00000000000E+00  0.00000000000E+00  0.13968311184E+03  0.13968311184E+03  0.00000000000E+00 0. -1.
         21   -1    0    0  501  502 -0.00000000000E+00 -0.00000000000E+00 -0.69595834621E+03  0.69595834621E+03  0.00000000000E+00 0. -1.
         25    1    1    2    0    0 -0.16845589385E+03  0.97122835496E+02 -0.10836829924E+03  0.25530162872E+03  0.12500000000E+03 0.  0.
         25    1    1    2    0    0  0.18755333512E+03 -0.40542870306E+02 -0.25350008623E+03  0.34162445985E+03  0.12500000000E+03 0.  0.
         25    1    1    2    0    0 -0.19097441269E+02 -0.56579965191E+02 -0.19440684890E+03  0.23871536948E+03  0.12500000000E+03 0.  0.
</event>
<event>
 5    0  0.5612316E-005  0.4793905E+03  0.7546771E-02  0.1019303E+00
         21   -1    0    0  502  501  0.00000000000E+00  0.00000000000E+00  0.16996551934E+03  0.16996551934E+03  0.00000000000E+00 0. -1.
         21   -1    0    0  501  502 -0.00000000000E+00 -0.00000000000E+00 -0.13521287420E+04  0.13521287420E+04  0.00000000000E+00 0. -1.
         25    1    1    2    0    0  0.66928139075E+02  0.20258298611E+03  0.40019678202E+02  0.25049115095E+03  0.12500000000E+03 0.  0.
         25    1    1    2    0    0 -0.65369241566E+02 -0.15599139422E+03 -0.61598496299E+03  0.65089855387E+03  0.12500000000E+03 0.  0.
         25    1    1    2    0    0 -0.15588975090E+01 -0.46591591894E+02 -0.60619793783E+03  0.62070455647E+03  0.12500000000E+03 0.  0.
</event>
<event>
 5    0  0.5612316E-005  0.5184880E+03  0.7546771E-02  0.1009063E+00
         21   -1    0    0  502  501  0.00000000000E+00  0.00000000000E+00  0.53419965153E+03  0.53419965153E+03  0.00000000000E+00 0. -1.
         21   -1    0    0  501  502 -0.00000000000E+00 -0.00000000000E+00 -0.50323849890E+03  0.50323849890E+03  0.00000000000E+00 0. -1.
         25    1    1    2    0    0 -0.30232906801E+03 -0.73601021320E+01 -0.23712267361E+03  0.40411532860E+03  0.12500000000E+03 0.  0.
         25    1    1    2    0    0 -0.29256485771E+02 -0.13193408760E+03  0.14112304585E+03  0.23195529634E+03  0.12500000000E+03 0.  0.
         25    1    1    2    0    0  0.33158555378E+03  0.13929418973E+03  0.12696078038E+03  0.40136752550E+03  0.12500000000E+03 0.  0.
</event>
<event>
 5    0  0.5612316E-005  0.4190459E+03  0.7546771E-02  0.1037377E+00
         21   -1    0    0  502  501  0.00000000000E+00  0.00000000000E+00  0.60364681847E+03  0.60364681847E+03  0.00000000000E+00 0.  1.
         21   -1    0    0  501  502 -0.00000000000E+00 -0.00000000000E+00 -0.29089776036E+03  0.29089776036E+03  0.00000000000E+00 0.  1.
         25    1    1    2    0    0 -0.16215702791E+03 -0.17709983768E+03  0.33421914239E+03  0.43010078975E+03  0.12500000000E+03 0.  0.
         25    1    1    2    0    0  0.62196216004E+02  0.32741098771E+02 -0.15478653638E+03  0.21100763180E+03  0.12500000000E+03 0.  0.
         25    1    1    2    0    0  0.99960811904E+02  0.14435873890E+03  0.13331645210E+03  0.25343615728E+03  0.12500000000E+03 0.  0.
</event>
<event>
 5    0  0.5612316E-005  0.2839074E+03  0.7546771E-02  0.1093574E+00
         21   -1    0    0  502  501  0.00000000000E+00  0.00000000000E+00  0.30746481295E+03  0.30746481295E+03  0.00000000000E+00 0. -1.
         21   -1    0    0  501  502 -0.00000000000E+00 -0.00000000000E+00 -0.26215493494E+03  0.26215493494E+03  0.00000000000E+00 0. -1.
         25    1    1    2    0    0  0.98218522544E+02  0.67531490031E+02 -0.62266539776E+02  0.18360147682E+03  0.12500000000E+03 0.  0.
         25    1    1    2    0    0 -0.38209716399E+02 -0.15065521631E+03  0.10255424018E+03  0.22427516315E+03  0.12500000000E+03 0.  0.
         25    1    1    2    0    0 -0.60008806145E+02  0.83123726282E+02  0.50221776106E+01  0.16174310790E+03  0.12500000000E+03 0.  0.
</event>
<event>
 5    0  0.6648114E-005  0.3322303E+03  0.7546771E-02  0.1070154E+00
         21   -1    0    0  502  501  0.00000000000E+00  0.00000000000E+00  0.13302387285E+03  0.13302387285E+03  0.00000000000E+00 0. -1.
         21   -1    0    0  501  502 -0.00000000000E+00 -0.00000000000E+00 -0.82975330291E+03  0.82975330291E+03  0.00000000000E+00 0. -1.
         25    1    1    2    0    0 -0.23763456327E+02 -0.13674927048E+03 -0.22744093049E+03  0.29431181032E+03  0.12500000000E+03 0.  0.
         25    1    1    2    0    0 -0.10614434161E+03 -0.43484206576E+02 -0.48446415982E+02  0.17643568998E+03  0.12500000000E+03 0.  0.
         25    1    1    2    0    0  0.12990779793E+03  0.18023347706E+03 -0.42084208359E+03  0.49202967546E+03  0.12500000000E+03 0.  0.
</event>
<event>
 5    0  0.5612316E-005  0.3430589E+03  0.7546771E-02  0.1065501E+00
         21   -1    0    0  502  501  0.00000000000E+00  0.00000000000E+00  0.20014034516E+03  0.20014034516E+03  0.00000000000E+00 0. -1.
         21   -1    0    0  501  502 -0.00000000000E+00 -0.00000000000E+00 -0.58803436955E+03  0.58803436955E+03  0.00000000000E+00 0. -1.
         25    1    1    2    0    0 -0.17311518040E+03 -0.77521459673E+02  0.42712452255E+02  0.23114453481E+03  0.12500000000E+03 0.  0.
         25    1    1    2    0    0  0.31784930015E+02 -0.34205899249E+02 -0.14680293641E+03  0.19838454440E+03  0.12500000000E+03 0.  0.
         25    1    1    2    0    0  0.14133025039E+03  0.11172735892E+03 -0.28380354024E+03  0.35864563549E+03  0.12500000000E+03 0.  0.
</event>
<event>
 5    0  0.5612316E-005  0.4429630E+03  0.7546771E-02  0.1029842E+00
         21   -1    0    0  502  501  0.00000000000E+00  0.00000000000E+00  0.18004275215E+03  0.18004275215E+03  0.00000000000E+00 0.  1.
         21   -1    0    0  501  502 -0.00000000000E+00 -0.00000000000E+00 -0.10898312489E+04  0.10898312489E+04  0.00000000000E+00 0.  1.
         25    1    1    2    0    0 -0.72043745186E+01  0.19439746073E+02 -0.11160154432E+03  0.16884819050E+03  0.12500000000E+03 0.  0.
         25    1    1    2    0    0  0.35139761222E+03 -0.54896783884E+02 -0.50720069142E+03  0.63195844811E+03  0.12500000000E+03 0.  0.
         25    1    1    2    0    0 -0.34419323770E+03  0.35457037811E+02 -0.29098626098E+03  0.46906736242E+03  0.12500000000E+03 0.  0.
</event>
<event>
 5    0  0.5612316E-005  0.2444708E+03  0.7546771E-02  0.1116850E+00
         21   -1    0    0  502  501  0.00000000000E+00  0.00000000000E+00  0.76034026800E+02  0.76034026800E+02  0.00000000000E+00 0. -1.
         21   -1    0    0  501  502 -0.00000000000E+00 -0.00000000000E+00 -0.78604241949E+03  0.78604241949E+03  0.00000000000E+00 0. -1.
         25    1    1    2    0    0 -0.30261497058E+01 -0.12494314086E+03 -0.26624916416E+03  0.31958342173E+03  0.12500000000E+03 0.  0.
         25    1    1    2    0    0  0.39900330230E+01  0.10471658637E+03 -0.34599008141E+03  0.38251224851E+03  0.12500000000E+03 0.  0.
         25    1    1    2    0    0 -0.96388331722E+00  0.20226554487E+02 -0.97769147117E+02  0.15998077605E+03  0.12500000000E+03 0.  0.
</event>
<event>
 5    0  0.5612316E-005  0.3608735E+03  0.7546771E-02  0.1058239E+00
         21   -1    0    0  502  501  0.00000000000E+00  0.00000000000E+00  0.49641978159E+03  0.49641978159E+03  0.00000000000E+00 0.  1.
         21   -1    0    0  501  502 -0.00000000000E+00 -0.00000000000E+00 -0.26233785107E+03  0.26233785107E+03  0.00000000000E+00 0.  1.
         25    1    1    2    0    0 -0.23020708602E+02  0.50733840236E+02 -0.83613235006E+02  0.16037471321E+03  0.12500000000E+03 0.  0.
         25    1    1    2    0    0  0.14850143712E+02 -0.17692160880E+03 -0.18649033894E+02  0.21793248701E+03  0.12500000000E+03 0.  0.
         25    1    1    2    0    0  0.81705648892E+01  0.12618776856E+03  0.33634419941E+03  0.38045043244E+03  0.12500000000E+03 0.  0.
</event>
<event>
 5    0  0.5612316E-005  0.3431602E+03  0.7546771E-02  0.1065458E+00
         21   -1    0    0  502  501  0.00000000000E+00  0.00000000000E+00  0.16510025161E+04  0.16510025161E+04  0.00000000000E+00 0.  1.
         21   -1    0    0  501  502 -0.00000000000E+00 -0.00000000000E+00 -0.71325699743E+02  0.71325699743E+02  0.00000000000E+00 0.  1.
         25    1    1    2    0    0  0.16800652120E+03  0.38647977542E+02  0.89450680311E+03  0.91950382171E+03  0.12500000000E+03 0.  0.
         25    1    1    2    0    0 -0.23188722097E+03  0.27620248037E+01  0.51425049367E+03  0.57780436332E+03  0.12500000000E+03 0.  0.
         25    1    1    2    0    0  0.63880699771E+02 -0.41410002345E+02  0.17091951961E+03  0.22502003084E+03  0.12500000000E+03 0.  0.
</event>
<event>
 5    0  0.5612316E-005  0.3931823E+03  0.7546771E-02  0.1046166E+00
         21   -1    0    0  502  501  0.00000000000E+00  0.00000000000E+00  0.80259377591E+02  0.80259377591E+02  0.00000000000E+00 0.  1.
         21   -1    0    0  501  502 -0.00000000000E+00 -0.00000000000E+00 -0.19261587919E+04  0.19261587919E+04  0.00000000000E+00 0.  1.
         25    1    1    2    0    0  0.57726246644E+02 -0.10503743503E+03 -0.18370226104E+03  0.25246129014E+03  0.12500000000E+03 0.  0.
         25    1    1    2    0    0  0.11161799594E+03  0.10737679586E+03 -0.22077229188E+03  0.29724360072E+03  0.12500000000E+03 0.  0.
         25    1    1    2    0    0 -0.16934424259E+03 -0.23393608296E+01 -0.14414248614E+04  0.14567132786E+04  0.12500000000E+03 0.  0.
</event>
<event>
 5    0  0.5612316E-005  0.2768550E+03  0.7546771E-02  0.1097419E+00
         21   -1    0    0  502  501  0.00000000000E+00  0.00000000000E+00  0.52181544380E+03  0.52181544380E+03  0.00000000000E+00 0.  1.
         21   -1    0    0  501  502 -0.00000000000E+00 -0.00000000000E+00 -0.14688848761E+03  0.14688848761E+03  0.00000000000E+00 0.  1.
         25    1    1    2    0    0 -0.23859602889E+02  0.93592970716E+00  0.17442145638E+03  0.21591202157E+03  0.12500000000E+03 0.  0.
         25    1    1    2    0    0 -0.50749765177E+02  0.13575745867E+03  0.37528492530E+02  0.19503593003E+03  0.12500000000E+03 0.  0.
         25    1    1    2    0    0  0.74609368066E+02 -0.13669338838E+03  0.16297700728E+03  0.25775597981E+03  0.12500000000E+03 0.  0.
</event>
<event>
 5    0  0.5612316E-005  0.2825493E+03  0.7546771E-02  0.1094305E+00
         21   -1    0    0  502  501  0.00000000000E+00  0.00000000000E+00  0.43987112949E+03  0.43987112949E+03  0.00000000000E+00 0.  1.
         21   -1    0    0  501  502 -0.00000000000E+00 -0.00000000000E+00 -0.18149425246E+03  0.18149425246E+03  0.00000000000E+00 0.  1.
         25    1    1    2    0    0  0.18267613723E+02 -0.11855092297E+03  0.23254187165E+02  0.17479640806E+03  0.12500000000E+03 0.  0.
         25    1    1    2    0    0 -0.50783386140E+02  0.12623630739E+03  0.77164053018E+01  0.18492998817E+03  0.12500000000E+03 0.  0.
         25    1    1    2    0    0  0.32515772417E+02 -0.76853844234E+01  0.22740628457E+03  0.26163898573E+03  0.12500000000E+03 0.  0.
</event>
<event>
 5    0  0.5612316E-005  0.2589694E+03  0.7546771E-02  0.1107764E+00
         21   -1    0    0  502  501  0.00000000000E+00  0.00000000000E+00  0.94036987793E+02  0.94036987793E+02  0.00000000000E+00 0. -1.
         21   -1    0    0  501  502 -0.00000000000E+00 -0.00000000000E+00 -0.71317838005E+03  0.71317838005E+03  0.00000000000E+00 0. -1.
         25    1    1    2    0    0  0.11074580586E+03 -0.87578675051E+02 -0.14981083481E+03  0.24083800378E+03  0.12500000000E+03 0.  0.
         25    1    1    2    0    0 -0.11072039866E+03  0.90379024763E+02 -0.31442116126E+03  0.36730510675E+03  0.12500000000E+03 0.  0.
         25    1    1    2    0    0 -0.25407202456E-01 -0.28003497122E+01 -0.15490939618E+03  0.19907225731E+03  0.12500000000E+03 0.  0.
</event>
<event>
 5    0  0.5612316E-005  0.4598915E+03  0.7546771E-02  0.1024813E+00
         21   -1    0    0  502  501  0.00000000000E+00  0.00000000000E+00  0.94766187997E+03  0.94766187997E+03  0.00000000000E+00 0. -1.
         21   -1    0    0  501  502 -0.00000000000E+00 -0.00000000000E+00 -0.22318109019E+03  0.22318109019E+03  0.00000000000E+00 0. -1.
         25    1    1    2    0    0 -0.73245369183E+01  0.20511035793E+02 -0.13971747745E+02  0.12765015145E+03  0.12500000000E+03 0.  0.
         25    1    1    2    0    0 -0.12594845455E+03  0.14945699588E+03  0.75816141133E+03  0.79286451077E+03  0.12500000000E+03 0.  0.
         25    1    1    2    0    0  0.13327299147E+03 -0.16996803167E+03 -0.19708873803E+02  0.25032830793E+03  0.12500000000E+03 0.  0.
</event>
<event>
 5    0  0.6647059E-005  0.2947255E+03  0.7546771E-02  0.1087907E+00
         21   -1    0    0  502  501  0.00000000000E+00  0.00000000000E+00  0.21615505949E+03  0.21615505949E+03  0.00000000000E+00 0. -1.
         21   -1    0    0  501  502 -0.00000000000E+00 -0.00000000000E+00 -0.40185559677E+03  0.40185559677E+03  0.00000000000E+00 0. -1.
         25    1    1    2    0    0 -0.83692274479E+02  0.15799480580E+03 -0.18744727870E+03  0.28762516886E+03  0.12500000000E+03 0.  0.
         25    1    1    2    0    0  0.93602498274E+02 -0.77519148545E+02  0.34764629408E+02  0.17777577319E+03  0.12500000000E+03 0.  0.
         25    1    1    2    0    0 -0.99102237953E+01 -0.80475657259E+02 -0.33017887987E+02  0.15260971422E+03  0.12500000000E+03 0.  0.
</event>
<event>
 5    0  0.5612316E-005  0.9144824E+03  0.7546771E-02  0.9407657E-01
         21   -1    0    0  502  501  0.00000000000E+00  0.00000000000E+00  0.10823927640E+04  0.10823927640E+04  0.00000000000E+00 0. -1.
         21   -1    0    0  501  502 -0.00000000000E+00 -0.00000000000E+00 -0.77261983397E+03  0.77261983397E+03  0.00000000000E+00 0. -1.
         25    1    1    2    0    0 -0.70522181096E+03  0.39997057139E+03 -0.18596424656E+03  0.84114324680E+03  0.12500000000E+03 0.  0.
         25    1    1    2    0    0  0.14925759310E+03 -0.41036010135E+02  0.18685097448E+03  0.27294700930E+03  0.12500000000E+03 0.  0.
         25    1    1    2    0    0  0.55596421787E+03 -0.35893456125E+03  0.30888620210E+03  0.74092234185E+03  0.12500000000E+03 0.  0.
</event>
<event>
 5    0  0.5612316E-005  0.2601060E+03  0.7546771E-02  0.1107080E+00
         21   -1    0    0  502  501  0.00000000000E+00  0.00000000000E+00  0.15774745281E+04  0.15774745281E+04  0.00000000000E+00 0. -1.
         21   -1    0    0  501  502 -0.00000000000E+00 -0.00000000000E+00 -0.42888243182E+02  0.42888243182E+02  0.00000000000E+00 0. -1.
         25    1    1    2    0    0  0.31955162159E+02  0.75835377944E+02  0.67393111327E+03  0.69034794297E+03  0.12500000000E+03 0.  0.
         25    1    1    2    0    0  0.10157413749E+03 -0.37334129516E+02  0.38963687745E+03  0.42326473856E+03  0.12500000000E+03 0.  0.
         25    1    1    2    0    0 -0.13352929965E+03 -0.38501248428E+02  0.47101829418E+03  0.50675008973E+03  0.12500000000E+03 0.  0.
</event>
<event>
 5    0  0.5612316E-005  0.3042023E+03  0.7546771E-02  0.1083159E+00
         21   -1    0    0  502  501  0.00000000000E+00  0.00000000000E+00  0.16646375463E+03  0.16646375463E+03  0.00000000000E+00 0.  1.
         21   -1    0    0  501  502 -0.00000000000E+00 -0.00000000000E+00 -0.55591111487E+03  0.55591111487E+03  0.00000000000E+00 0.  1.
         25    1    1    2    0    0 -0.11353584054E+03  0.15099139633E+03 -0.14427070913E+03  0.26856624205E+03  0.12500000000E+03 0.  0.
         25    1    1    2    0    0 -0.52875777450E+02 -0.55840973909E+02 -0.56685341159E+02  0.15732860551E+03  0.12500000000E+03 0.  0.
         25    1    1    2    0    0  0.16641161799E+03 -0.95150422420E+02 -0.18849130995E+03  0.29648002195E+03  0.12500000000E+03 0.  0.
</event>
<event>
 5    0  0.5612316E-005  0.3526448E+03  0.7546771E-02  0.1061535E+00
         21   -1    0    0  502  501  0.00000000000E+00  0.00000000000E+00  0.12439242605E+03  0.12439242605E+03  0.00000000000E+00 0. -1.
         21   -1    0    0  501  502 -0.00000000000E+00 -0.00000000000E+00 -0.99972608834E+03  0.99972608834E+03  0.00000000000E+00 0. -1.
         25    1    1    2    0    0  0.20445188597E+03  0.15185564560E+03 -0.44516960598E+03  0.52788416236E+03  0.12500000000E+03 0.  0.
         25    1    1    2    0    0 -0.75438923710E+02  0.37740797087E+02 -0.13895761991E+03  0.20506003781E+03  0.12500000000E+03 0.  0.
         25    1    1    2    0    0 -0.12901296226E+03 -0.18959644269E+03 -0.29120643639E+03  0.39117431422E+03  0.12500000000E+03 0.  0.
</event>
<event>
 5    0  0.5612316E-005  0.2250302E+03  0.7546771E-02  0.1130187E+00
         21   -1    0    0  502  501  0.00000000000E+00  0.00000000000E+00  0.13830409121E+04  0.13830409121E+04  0.00000000000E+00 0. -1.
         21   -1    0    0  501  502 -0.00000000000E+00 -0.00000000000E+00 -0.36613943952E+02  0.36613943952E+02  0.00000000000E+00 0. -1.
         25    1    1    2    0    0  0.28962397452E+02  0.26833413168E+02  0.18688060048E+03  0.22827223082E+03  0.12500000000E+03 0.  0.
         25    1    1    2    0    0  0.10970200141E+02 -0.46666647530E+02  0.44841309155E+03  0.46797160379E+03  0.12500000000E+03 0.  0.
         25    1    1    2    0    0 -0.39932597593E+02  0.19833234362E+02  0.71113327614E+03  0.72341102146E+03  0.12500000000E+03 0.  0.
</event>
<event>
 5    0  0.5612316E-005  0.2920019E+03  0.7546771E-02  0.1089309E+00
         21   -1    0    0  502  501  0.00000000000E+00  0.00000000000E+00  0.61772610115E+03  0.61772610115E+03  0.00000000000E+00 0.  1.
         21   -1    0    0  501  502 -0.00000000000E+00 -0.00000000000E+00 -0.13803061700E+03  0.13803061700E+03  0.00000000000E+00 0.  1.
         25    1    1    2    0    0  0.35973226313E+02  0.15007303394E+03  0.10561358668E+03  0.22493380853E+03  0.12500000000E+03 0.  0.
         25    1    1    2    0    0 -0.47323230464E+02 -0.50731392980E+02  0.22772071751E+02  0.14476439351E+03  0.12500000000E+03 0.  0.
         25    1    1    2    0    0  0.11350004151E+02 -0.99341640963E+02  0.35130982572E+03  0.38605851612E+03  0.12500000000E+03 0.  0.
</event>
<event>
 5    0  0.5612316E-005  0.2351862E+03  0.7546771E-02  0.1123042E+00
         21   -1    0    0  502  501  0.00000000000E+00  0.00000000000E+00  0.75629858346E+03  0.75629858346E+03  0.00000000000E+00 0. -1.
         21   -1    0    0  501  502 -0.00000000000E+00 -0.00000000000E+00 -0.73135858528E+02  0.73135858528E+02  0.00000000000E+00 0. -1.
         25    1    1    2    0    0 -0.78758019262E+02  0.37574118252E+02  0.33863228935E+03  0.37136433236E+03  0.12500000000E+03 0.  0.
         25    1    1    2    0    0  0.91865437698E+02 -0.32928392801E+02  0.26633527795E+03  0.30997260843E+03  0.12500000000E+03 0.  0.
         25    1    1    2    0    0 -0.13107418436E+02 -0.46457254504E+01  0.78195157630E+02  0.14809750119E+03  0.12500000000E+03 0.  0.
</event>
<event>
 5    0  0.5612316E-005  0.2872710E+03  0.7546771E-02  0.1091783E+00
         21   -1    0    0  502  501  0.00000000000E+00  0.00000000000E+00  0.19731458951E+03  0.19731458951E+03  0.00000000000E+00 0. -1.
         21   -1    0    0  501  502 -0.00000000000E+00 -0.00000000000E+00 -0.41823896009E+03  0.41823896009E+03  0.00000000000E+00 0. -1.
         25    1    1    2    0    0 -0.13684903849E+03  0.11323877188E+03 -0.19899774102E+03  0.29457728990E+03  0.12500000000E+03 0.  0.
         25    1    1    2    0    0  0.52400617565E+02 -0.14794318746E+02 -0.33739184969E+02  0.14045650284E+03  0.12500000000E+03 0.  0.
         25    1    1    2    0    0  0.84448420921E+02 -0.98444453138E+02  0.11812555406E+02  0.18051975685E+03  0.12500000000E+03 0.  0.
</event>
<event>
 5    0  0.5612316E-005  0.3046738E+03  0.7546771E-02  0.1082927E+00
         21   -1    0    0  502  501  0.00000000000E+00  0.00000000000E+00  0.33312545682E+03  0.33312545682E+03  0.00000000000E+00 0. -1.
         21   -1    0    0  501  502 -0.00000000000E+00 -0.00000000000E+00 -0.27865212239E+03  0.27865212239E+03  0.00000000000E+00 0. -1.
         25    1    1    2    0    0 -0.15791509735E+03  0.64481192397E+02  0.12232722449E+03  0.24430299219E+03  0.12500000000E+03 0.  0.
         25    1    1    2    0    0  0.89378931234E+01 -0.72711242726E+02 -0.91558670569E+02  0.17139078420E+03  0.12500000000E+03 0.  0.
         25    1    1    2    0    0  0.14897720422E+03  0.82300503290E+01  0.23704780507E+02  0.19608380281E+03  0.12500000000E+03 0.  0.
</event>
<event>
 5    0  0.5612316E-005  0.3184882E+03  0.7546771E-02  0.1076347E+00
         21   -1    0    0  502  501  0.00000000000E+00  0.00000000000E+00  0.40257078287E+03  0.40257078287E+03  0.00000000000E+00 0.  1.
         21   -1    0    0  501  502 -0.00000000000E+00 -0.00000000000E+00 -0.25196749956E+03  0.25196749956E+03  0.00000000000E+00 0.  1.
         25    1    1    2    0    0  0.15055373414E+03 -0.17581937507E+03 -0.15801419837E+02  0.26354044165E+03  0.12500000000E+03 0.  0.
         25    1    1    2    0    0 -0.12017672911E+03  0.89085916194E+02  0.64336721775E+02  0.20528750681E+03  0.12500000000E+03 0.  0.
         25    1    1    2    0    0 -0.30377005035E+02  0.86733458879E+02  0.10206798137E+03  0.18571033397E+03  0.12500000000E+03 0.  0.
</event>
<event>
 5    0  0.5612316E-005  0.2807889E+03  0.7546771E-02  0.1095259E+00
         21   -1    0    0  502  501  0.00000000000E+00  0.00000000000E+00  0.10738403168E+03  0.10738403168E+03  0.00000000000E+00 0.  1.
         21   -1    0    0  501  502 -0.00000000000E+00 -0.00000000000E+00 -0.73420985365E+03  0.73420985365E+03  0.00000000000E+00 0.  1.
         25    1    1    2    0    0  0.33207269856E+02 -0.21721144294E+02 -0.26031229894E+03  0.29148245892E+03  0.12500000000E+03 0.  0.
         25    1    1    2    0    0 -0.18806720721E+02  0.34911895492E+02 -0.39857612795E+03  0.41959559455E+03  0.12500000000E+03 0.  0.
         25    1    1    2    0    0 -0.14400549136E+02 -0.13190751198E+02  0.32062604920E+02  0.13051583186E+03  0.12500000000E+03 0.  0.
</event>
<event>
 5    0  0.5612316E-005  0.2307522E+03  0.7546771E-02  0.1126111E+00
         21   -1    0    0  502  501  0.00000000000E+00  0.00000000000E+00  0.76544362665E+02  0.76544362665E+02  0.00000000000E+00 0.  1.
         21   -1    0    0  501  502 -0.00000000000E+00 -0.00000000000E+00 -0.69563027302E+03  0.69563027302E+03  0.00000000000E+00 0.  1.
         25    1    1    2    0    0  0.19160748296E+02 -0.10822708288E+03 -0.21739687507E+03  0.27380035981E+03  0.12500000000E+03 0.  0.
         25    1    1    2    0    0 -0.51856651460E+02  0.46254528039E+02 -0.14065028571E+03  0.20058937294E+03  0.12500000000E+03 0.  0.
         25    1    1    2    0    0  0.32695903163E+02  0.61972554839E+02 -0.26103874958E+03  0.29778490294E+03  0.12500000000E+03 0.  0.
</event>
<event>
 5    0  0.5612316E-005  0.2871363E+03  0.7546771E-02  0.1091854E+00
         21   -1    0    0  502  501  0.00000000000E+00  0.00000000000E+00  0.48783261224E+03  0.48783261224E+03  0.00000000000E+00 0. -1.
         21   -1    0    0  501  502 -0.00000000000E+00 -0.00000000000E+00 -0.16900722043E+03  0.16900722043E+03  0.00000000000E+00 0. -1.
         25    1    1    2    0    0  0.79479010811E+00  0.12951169243E+03  0.69844315761E+02  0.19307288420E+03  0.12500000000E+03 0.  0.
         25    1    1    2    0    0 -0.11292384792E+03 -0.38733062592E+02  0.33808828413E+02  0.17612518970E+03  0.12500000000E+03 0.  0.
         25    1    1    2    0    0  0.11212905782E+03 -0.90778629841E+02  0.21517224764E+03  0.28764175878E+03  0.12500000000E+03 0.  0.
</event>
<event>
 5    0  0.5612316E-005  0.2490916E+03  0.7546771E-02  0.1113880E+00
         21   -1    0    0  502  501  0.00000000000E+00  0.00000000000E+00  0.23551816951E+03  0.23551816951E+03  0.00000000000E+00 0. -1.
         21   -1    0    0  501  502 -0.00000000000E+00 -0.00000000000E+00 -0.26344721146E+03  0.26344721146E+03  0.00000000000E+00 0. -1.
         25    1    1    2    0    0 -0.34805527150E+02  0.25902041051E+01  0.11462278919E+03  0.17315171867E+03  0.12500000000E+03 0.  0.
         25    1    1    2    0    0 -0.29803018064E+02  0.52196579205E+02 -0.92582085494E+02  0.16676074275E+03  0.12500000000E+03 0.  0.
         25    1    1    2    0    0  0.64608545214E+02 -0.54786783310E+02 -0.49969745633E+02  0.15905291955E+03  0.12500000000E+03 0.  0.
</event>
<event>
 5    0  0.5612316E-005  0.3253637E+03  0.7546771E-02  0.1073207E+00
         21   -1    0    0  502  501  0.00000000000E+00  0.00000000000E+00  0.75629285725E+03  0.75629285725E+03  0.00000000000E+00 0. -1.
         21   -1    0    0  501  502 -0.00000000000E+00 -0.00000000000E+00 -0.13997429582E+03  0.13997429582E+03  0.00000000000E+00 0. -1.
         25    1    1    2    0    0 -0.13681596329E+03 -0.38960174475E+02  0.54573220647E+03  0.57765486597E+03  0.12500000000E+03 0.  0.
         25    1    1    2    0    0  0.11226130405E+03  0.59637273931E+02  0.17762334388E+02  0.17916390639E+03  0.12500000000E+03 0.  0.
         25    1    1    2    0    0  0.24554659238E+02 -0.20677099456E+02  0.52824020582E+02  0.13944838071E+03  0.12500000000E+03 0.  0.
</event>
<event>
 5    0  0.5612316E-005  0.4491031E+03  0.7546771E-02  0.1027990E+00
         21   -1    0    0  502  501  0.00000000000E+00  0.00000000000E+00  0.36280148506E+03  0.36280148506E+03  0.00000000000E+00 0.  1.
         21   -1    0    0  501  502 -0.00000000000E+00 -0.00000000000E+00 -0.55593383160E+03  0.55593383160E+03  0.00000000000E+00 0.  1.
         25    1    1    2    0    0  0.16252270577E+03 -0.23827350193E+03  0.96849620587E+02  0.32892664930E+03  0.12500000000E+03 0.  0.
         25    1    1    2    0    0 -0.24322377492E+03  0.10515859887E+03 -0.88247322305E+02  0.30598811332E+03  0.12500000000E+03 0.  0.
         25    1    1    2    0    0  0.80701069149E+02  0.13311490306E+03 -0.20173464482E+03  0.28382055404E+03  0.12500000000E+03 0.  0.
</event>
<event>
 5    0  0.5612316E-005  0.2612006E+03  0.7546771E-02  0.1106424E+00
         21   -1    0    0  502  501  0.00000000000E+00  0.00000000000E+00  0.85412544978E+03  0.85412544978E+03  0.00000000000E+00 0. -1.
         21   -1    0    0  501  502 -0.00000000000E+00 -0.00000000000E+00 -0.79877881053E+02  0.79877881053E+02  0.00000000000E+00 0.  1.
         25    1    1    2    0    0 -0.63971169906E+02 -0.50572941540E+02  0.23022416572E+03  0.27436854680E+03  0.12500000000E+03 0.  0.
         25    1    1    2    0    0  0.15440067803E+03  0.82652904396E+02  0.30109461859E+03  0.37007302161E+03  0.12500000000E+03 0.  0.
         25    1    1    2    0    0 -0.90429508120E+02 -0.32079962856E+02  0.24292878442E+03  0.28956176242E+03  0.12500000000E+03 0.  0.
</event>
<event>
 5    0  0.5612316E-005  0.3949855E+03  0.7546771E-02  0.1045530E+00
         21   -1    0    0  502  501  0.00000000000E+00  0.00000000000E+00  0.25238657051E+03  0.25238657051E+03  0.00000000000E+00 0.  1.
         21   -1    0    0  501  502 -0.00000000000E+00 -0.00000000000E+00 -0.61815300775E+03  0.61815300775E+03  0.00000000000E+00 0.  1.
         25    1    1    2    0    0 -0.13554653144E+03  0.98780945269E+02 -0.11275875868E+03  0.23763433042E+03  0.12500000000E+03 0.  0.
         25    1    1    2    0    0  0.21272589895E+03 -0.22815610985E+03 -0.31854282097E+02  0.33756068170E+03  0.12500000000E+03 0.  0.
         25    1    1    2    0    0 -0.77179367504E+02  0.12937516458E+03 -0.22115339647E+03  0.29534456614E+03  0.12500000000E+03 0.  0.
</event>
<event>
 5    0  0.5612316E-005  0.3708542E+03  0.7546771E-02  0.1054367E+00
         21   -1    0    0  502  501  0.00000000000E+00  0.00000000000E+00  0.11677994261E+04  0.11677994261E+04  0.00000000000E+00 0.  1.
         21   -1    0    0  501  502 -0.00000000000E+00 -0.00000000000E+00 -0.11777094867E+03  0.11777094867E+03  0.00000000000E+00 0.  1.
         25    1    1    2    0    0 -0.69172401882E+02  0.70694115312E+02  0.26959596186E+03  0.31319237183E+03  0.12500000000E+03 0.  0.
         25    1    1    2    0    0 -0.22349612288E+03 -0.14498164040E+02  0.36291807872E+03  0.44440437167E+03  0.12500000000E+03 0.  0.
         25    1    1    2    0    0  0.29266852476E+03 -0.56195951272E+02  0.41751443682E+03  0.52797363124E+03  0.12500000000E+03 0.  0.
</event>
<event>
 5    0  0.5612316E-005  0.3137599E+03  0.7546771E-02  0.1078558E+00
         21   -1    0    0  502  501  0.00000000000E+00  0.00000000000E+00  0.10946507814E+03  0.10946507814E+03  0.00000000000E+00 0.  1.
         21   -1    0    0  501  502 -0.00000000000E+00 -0.00000000000E+00 -0.89933064954E+03  0.89933064954E+03  0.00000000000E+00 0.  1.
         25    1    1    2    0    0  0.29560813178E+02  0.11372708223E+03 -0.81423843663E+02  0.18990137763E+03  0.12500000000E+03 0.  0.
         25    1    1    2    0    0 -0.11369360412E+03 -0.15622155423E+03 -0.54977805581E+03  0.59599691297E+03  0.12500000000E+03 0.  0.
         25    1    1    2    0    0  0.84132790941E+02  0.42494472000E+02 -0.15866367193E+03  0.22289743707E+03  0.12500000000E+03 0.  0.
</event>
<event>
 5    0  0.5612316E-005  0.3960225E+03  0.7546771E-02  0.1045166E+00
         21   -1    0    0  502  501  0.00000000000E+00  0.00000000000E+00  0.15837485546E+03  0.15837485546E+03  0.00000000000E+00 0.  1.
         21   -1    0    0  501  502 -0.00000000000E+00 -0.00000000000E+00 -0.99026947805E+03  0.99026947805E+03  0.00000000000E+00 0.  1.
         25    1    1    2    0    0 -0.21308491889E+03  0.13722056205E+02 -0.30422627971E+03  0.39213786702E+03  0.12500000000E+03 0.  0.
         25    1    1    2    0    0  0.87915092116E+00  0.15672617208E+03 -0.36308222928E+03  0.41475001042E+03  0.12500000000E+03 0.  0.
         25    1    1    2    0    0  0.21220576797E+03 -0.17044822828E+03 -0.16458611360E+03  0.34175645608E+03  0.12500000000E+03 0.  0.
</event>
<event>
 5    0  0.5612316E-005  0.2759441E+03  0.7546771E-02  0.1097925E+00
         21   -1    0    0  502  501  0.00000000000E+00  0.00000000000E+00  0.62740792727E+02  0.62740792727E+02  0.00000000000E+00 0. -1.
         21   -1    0    0  501  502 -0.00000000000E+00 -0.00000000000E+00 -0.12136465004E+04  0.12136465004E+04  0.00000000000E+00 0. -1.
         25    1    1    2    0    0 -0.12729815864E+02  0.86299998033E+02 -0.37433890402E+03  0.40418356342E+03  0.12500000000E+03 0.  0.
         25    1    1    2    0    0 -0.56702345884E+02  0.56639413187E+02 -0.54466142679E+03  0.56453897030E+03  0.12500000000E+03 0.  0.
         25    1    1    2    0    0  0.69432161748E+02 -0.14293941122E+03 -0.23190537686E+03  0.30766475941E+03  0.12500000000E+03 0.  0.
</event>
<event>
 5    0  0.5612316E-005  0.4649243E+03  0.7546771E-02  0.1023363E+00
         21   -1    0    0  502  501  0.00000000000E+00  0.00000000000E+00  0.13150068006E+04  0.13150068006E+04  0.00000000000E+00 0. -1.
         21   -1    0    0  501  502 -0.00000000000E+00 -0.00000000000E+00 -0.16437525435E+03  0.16437525435E+03  0.00000000000E+00 0. -1.
         25    1    1    2    0    0  0.56273594577E+02  0.82073975332E+02  0.68415165592E+02  0.17380589678E+03  0.12500000000E+03 0.  0.
         25    1    1    2    0    0 -0.28001398867E+03 -0.86101617273E+02  0.97855694489E+03  0.10290869821E+04  0.12500000000E+03 0.  0.
         25    1    1    2    0    0  0.22374039410E+03  0.40276419406E+01  0.10365943574E+03  0.27648917604E+03  0.12500000000E+03 0.  0.
</event>
<event>
 5    0  0.5612316E-005  0.5378468E+03  0.7546771E-02  0.1004347E+00
         21   -1    0    0  502  501  0.00000000000E+00  0.00000000000E+00  0.88784235211E+03  0.88784235211E+03  0.00000000000E+00 0.  1.
         21   -1    0    0  501  502 -0.00000000000E+00 -0.00000000000E+00 -0.32582265130E+03  0.32582265130E+03  0.00000000000E+00 0.  1.
         25    1    1    2    0    0  0.16612361425E+03 -0.56764361036E+02 -0.86863551886E+02  0.23235646008E+03  0.12500000000E+03 0.  0.
         25    1    1    2    0    0 -0.15511316753E+03  0.34522626887E+03  0.23942449396E+03  0.46496275094E+03  0.12500000000E+03 0.  0.
         25    1    1    2    0    0 -0.11010446714E+02 -0.28846190783E+03  0.40945875874E+03  0.51634579238E+03  0.12500000000E+03 0.  0.
</event>
<event>
 5    0  0.5612316E-005  0.2406774E+03  0.7546771E-02  0.1119342E+00
         21   -1    0    0  502  501  0.00000000000E+00  0.00000000000E+00  0.23649360453E+03  0.23649360453E+03  0.00000000000E+00 0. -1.
         21   -1    0    0  501  502 -0.00000000000E+00 -0.00000000000E+00 -0.24493520527E+03  0.24493520527E+03  0.00000000000E+00 0. -1.
         25    1    1    2    0    0  0.95497102719E+01 -0.72103172425E+00 -0.10337982915E+02  0.12579185484E+03  0.12500000000E+03 0.  0.
         25    1    1    2    0    0  0.12162646057E+03 -0.55848531900E+00  0.29248326550E+01  0.17443297412E+03  0.12500000000E+03 0.  0.
         25    1    1    2    0    0 -0.13117617084E+03  0.12795170433E+01 -0.10284504800E+01  0.18120398083E+03  0.12500000000E+03 0.  0.
</event>
<event>
 5    0  0.5612316E-005  0.3663295E+03  0.7546771E-02  0.1056105E+00
         21   -1    0    0  502  501  0.00000000000E+00  0.00000000000E+00  0.17370159014E+04  0.17370159014E+04  0.00000000000E+00 0. -1.
         21   -1    0    0  501  502 -0.00000000000E+00 -0.00000000000E+00 -0.77257377375E+02  0.77257377375E+02  0.00000000000E+00 0. -1.
         25    1    1    2    0    0 -0.23822397726E+02  0.16517304251E+03  0.80448885074E+03  0.83106976336E+03  0.12500000000E+03 0.  0.
         25    1    1    2    0    0  0.20176114409E+03 -0.10331578253E+03  0.46264849676E+03  0.53014181286E+03  0.12500000000E+03 0.  0.
         25    1    1    2    0    0 -0.17793874637E+03 -0.61857259982E+02  0.39262117655E+03  0.45306170258E+03  0.12500000000E+03 0.  0.
</event>
<event>
 5    0  0.5612316E-005  0.3206033E+03  0.7546771E-02  0.1075372E+00
         21   -1    0    0  502  501  0.00000000000E+00  0.00000000000E+00  0.33332763210E+03  0.33332763210E+03  0.00000000000E+00 0. -1.
         21   -1    0    0  501  502 -0.00000000000E+00 -0.00000000000E+00 -0.30836461305E+03  0.30836461305E+03  0.00000000000E+00 0. -1.
         25    1    1    2    0    0  0.61238553097E+02 -0.37499421859E+02  0.52734736047E+02  0.15350022609E+03  0.12500000000E+03 0.  0.
         25    1    1    2    0    0  0.19937860127E+01  0.15288306454E+03 -0.16765312565E+03  0.25905554838E+03  0.12500000000E+03 0.  0.
         25    1    1    2    0    0 -0.63232339109E+02 -0.11538364268E+03  0.13988140865E+03  0.22913647068E+03  0.12500000000E+03 0.  0.
</event>
<event>
 5    0  0.5612316E-005  0.4904199E+03  0.7546771E-02  0.1016310E+00
         21   -1    0    0  502  501  0.00000000000E+00  0.00000000000E+00  0.32833008468E+03  0.32833008468E+03  0.00000000000E+00 0.  1.
         21   -1    0    0  501  502 -0.00000000000E+00 -0.00000000000E+00 -0.73253010540E+03  0.73253010540E+03  0.00000000000E+00 0.  1.
         25    1    1    2    0    0  0.15821084400E+03 -0.71226577284E+02  0.16630557725E+03  0.27089931985E+03  0.12500000000E+03 0.  0.
         25    1    1    2    0    0  0.75733527581E+02 -0.35481689261E+02  0.15857608519E+01  0.15040622364E+03  0.12500000000E+03 0.  0.
         25    1    1    2    0    0 -0.23394437158E+03  0.10670826654E+03 -0.57209135881E+03  0.63955464659E+03  0.12500000000E+03 0.  0.
</event>
<event>
 5    0  0.5612316E-005  0.4243687E+03  0.7546771E-02  0.1035654E+00
         21   -1    0    0  502  501  0.00000000000E+00  0.00000000000E+00  0.36921255393E+03  0.36921255393E+03  0.00000000000E+00 0.  1.
         21   -1    0    0  501  502 -0.00000000000E+00 -0.00000000000E+00 -0.48776462171E+03  0.48776462171E+03  0.00000000000E+00 0.  1.
         25    1    1    2    0    0 -0.78825650021E+02  0.15263994307E+03  0.87043353552E+02  0.22959525413E+03  0.12500000000E+03 0.  0.
         25    1    1    2    0    0 -0.20523059389E+03 -0.45247147508E+02 -0.91161196112E+01  0.24469369559E+03  0.12500000000E+03 0.  0.
         25    1    1    2    0    0  0.28405624391E+03 -0.10739279557E+03 -0.19647930172E+03  0.38268822591E+03  0.12500000000E+03 0.  0.
</event>
<event>
 5    0  0.5665246E-005  0.3352122E+03  0.7546771E-02  0.1068854E+00
         21   -1    0    0  502  501  0.00000000000E+00  0.00000000000E+00  0.42931537831E+03  0.42931537831E+03  0.00000000000E+00 0.  1.
         21   -1    0    0  501  502 -0.00000000000E+00 -0.00000000000E+00 -0.26173586030E+03  0.26173586030E+03  0.00000000000E+00 0.  1.
         25    1    1    2    0    0 -0.19534427409E+03 -0.48422878311E+02 -0.42285088634E+02  0.24065990377E+03  0.12500000000E+03 0.  0.
         25    1    1    2    0    0  0.17485833442E+03 -0.52810057045E+02  0.18049890838E+03  0.28560321281E+03  0.12500000000E+03 0.  0.
         25    1    1    2    0    0  0.20485939665E+02  0.10123293536E+03  0.29365698261E+02  0.16478812202E+03  0.12500000000E+03 0.  0.
</event>
<event>
 5    0  0.5612316E-005  0.2601370E+03  0.7546771E-02  0.1107061E+00
         21   -1    0    0  502  501  0.00000000000E+00  0.00000000000E+00  0.23204487734E+03  0.23204487734E+03  0.00000000000E+00 0.  1.
         21   -1    0    0  501  502 -0.00000000000E+00 -0.00000000000E+00 -0.29163000523E+03  0.29163000523E+03  0.00000000000E+00 0.  1.
         25    1    1    2    0    0 -0.10785006174E+02 -0.91833520322E+02  0.53942093848E+02  0.16457357413E+03  0.12500000000E+03 0.  0.
         25    1    1    2    0    0 -0.38603950191E+02 -0.18706295095E+02  0.27647984580E+02  0.13501704151E+03  0.12500000000E+03 0.  0.
         25    1    1    2    0    0  0.49388956365E+02  0.11053981542E+03 -0.14117520632E+03  0.22408426692E+03  0.12500000000E+03 0.  0.
</event>
<event>
 5    0  0.5612316E-005  0.2957295E+03  0.7546771E-02  0.1087395E+00
         21   -1    0    0  502  501  0.00000000000E+00  0.00000000000E+00  0.78048712971E+03  0.78048712971E+03  0.00000000000E+00 0.  1.
         21   -1    0    0  501  502 -0.00000000000E+00 -0.00000000000E+00 -0.11205299403E+03  0.11205299403E+03  0.00000000000E+00 0.  1.
         25    1    1    2    0    0  0.97473293060E+02 -0.44826075025E+02  0.13891932113E+03  0.21548549289E+03  0.12500000000E+03 0.  0.
         25    1    1    2    0    0  0.37856877288E+02  0.14490684666E+03  0.35155887318E+03  0.40205693462E+03  0.12500000000E+03 0.  0.
         25    1    1    2    0    0 -0.13533017035E+03 -0.10008077164E+03  0.17795594138E+03  0.27499769622E+03  0.12500000000E+03 0.  0.
</event>
<event>
 5    0  0.5612316E-005  0.3368221E+03  0.7546771E-02  0.1068158E+00
         21   -1    0    0  502  501  0.00000000000E+00  0.00000000000E+00  0.71429937673E+02  0.71429937673E+02  0.00000000000E+00 0.  1.
         21   -1    0    0  501  502 -0.00000000000E+00 -0.00000000000E+00 -0.15882576122E+04  0.15882576122E+04  0.00000000000E+00 0.  1.
         25    1    1    2    0    0  0.21523717014E+03  0.51076026617E+02 -0.69196461748E+03  0.73714030669E+03  0.12500000000E+03 0.  0.
         25    1    1    2    0    0 -0.23421358297E+03 -0.44364749683E+02 -0.42450798201E+03  0.50264924177E+03  0.12500000000E+03 0.  0.
         25    1    1    2    0    0  0.18976412831E+02 -0.67112769338E+01 -0.40035507505E+03  0.41989800143E+03  0.12500000000E+03 0.  0.
</event>
<event>
 5    0  0.5612316E-005  0.4941695E+03  0.7546771E-02  0.1015312E+00
         21   -1    0    0  502  501  0.00000000000E+00  0.00000000000E+00  0.23281088493E+03  0.23281088493E+03  0.00000000000E+00 0.  1.
         21   -1    0    0  501  502 -0.00000000000E+00 -0.00000000000E+00 -0.10489352050E+04  0.10489352050E+04  0.00000000000E+00 0.  1.
         25    1    1    2    0    0  0.20399751396E+03 -0.20894527384E+03 -0.25036388420E+03  0.40445047617E+03  0.12500000000E+03 0.  0.
         25    1    1    2    0    0  0.77737797860E+02 -0.74431058067E+02 -0.38955415187E+03  0.42303733270E+03  0.12500000000E+03 0.  0.
         25    1    1    2    0    0 -0.28173531182E+03  0.28337633191E+03 -0.17620628405E+03  0.45425828110E+03  0.12500000000E+03 0.  0.
</event>
<event>
 5    0  0.5612316E-005  0.3835459E+03  0.7546771E-02  0.1049631E+00
         21   -1    0    0  502  501  0.00000000000E+00  0.00000000000E+00  0.76847520470E+03  0.76847520470E+03  0.00000000000E+00 0. -1.
         21   -1    0    0  501  502 -0.00000000000E+00 -0.00000000000E+00 -0.19142771846E+03  0.19142771846E+03  0.00000000000E+00 0. -1.
         25    1    1    2    0    0  0.61064108939E+02  0.18709143795E+03  0.17626714626E+03  0.29227921309E+03  0.12500000000E+03 0.  0.
         25    1    1    2    0    0 -0.12890474637E+03  0.98748669545E+02  0.22030393283E+03  0.30087631378E+03  0.12500000000E+03 0.  0.
         25    1    1    2    0    0  0.67840637435E+02 -0.28584010749E+03  0.18047640715E+03  0.36674739628E+03  0.12500000000E+03 0.  0.
</event>
<event>
 5    0  0.5612316E-005  0.3115358E+03  0.7546771E-02  0.1079612E+00
         21   -1    0    0  502  501  0.00000000000E+00  0.00000000000E+00  0.67800209975E+02  0.67800209975E+02  0.00000000000E+00 0. -1.
         21   -1    0    0  501  502 -0.00000000000E+00 -0.00000000000E+00 -0.14314783034E+04  0.14314783034E+04  0.00000000000E+00 0. -1.
         25    1    1    2    0    0  0.37586216786E+02 -0.55650883075E+02 -0.11178389474E+03  0.18063882086E+03  0.12500000000E+03 0.  0.
         25    1    1    2    0    0 -0.15122565770E+03 -0.64567978345E+02 -0.59894840202E+03  0.63356326571E+03  0.12500000000E+03 0.  0.
         25    1    1    2    0    0  0.11363944092E+03  0.12021886142E+03 -0.65294579664E+03  0.68507642677E+03  0.12500000000E+03 0.  0.
</event>
<event>
 5    0  0.5612316E-005  0.2699024E+03  0.7546771E-02  0.1101335E+00
         21   -1    0    0  502  501  0.00000000000E+00  0.00000000000E+00  0.52859718351E+03  0.52859718351E+03  0.00000000000E+00 0. -1.
         21   -1    0    0  501  502 -0.00000000000E+00 -0.00000000000E+00 -0.13781252332E+03  0.13781252332E+03  0.00000000000E+00 0. -1.
         25    1    1    2    0    0 -0.73986880746E+01  0.91649960788E+01  0.30169435636E+03  0.32677702245E+03  0.12500000000E+03 0.  0.
         25    1    1    2    0    0  0.87090164116E+02  0.45565028344E+02  0.16346321895E+01  0.15902371055E+03  0.12500000000E+03 0.  0.
         25    1    1    2    0    0 -0.79691476042E+02 -0.54730024422E+02  0.87455671638E+02  0.18060897383E+03  0.12500000000E+03 0.  0.
</event>
<event>
 5    0  0.5612316E-005  0.2491318E+03  0.7546771E-02  0.1113855E+00
         21   -1    0    0  502  501  0.00000000000E+00  0.00000000000E+00  0.30187820667E+03  0.30187820667E+03  0.00000000000E+00 0.  1.
         21   -1    0    0  501  502 -0.00000000000E+00 -0.00000000000E+00 -0.20560156197E+03  0.20560156197E+03  0.00000000000E+00 0.  1.
         25    1    1    2    0    0 -0.92556553030E+02 -0.14981680470E+02  0.90051500926E+02  0.18034810528E+03  0.12500000000E+03 0.  0.
         25    1    1    2    0    0  0.12260610515E+03 -0.49692449125E+02 -0.10155388061E+02  0.18229023130E+03  0.12500000000E+03 0.  0.
         25    1    1    2    0    0 -0.30049552120E+02  0.64674129595E+02  0.16380531833E+02  0.14484143207E+03  0.12500000000E+03 0.  0.
</event>
<event>
 5    0  0.5612316E-005  0.2531187E+03  0.7546771E-02  0.1111350E+00
         21   -1    0    0  502  501  0.00000000000E+00  0.00000000000E+00  0.61437079294E+03  0.61437079294E+03  0.00000000000E+00 0.  1.
         21   -1    0    0  501  502 -0.00000000000E+00 -0.00000000000E+00 -0.10428407281E+03  0.10428407281E+03  0.00000000000E+00 0.  1.
         25    1    1    2    0    0  0.36169146340E+02 -0.55801711702E+02  0.13165926396E+03  0.19334218361E+03  0.12500000000E+03 0.  0.
         25    1    1    2    0    0 -0.93747306858E+02 -0.71742890399E+02  0.22350389693E+03  0.28198331832E+03  0.12500000000E+03 0.  0.
         25    1    1    2    0    0  0.57578160518E+02  0.12754460210E+03  0.15492355923E+03  0.24332936382E+03  0.12500000000E+03 0.  0.
</event>
<event>
 5    0  0.5612316E-005  0.4332749E+03  0.7546771E-02  0.1032830E+00
         21   -1    0    0  502  501  0.00000000000E+00  0.00000000000E+00  0.18534019406E+04  0.18534019406E+04  0.00000000000E+00 0.  1.
         21   -1    0    0  501  502 -0.00000000000E+00 -0.00000000000E+00 -0.10128788285E+03  0.10128788285E+03  0.00000000000E+00 0.  1.
         25    1    1    2    0    0 -0.54692953925E+02 -0.84504689665E+02  0.11986678242E+03  0.20031327293E+03  0.12500000000E+03 0.  0.
         25    1    1    2    0    0  0.96743757337E+02  0.70087583149E+02  0.70052182627E+02  0.18655812013E+03  0.12500000000E+03 0.  0.
         25    1    1    2    0    0 -0.42050803412E+02  0.14417106515E+02  0.15621950927E+04  0.15678184304E+04  0.12500000000E+03 0.  0.
</event>
<event>
 5    0  0.5612316E-005  0.2714924E+03  0.7546771E-02  0.1100429E+00
         21   -1    0    0  502  501  0.00000000000E+00  0.00000000000E+00  0.11289853774E+03  0.11289853774E+03  0.00000000000E+00 0.  1.
         21   -1    0    0  501  502 -0.00000000000E+00 -0.00000000000E+00 -0.65287033611E+03  0.65287033611E+03  0.00000000000E+00 0.  1.
         25    1    1    2    0    0  0.75184092736E+02  0.71338242961E+02 -0.12807731392E+03  0.20681051968E+03  0.12500000000E+03 0.  0.
         25    1    1    2    0    0 -0.63003447580E+02 -0.78663484667E+01 -0.39264891714E+03  0.41692863415E+03  0.12500000000E+03 0.  0.
         25    1    1    2    0    0 -0.12180645156E+02 -0.63471894494E+02 -0.19245567320E+02  0.14202972002E+03  0.12500000000E+03 0.  0.
</event>
<event>
 5    0  0.9428725E-005  0.2970405E+03  0.7546771E-02  0.1086729E+00
         21   -1    0    0  502  501  0.00000000000E+00  0.00000000000E+00  0.73504971011E+03  0.73504971011E+03  0.00000000000E+00 0. -1.
         21   -1    0    0  501  502 -0.00000000000E+00 -0.00000000000E+00 -0.12003685626E+03  0.12003685626E+03  0.00000000000E+00 0.  1.
         25    1    1    2    0    0  0.85075597072E+02 -0.56136768135E+02  0.27128505485E+03  0.31561016292E+03  0.12500000000E+03 0.  0.
         25    1    1    2    0    0 -0.15370764542E+03  0.11567065319E+03  0.30229025946E+03  0.37948668124E+03  0.12500000000E+03 0.  0.
         25    1    1    2    0    0  0.68632048347E+02 -0.59533885057E+02  0.41437539541E+02  0.15998972221E+03  0.12500000000E+03 0.  0.
</event>
<event>
 5    0  0.5612316E-005  0.3058454E+03  0.7546771E-02  0.1082355E+00
         21   -1    0    0  502  501  0.00000000000E+00  0.00000000000E+00  0.22112429430E+03  0.22112429430E+03  0.00000000000E+00 0. -1.
         21   -1    0    0  501  502 -0.00000000000E+00 -0.00000000000E+00 -0.42302628983E+03  0.42302628983E+03  0.00000000000E+00 0. -1.
         25    1    1    2    0    0 -0.21078481607E+02  0.14247003198E+03  0.16254594661E+02  0.19139285317E+03  0.12500000000E+03 0.  0.
         25    1    1    2    0    0  0.43493638539E+02  0.60509847978E+02 -0.30842233734E+02  0.14875947592E+03  0.12500000000E+03 0.  0.
         25    1    1    2    0    0 -0.22415156932E+02 -0.20297987996E+03 -0.18731435646E+03  0.30399825503E+03  0.12500000000E+03 0.  0.
</event>
<event>
 5    0  0.5612316E-005  0.2882938E+03  0.7546771E-02  0.1091243E+00
         21   -1    0    0  502  501  0.00000000000E+00  0.00000000000E+00  0.39585972737E+02  0.39585972737E+02  0.00000000000E+00 0.  1.
         21   -1    0    0  501  502 -0.00000000000E+00 -0.00000000000E+00 -0.20995646874E+04  0.20995646874E+04  0.00000000000E+00 0.  1.
         25    1    1    2    0    0  0.49081387393E+02  0.13048643441E+03 -0.38015979815E+03  0.42377135850E+03  0.12500000000E+03 0.  0.
         25    1    1    2    0    0  0.35265901015E+02 -0.78613182090E+02 -0.44234841868E+03  0.46767599862E+03  0.12500000000E+03 0.  0.
         25    1    1    2    0    0 -0.84347288408E+02 -0.51873252321E+02 -0.12374704978E+04  0.12477033030E+04  0.12500000000E+03 0.  0.
</event>
<event>
 5    0  0.5612316E-005  0.2829867E+03  0.7546771E-02  0.1094069E+00
         21   -1    0    0  502  501  0.00000000000E+00  0.00000000000E+00  0.92140503316E+02  0.92140503316E+02  0.00000000000E+00 0. -1.
         21   -1    0    0  501  502 -0.00000000000E+00 -0.00000000000E+00 -0.86912350122E+03  0.86912350122E+03  0.00000000000E+00 0. -1.
         25    1    1    2    0    0 -0.11608838304E+03 -0.54349823209E+02 -0.14930726283E+03  0.23312673526E+03  0.12500000000E+03 0.  0.
         25    1    1    2    0    0 -0.19828001502E+02 -0.29092305131E+02 -0.41297992179E+03  0.43291676760E+03  0.12500000000E+03 0.  0.
         25    1    1    2    0    0  0.13591638455E+03  0.83442128340E+02 -0.21469581328E+03  0.29522050168E+03  0.12500000000E+03 0.  0.
</event>
<event>
 5    0  0.5612316E-005  0.4188724E+03  0.7546771E-02  0.1037434E+00
         21   -1    0    0  502  501  0.00000000000E+00  0.00000000000E+00  0.12678613264E+03  0.12678613264E+03  0.00000000000E+00 0. -1.
         21   -1    0    0  501  502 -0.00000000000E+00 -0.00000000000E+00 -0.13838585814E+04  0.13838585814E+04  0.00000000000E+00 0. -1.
         25    1    1    2    0    0 -0.58555238614E+01  0.19786833323E+03 -0.92301034107E+02  0.25165580731E+03  0.12500000000E+03 0.  0.
         25    1    1    2    0    0  0.80754269737E+02 -0.27519734794E+03 -0.77080959942E+03  0.83188176501E+03  0.12500000000E+03 0.  0.
         25    1    1    2    0    0 -0.74898745876E+02  0.77329014714E+02 -0.39396181521E+03  0.42710714171E+03  0.12500000000E+03 0.  0.
</event>
<event>
 5    0  0.5612316E-005  0.2730270E+03  0.7546771E-02  0.1099560E+00
         21   -1    0    0  502  501  0.00000000000E+00  0.00000000000E+00  0.39390972442E+03  0.39390972442E+03  0.00000000000E+00 0.  1.
         21   -1    0    0  501  502 -0.00000000000E+00 -0.00000000000E+00 -0.18924060866E+03  0.18924060866E+03  0.00000000000E+00 0.  1.
         25    1    1    2    0    0  0.19635806300E+00  0.28835549668E+02  0.81140447819E+02  0.15179031508E+03  0.12500000000E+03 0.  0.
         25    1    1    2    0    0  0.14289630169E+03 -0.54881950984E+01  0.14468517338E+03  0.23876405240E+03  0.12500000000E+03 0.  0.
         25    1    1    2    0    0 -0.14309265975E+03 -0.23347354570E+02 -0.21156505434E+02  0.19259596559E+03  0.12500000000E+03 0.  0.
</event>
<event>
 5    0  0.5612316E-005  0.3473301E+03  0.7546771E-02  0.1063716E+00
         21   -1    0    0  502  501  0.00000000000E+00  0.00000000000E+00  0.38729949243E+03  0.38729949243E+03  0.00000000000E+00 0.  1.
         21   -1    0    0  501  502 -0.00000000000E+00 -0.00000000000E+00 -0.31148561246E+03  0.31148561246E+03  0.00000000000E+00 0.  1.
         25    1    1    2    0    0  0.72105841923E+02 -0.97648051995E+02 -0.51973254798E+01  0.17431697189E+03  0.12500000000E+03 0.  0.
         25    1    1    2    0    0 -0.12165464984E+03  0.25641336869E+03  0.49271575551E+02  0.31400693882E+03  0.12500000000E+03 0.  0.
         25    1    1    2    0    0  0.49548807912E+02 -0.15876531669E+03  0.31739629902E+02  0.21046119418E+03  0.12500000000E+03 0.  0.
</event>
<event>
 5    0  0.5612316E-005  0.3266979E+03  0.7546771E-02  0.1072607E+00
         21   -1    0    0  502  501  0.00000000000E+00  0.00000000000E+00  0.32315798919E+02  0.32315798919E+02  0.00000000000E+00 0. -1.
         21   -1    0    0  501  502 -0.00000000000E+00 -0.00000000000E+00 -0.33027653021E+04  0.33027653021E+04  0.00000000000E+00 0. -1.
         25    1    1    2    0    0 -0.14745908331E+03 -0.56780649125E+02 -0.46322313461E+03  0.50514245100E+03  0.12500000000E+03 0.  0.
         25    1    1    2    0    0  0.82204313643E+02 -0.48751188864E+02 -0.82272058378E+03  0.83763260835E+03  0.12500000000E+03 0.  0.
         25    1    1    2    0    0  0.65254769667E+02  0.10553183799E+03 -0.19845057848E+04  0.19923060417E+04  0.12500000000E+03 0.  0.
</event>
<event>
 5    0  0.5612316E-005  0.4551909E+03  0.7546771E-02  0.1026185E+00
         21   -1    0    0  502  501  0.00000000000E+00  0.00000000000E+00  0.15374040527E+03  0.15374040527E+03  0.00000000000E+00 0.  1.
         21   -1    0    0  501  502 -0.00000000000E+00 -0.00000000000E+00 -0.13477184986E+04  0.13477184986E+04  0.00000000000E+00 0.  1.
         25    1    1    2    0    0 -0.12927874624E+03 -0.12689482024E+03 -0.24177496169E+03  0.32694865305E+03  0.12500000000E+03 0.  0.
         25    1    1    2    0    0 -0.17829866797E+03  0.11914199766E+02 -0.76759662329E+02  0.23119128209E+03  0.12500000000E+03 0.  0.
         25    1    1    2    0    0  0.30757741420E+03  0.11498062047E+03 -0.87544346931E+03  0.94331896873E+03  0.12500000000E+03 0.  0.
</event>
<event>
 5    0  0.5612316E-005  0.2341142E+03  0.7546771E-02  0.1123777E+00
         21   -1    0    0  502  501  0.00000000000E+00  0.00000000000E+00  0.15148529839E+02  0.15148529839E+02  0.00000000000E+00 0. -1.
         21   -1    0    0  501  502 -0.00000000000E+00 -0.00000000000E+00 -0.36181382914E+04  0.36181382914E+04  0.00000000000E+00 0. -1.
         25    1    1    2    0    0 -0.17190171224E+02 -0.12869754462E+02 -0.58162183155E+03  0.59528991886E+03  0.12500000000E+03 0.  0.
         25    1    1    2    0    0 -0.36749237549E+02  0.89901476022E+02 -0.17175319369E+04  0.17248112176E+04  0.12500000000E+03 0.  0.
         25    1    1    2    0    0  0.53939408773E+02 -0.77031721560E+02 -0.13038359931E+04  0.13131856848E+04  0.12500000000E+03 0.  0.
</event>
<event>
 5    0  0.5612316E-005  0.2929477E+03  0.7546771E-02  0.1088820E+00
         21   -1    0    0  502  501  0.00000000000E+00  0.00000000000E+00  0.28115563069E+03  0.28115563069E+03  0.00000000000E+00 0. -1.
         21   -1    0    0  501  502 -0.00000000000E+00 -0.00000000000E+00 -0.30523426000E+03  0.30523426000E+03  0.00000000000E+00 0. -1.
         25    1    1    2    0    0 -0.89010908883E+02 -0.55148498587E+02 -0.97926095461E+01  0.16335603447E+03  0.12500000000E+03 0.  0.
         25    1    1    2    0    0 -0.51690806678E+02 -0.78326483692E+02  0.77806138042E+02  0.17460175446E+03  0.12500000000E+03 0.  0.
         25    1    1    2    0    0  0.14070171556E+03  0.13347498228E+03 -0.92092157807E+02  0.24843210176E+03  0.12500000000E+03 0.  0.
</event>
<event>
 5    0  0.5612316E-005  0.2695835E+03  0.7546771E-02  0.1101518E+00
         21   -1    0    0  502  501  0.00000000000E+00  0.00000000000E+00  0.23961128523E+03  0.23961128523E+03  0.00000000000E+00 0. -1.
         21   -1    0    0  501  502 -0.00000000000E+00 -0.00000000000E+00 -0.30330483522E+03  0.30330483522E+03  0.00000000000E+00 0. -1.
         25    1    1    2    0    0 -0.28499384591E+02  0.84014869326E+02 -0.15135425110E+03  0.21541546490E+03  0.12500000000E+03 0.  0.
         25    1    1    2    0    0  0.83785725574E+02 -0.71258761402E+02  0.91862213026E+02  0.19016183915E+03  0.12500000000E+03 0.  0.
         25    1    1    2    0    0 -0.55286340982E+02 -0.12756107924E+02 -0.42015119152E+01  0.13733881640E+03  0.12500000000E+03 0.  0.
</event>
<event>
 5    0  0.5612316E-005  0.4709222E+03  0.7546771E-02  0.1021660E+00
         21   -1    0    0  502  501  0.00000000000E+00  0.00000000000E+00  0.12189880471E+04  0.12189880471E+04  0.00000000000E+00 0. -1.
         21   -1    0    0  501  502 -0.00000000000E+00 -0.00000000000E+00 -0.18192774800E+03  0.18192774800E+03  0.00000000000E+00 0. -1.
         25    1    1    2    0    0 -0.65228935878E+02  0.15695247713E+03  0.77956018707E+02  0.22492450957E+03  0.12500000000E+03 0.  0.
         25    1    1    2    0    0  0.15779037512E+03 -0.35643449990E+03  0.45539045690E+03  0.61233064878E+03  0.12500000000E+03 0.  0.
         25    1    1    2    0    0 -0.92561439241E+02  0.19948202276E+03  0.50371382352E+03  0.56366063678E+03  0.12500000000E+03 0.  0.
</event>
<event>
 5    0  0.5612316E-005  0.3848424E+03  0.7546771E-02  0.1049158E+00
         21   -1    0    0  502  501  0.00000000000E+00  0.00000000000E+00  0.90587478403E+03  0.90587478403E+03  0.00000000000E+00 0. -1.
         21   -1    0    0  501  502 -0.00000000000E+00 -0.00000000000E+00 -0.16349241149E+03  0.16349241149E+03  0.00000000000E+00 0. -1.
         25    1    1    2    0    0  0.27394383741E+03 -0.68681118329E+02  0.41209161705E+03  0.51498235204E+03  0.12500000000E+03 0.  0.
         25    1    1    2    0    0 -0.22657919410E+02 -0.12580733250E+01  0.17308099767E+02  0.12821674765E+03  0.12500000000E+03 0.  0.
         25    1    1    2    0    0 -0.25128591800E+03  0.69939191654E+02  0.31298265572E+03  0.42616809582E+03  0.12500000000E+03 0.  0.
</event>
<event>
 5    0  0.5612316E-005  0.2047691E+03  0.7546771E-02  0.1145777E+00
         21   -1    0    0  502  501  0.00000000000E+00  0.00000000000E+00  0.18871967102E+03  0.18871967102E+03  0.00000000000E+00 0. -1.
         21   -1    0    0  501  502 -0.00000000000E+00 -0.00000000000E+00 -0.22218346263E+03  0.22218346263E+03  0.00000000000E+00 0. -1.
         25    1    1    2    0    0  0.15481677024E+02  0.20871782333E+02 -0.52956968737E+02  0.13821994848E+03  0.12500000000E+03 0.  0.
         25    1    1    2    0    0 -0.55491523080E+02 -0.25536664163E+02  0.24451418039E+02  0.14125969770E+03  0.12500000000E+03 0.  0.
         25    1    1    2    0    0  0.40009846056E+02  0.46648818302E+01 -0.49582409199E+01  0.13142348746E+03  0.12500000000E+03 0.  0.
</event>
<event>
 5    0  0.5612316E-005  0.3554161E+03  0.7546771E-02  0.1060414E+00
         21   -1    0    0  502  501  0.00000000000E+00  0.00000000000E+00  0.84798878594E+03  0.84798878594E+03  0.00000000000E+00 0.  1.
         21   -1    0    0  501  502 -0.00000000000E+00 -0.00000000000E+00 -0.14896491338E+03  0.14896491338E+03  0.00000000000E+00 0.  1.
         25    1    1    2    0    0 -0.10178557490E+03  0.12090784214E+03  0.32707037427E+03  0.38416017398E+03  0.12500000000E+03 0.  0.
         25    1    1    2    0    0  0.12811188494E+03  0.55407931641E+02  0.34606315136E+03  0.39353195382E+03  0.12500000000E+03 0.  0.
         25    1    1    2    0    0 -0.26326310041E+02 -0.17631577378E+03  0.25890346937E+02  0.21926157153E+03  0.12500000000E+03 0.  0.
</event>
<event>
 5    0  0.5612316E-005  0.2716213E+03  0.7546771E-02  0.1100355E+00
         21   -1    0    0  502  501  0.00000000000E+00  0.00000000000E+00  0.15598356517E+03  0.15598356517E+03  0.00000000000E+00 0. -1.
         21   -1    0    0  501  502 -0.00000000000E+00 -0.00000000000E+00 -0.47298656153E+03  0.47298656153E+03  0.00000000000E+00 0. -1.
         25    1    1    2    0    0 -0.70482155473E+02  0.17216734440E+02 -0.56830588751E+02  0.15530249838E+03  0.12500000000E+03 0.  0.
         25    1    1    2    0    0 -0.47290127287E+02  0.67757608918E+02 -0.23736119730E+03  0.28070053026E+03  0.12500000000E+03 0.  0.
         25    1    1    2    0    0  0.11777228276E+03 -0.84974343358E+02 -0.22811210310E+02  0.19296709805E+03  0.12500000000E+03 0.  0.
</event>
<event>
 5    0  0.6038403E-005  0.2918129E+03  0.7546771E-02  0.1089406E+00
         21   -1    0    0  502  501  0.00000000000E+00  0.00000000000E+00  0.64494381093E+02  0.64494381093E+02  0.00000000000E+00 0. -1.
         21   -1    0    0  501  502 -0.00000000000E+00 -0.00000000000E+00 -0.13203437798E+04  0.13203437798E+04  0.00000000000E+00 0. -1.
         25    1    1    2    0    0  0.71279386203E+02  0.11292076382E+02 -0.35267524729E+03  0.38106835599E+03  0.12500000000E+03 0.  0.
         25    1    1    2    0    0 -0.15055734187E+03 -0.44392080845E+02 -0.19594770271E+03  0.28046153432E+03  0.12500000000E+03 0.  0.
         25    1    1    2    0    0  0.79277955671E+02  0.33100004463E+02 -0.70722644875E+03  0.72330827063E+03  0.12500000000E+03 0.  0.
</event>
<event>
 5    0  0.5612316E-005  0.2677386E+03  0.7546771E-02  0.1102581E+00
         21   -1    0    0  502  501  0.00000000000E+00  0.00000000000E+00  0.22631245824E+03  0.22631245824E+03  0.00000000000E+00 0.  1.
         21   -1    0    0  501  502 -0.00000000000E+00 -0.00000000000E+00 -0.31674768557E+03  0.31674768557E+03  0.00000000000E+00 0.  1.
         25    1    1    2    0    0 -0.10789530729E+03  0.15835331342E+02 -0.53645280952E+01  0.16596967559E+03  0.12500000000E+03 0.  0.
         25    1    1    2    0    0  0.83352949293E+02 -0.54777006758E+02 -0.15835654471E+03  0.22505561508E+03  0.12500000000E+03 0.  0.
         25    1    1    2    0    0  0.24542357998E+02  0.38941675416E+02  0.73285845481E+02  0.15203485314E+03  0.12500000000E+03 0.  0.
</event>
<event>
 5    0  0.5612316E-005  0.2755642E+03  0.7546771E-02  0.1098137E+00
         21   -1    0    0  502  501  0.00000000000E+00  0.00000000000E+00  0.10362875406E+03  0.10362875406E+03  0.00000000000E+00 0. -1.
         21   -1    0    0  501  502 -0.00000000000E+00 -0.00000000000E+00 -0.73276578432E+03  0.73276578432E+03  0.00000000000E+00 0. -1.
         25    1    1    2    0    0  0.85108318675E+01  0.11316646206E+03 -0.15433106093E+03  0.22874037414E+03  0.12500000000E+03 0.  0.
         25    1    1    2    0    0 -0.69462444916E+02 -0.10882568544E+03 -0.42229199394E+03  0.45893745676E+03  0.12500000000E+03 0.  0.
         25    1    1    2    0    0  0.60951613049E+02 -0.43407766191E+01 -0.52513975387E+02  0.14871670749E+03  0.12500000000E+03 0.  0.
</event>
<event>
 5    0  0.5612316E-005  0.3352450E+03  0.7546771E-02  0.1068839E+00
         21   -1    0    0  502  501  0.00000000000E+00  0.00000000000E+00  0.19997599286E+03  0.19997599286E+03  0.00000000000E+00 0.  1.
         21   -1    0    0  501  502 -0.00000000000E+00 -0.00000000000E+00 -0.56201349025E+03  0.56201349025E+03  0.00000000000E+00 0.  1.
         25    1    1    2    0    0  0.35366699482E+02  0.94612967715E+02 -0.18810084330E+02  0.16180616912E+03  0.12500000000E+03 0.  0.
         25    1    1    2    0    0 -0.16774963613E+03  0.93696670201E+02 -0.13938881146E+03  0.26827830175E+03  0.12500000000E+03 0.  0.
         25    1    1    2    0    0  0.13238293664E+03 -0.18830963792E+03 -0.20383860160E+03  0.33190501224E+03  0.12500000000E+03 0.  0.
</event>
<event>
 5    0  0.5612316E-005  0.2569443E+03  0.7546771E-02  0.1108993E+00
         21   -1    0    0  502  501  0.00000000000E+00  0.00000000000E+00  0.19121909056E+03  0.19121909056E+03  0.00000000000E+00 0.  1.
         21   -1    0    0  501  502 -0.00000000000E+00 -0.00000000000E+00 -0.34526045691E+03  0.34526045691E+03  0.00000000000E+00 0.  1.
         25    1    1    2    0    0 -0.26512275036E+02 -0.12640703396E+01  0.22021659294E+02  0.12967055209E+03  0.12500000000E+03 0.  0.
         25    1    1    2    0    0  0.74044928809E+02 -0.55372620360E+02  0.26337847117E+02  0.15769420014E+03  0.12500000000E+03 0.  0.
         25    1    1    2    0    0 -0.47532653773E+02  0.56636690700E+02 -0.20240087276E+03  0.24911479523E+03  0.12500000000E+03 0.  0.
</event>
<event>
 5    0  0.5612316E-005  0.4597928E+03  0.7546771E-02  0.1024841E+00
         21   -1    0    0  502  501  0.00000000000E+00  0.00000000000E+00  0.20400513138E+03  0.20400513138E+03  0.00000000000E+00 0.  1.
         21   -1    0    0  501  502 -0.00000000000E+00 -0.00000000000E+00 -0.10362948270E+04  0.10362948270E+04  0.00000000000E+00 0.  1.
         25    1    1    2    0    0  0.51543614866E+02  0.50385913631E+02 -0.39327343876E+03  0.41890867998E+03  0.12500000000E+03 0.  0.
         25    1    1    2    0    0  0.11982530927E+03 -0.13584480396E+03  0.95576003828E+02  0.23994100944E+03  0.12500000000E+03 0.  0.
         25    1    1    2    0    0 -0.17136892413E+03  0.85458890331E+02 -0.53459226065E+03  0.58145026893E+03  0.12500000000E+03 0.  0.
</event>
<event>
 5    0  0.5612316E-005  0.3324435E+03  0.7546771E-02  0.1070061E+00
         21   -1    0    0  502  501  0.00000000000E+00  0.00000000000E+00  0.56968936071E+03  0.56968936071E+03  0.00000000000E+00 0.  1.
         21   -1    0    0  501  502 -0.00000000000E+00 -0.00000000000E+00 -0.19399817292E+03  0.19399817292E+03  0.00000000000E+00 0.  1.
         25    1    1    2    0    0  0.96062587072E+02 -0.91259312872E+02 -0.79648007895E+02  0.19880917479E+03  0.12500000000E+03 0.  0.
         25    1    1    2    0    0  0.11000075560E+02 -0.25452613232E+02  0.13312120194E+03  0.18470271138E+03  0.12500000000E+03 0.  0.
         25    1    1    2    0    0 -0.10706266263E+03  0.11671192610E+03  0.32221799374E+03  0.38017564745E+03  0.12500000000E+03 0.  0.
</event>
<event>
 5    0  0.5612316E-005  0.3277171E+03  0.7546771E-02  0.1072151E+00
         21   -1    0    0  502  501  0.00000000000E+00  0.00000000000E+00  0.26631515809E+03  0.26631515809E+03  0.00000000000E+00 0.  1.
         21   -1    0    0  501  502 -0.00000000000E+00 -0.00000000000E+00 -0.40327584327E+03  0.40327584327E+03  0.00000000000E+00 0.  1.
         25    1    1    2    0    0  0.13283650485E+02  0.24170282874E+03 -0.39461089659E+02  0.27527965851E+03  0.12500000000E+03 0.  0.
         25    1    1    2    0    0  0.75060426812E+01 -0.48284718585E+02  0.18729602803E+02  0.13551218671E+03  0.12500000000E+03 0.  0.
         25    1    1    2    0    0 -0.20789693166E+02 -0.19341811016E+03 -0.11622919832E+03  0.25879915614E+03  0.12500000000E+03 0.  0.
</event>
<event>
 5    0  0.5612316E-005  0.2496799E+03  0.7546771E-02  0.1113507E+00
         21   -1    0    0  502  501  0.00000000000E+00  0.00000000000E+00  0.65207352257E+02  0.65207352257E+02  0.00000000000E+00 0.  1.
         21   -1    0    0  501  502 -0.00000000000E+00 -0.00000000000E+00 -0.95602783803E+03  0.95602783803E+03  0.00000000000E+00 0.  1.
         25    1    1    2    0    0  0.34474040329E+02  0.31673859246E+02 -0.37662536475E+03  0.39957897616E+03  0.12500000000E+03 0.  0.
         25    1    1    2    0    0 -0.37474718316E+02  0.10045761853E+03 -0.28354725009E+03  0.32790262376E+03  0.12500000000E+03 0.  0.
         25    1    1    2    0    0  0.30006779862E+01 -0.13213147778E+03 -0.23064787093E+03  0.29375359037E+03  0.12500000000E+03 0.  0.
</event>
<event>
 5    0  0.5612316E-005  0.3516286E+03  0.7546771E-02  0.1061949E+00
         21   -1    0    0  502  501  0.00000000000E+00  0.00000000000E+00  0.29788039764E+03  0.29788039764E+03  0.00000000000E+00 0.  1.
         21   -1    0    0  501  502 -0.00000000000E+00 -0.00000000000E+00 -0.41507495651E+03  0.41507495651E+03  0.00000000000E+00 0.  1.
         25    1    1    2    0    0 -0.39623969951E+02  0.16605326761E+03 -0.27646927582E+02  0.21338486189E+03  0.12500000000E+03 0.  0.
         25    1    1    2    0    0  0.11073046930E+03 -0.13609206833E+03 -0.21649975572E+03  0.30541681702E+03  0.12500000000E+03 0.  0.
         25    1    1    2    0    0 -0.71106499352E+02 -0.29961199272E+02  0.12695212443E+03  0.19415367524E+03  0.12500000000E+03 0.  0.
</event>
<event>
 5    0  0.5612316E-005  0.2827635E+03  0.7546771E-02  0.1094189E+00
         21   -1    0    0  502  501  0.00000000000E+00  0.00000000000E+00  0.12023922185E+03  0.12023922185E+03  0.00000000000E+00 0. -1.
         21   -1    0    0  501  502 -0.00000000000E+00 -0.00000000000E+00 -0.66496785812E+03  0.66496785812E+03  0.00000000000E+00 0. -1.
         25    1    1    2    0    0  0.34883704036E+02 -0.22784713933E+02 -0.12442550667E+02  0.13234739538E+03  0.12500000000E+03 0.  0.
         25    1    1    2    0    0  0.10192613739E+03  0.83592281734E+02 -0.28396752012E+03  0.33710407819E+03  0.12500000000E+03 0.  0.
         25    1    1    2    0    0 -0.13680984143E+03 -0.60807567801E+02 -0.24831856549E+03  0.31575560641E+03  0.12500000000E+03 0.  0.
</event>
<event>
 5    0  0.5612316E-005  0.2854590E+03  0.7546771E-02  0.1092744E+00
         21   -1    0    0  502  501  0.00000000000E+00  0.00000000000E+00  0.13525968126E+04  0.13525968126E+04  0.00000000000E+00 0.  1.
         21   -1    0    0  501  502 -0.00000000000E+00 -0.00000000000E+00 -0.60244756134E+02  0.60244756134E+02  0.00000000000E+00 0.  1.
         25    1    1    2    0    0 -0.84353831399E+02  0.29807944887E+02  0.32003626078E+03  0.35503843547E+03  0.12500000000E+03 0.  0.
         25    1    1    2    0    0 -0.11730380621E+03 -0.46974141291E+02  0.38035886687E+03  0.41983880301E+03  0.12500000000E+03 0.  0.
         25    1    1    2    0    0  0.20165763761E+03  0.17166196404E+02  0.59195692880E+03  0.63796433024E+03  0.12500000000E+03 0.  0.
</event>
<event>
 5    0  0.6027022E-005  0.2682736E+03  0.7546771E-02  0.1102272E+00
         21   -1    0    0  502  501  0.00000000000E+00  0.00000000000E+00  0.57654413463E+03  0.57654413463E+03  0.00000000000E+00 0. -1.
         21   -1    0    0  501  502 -0.00000000000E+00 -0.00000000000E+00 -0.12483127973E+03  0.12483127973E+03  0.00000000000E+00 0. -1.
         25    1    1    2    0    0  0.15653954237E+02  0.92166450017E+01  0.68099700639E+01  0.12649651584E+03  0.12500000000E+03 0.  0.
         25    1    1    2    0    0 -0.37581842398E+02  0.96682995132E+02  0.95692151471E+02  0.18852581860E+03  0.12500000000E+03 0.  0.
         25    1    1    2    0    0  0.21927888161E+02 -0.10589964013E+03  0.34921073337E+03  0.38635307991E+03  0.12500000000E+03 0.  0.
</event>
<event>
 5    0  0.5612316E-005  0.4747069E+03  0.7546771E-02  0.1020600E+00
         21   -1    0    0  502  501  0.00000000000E+00  0.00000000000E+00  0.96280773233E+03  0.96280773233E+03  0.00000000000E+00 0.  1.
         21   -1    0    0  501  502 -0.00000000000E+00 -0.00000000000E+00 -0.23405159205E+03  0.23405159205E+03  0.00000000000E+00 0.  1.
         25    1    1    2    0    0  0.10958420786E+03  0.26612978671E+03  0.11791339664E+03  0.33520490912E+03  0.12500000000E+03 0.  0.
         25    1    1    2    0    0 -0.18887996466E+03 -0.29680846924E+03  0.60430433955E+03  0.71033769664E+03  0.12500000000E+03 0.  0.
         25    1    1    2    0    0  0.79295756798E+02  0.30678682522E+02  0.65384040881E+01  0.15131671863E+03  0.12500000000E+03 0.  0.
</event>
<event>
 5    0  0.5612316E-005  0.4170483E+03  0.7546771E-02  0.1038031E+00
         21   -1    0    0  502  501  0.00000000000E+00  0.00000000000E+00  0.14391153483E+03  0.14391153483E+03  0.00000000000E+00 0. -1.
         21   -1    0    0  501  502 -0.00000000000E+00 -0.00000000000E+00 -0.12085849372E+04  0.12085849372E+04  0.00000000000E+00 0. -1.
         25    1    1    2    0    0 -0.59754127032E+02  0.28287389077E+03 -0.56343430616E+03  0.64550089941E+03  0.12500000000E+03 0.  0.
         25    1    1    2    0    0 -0.70521680856E+01 -0.10927976585E+03 -0.93325456663E+01  0.16644487589E+03  0.12500000000E+03 0.  0.
         25    1    1    2    0    0  0.66806295118E+02 -0.17359412492E+03 -0.49190655055E+03  0.54055069674E+03  0.12500000000E+03 0.  0.
</event>
<event>
 5    0  0.6178801E-005  0.2927370E+03  0.7546771E-02  0.1088929E+00
         21   -1    0    0  502  501  0.00000000000E+00  0.00000000000E+00  0.30860400611E+03  0.30860400611E+03  0.00000000000E+00 0. -1.
         21   -1    0    0  501  502 -0.00000000000E+00 -0.00000000000E+00 -0.27768575129E+03  0.27768575129E+03  0.00000000000E+00 0. -1.
         25    1    1    2    0    0 -0.15110189237E+03  0.47162426521E+02  0.13886659052E+03  0.24487753330E+03  0.12500000000E+03 0.  0.
         25    1    1    2    0    0  0.33975798316E+02 -0.65152043170E+01 -0.10243196979E+03  0.16526981332E+03  0.12500000000E+03 0.  0.
         25    1    1    2    0    0  0.11712609405E+03 -0.40647222204E+02 -0.55163659138E+01  0.17614241077E+03  0.12500000000E+03 0.  0.
</event>
<event>
 5    0  0.5612316E-005  0.3278727E+03  0.7546771E-02  0.1072082E+00
         21   -1    0    0  502  501  0.00000000000E+00  0.00000000000E+00  0.41188862892E+03  0.41188862892E+03  0.00000000000E+00 0.  1.
         21   -1    0    0  501  502 -0.00000000000E+00 -0.00000000000E+00 -0.26099403947E+03  0.26099403947E+03  0.00000000000E+00 0.  1.
         25    1    1    2    0    0  0.79973524351E+02  0.16913165209E+03 -0.16802722160E+02  0.22562936823E+03  0.12500000000E+03 0.  0.
         25    1    1    2    0    0  0.41003576503E+02 -0.19040879325E+03  0.13814043181E+03  0.26952658632E+03  0.12500000000E+03 0.  0.
         25    1    1    2    0    0 -0.12097710085E+03  0.21277141162E+02  0.29556879806E+02  0.17772671384E+03  0.12500000000E+03 0.  0.
</event>
<event>
 5    0  0.5612316E-005  0.3390681E+03  0.7546771E-02  0.1067194E+00
         21   -1    0    0  502  501  0.00000000000E+00  0.00000000000E+00  0.33085956878E+03  0.33085956878E+03  0.00000000000E+00 0.  1.
         21   -1    0    0  501  502 -0.00000000000E+00 -0.00000000000E+00 -0.34748026082E+03  0.34748026082E+03  0.00000000000E+00 0.  1.
         25    1    1    2    0    0  0.28078443687E+02  0.10304151219E+03  0.94475288186E+01  0.16468214243E+03  0.12500000000E+03 0.  0.
         25    1    1    2    0    0 -0.73840637421E+02  0.88695202113E+02  0.14558793298E+03  0.22391990720E+03  0.12500000000E+03 0.  0.
         25    1    1    2    0    0  0.45762193734E+02 -0.19173671430E+03 -0.17165615384E+03  0.28973777996E+03  0.12500000000E+03 0.  0.
</event>
<event>
 5    0  0.5612316E-005  0.3425780E+03  0.7546771E-02  0.1065703E+00
         21   -1    0    0  502  501  0.00000000000E+00  0.00000000000E+00  0.39661208050E+03  0.39661208050E+03  0.00000000000E+00 0.  1.
         21   -1    0    0  501  502 -0.00000000000E+00 -0.00000000000E+00 -0.29590547106E+03  0.29590547106E+03  0.00000000000E+00 0.  1.
         25    1    1    2    0    0  0.61316174922E+02 -0.37834630754E+02  0.74680371888E+02  0.16246011983E+03  0.12500000000E+03 0.  0.
         25    1    1    2    0    0  0.16411675126E+03  0.13456069088E+03  0.57551131385E+02  0.25293876789E+03  0.12500000000E+03 0.  0.
         25    1    1    2    0    0 -0.22543292619E+03 -0.96726060127E+02 -0.31524893826E+02  0.27711866384E+03  0.12500000000E+03 0.  0.
</event>
<event>
 5    0  0.5612316E-005  0.3966178E+03  0.7546771E-02  0.1044957E+00
         21   -1    0    0  502  501  0.00000000000E+00  0.00000000000E+00  0.51228976669E+02  0.51228976669E+02  0.00000000000E+00 0.  1.
         21   -1    0    0  501  502 -0.00000000000E+00 -0.00000000000E+00 -0.30706384904E+04  0.30706384904E+04  0.00000000000E+00 0.  1.
         25    1    1    2    0    0 -0.14942569792E+03 -0.13156982082E+02 -0.11481755775E+04  0.11646601660E+04  0.12500000000E+03 0.  0.
         25    1    1    2    0    0 -0.13922220120E+03  0.13618867189E+03 -0.88423758817E+03  0.91401930395E+03  0.12500000000E+03 0.  0.
         25    1    1    2    0    0  0.28864789912E+03 -0.12303168981E+03 -0.98699634808E+03  0.10431879972E+04  0.12500000000E+03 0.  0.
</event>
<event>
 5    0  0.5612316E-005  0.4298939E+03  0.7546771E-02  0.1033893E+00
         21   -1    0    0  502  501  0.00000000000E+00  0.00000000000E+00  0.29727499058E+03  0.29727499058E+03  0.00000000000E+00 0.  1.
         21   -1    0    0  501  502 -0.00000000000E+00 -0.00000000000E+00 -0.62167612307E+03  0.62167612307E+03  0.00000000000E+00 0.  1.
         25    1    1    2    0    0 -0.23788865147E+03 -0.57956057046E+02 -0.10696967185E+03  0.29498716200E+03  0.12500000000E+03 0.  0.
         25    1    1    2    0    0 -0.19098717608E+02  0.16605974420E+03  0.53645662573E+02  0.21550744017E+03  0.12500000000E+03 0.  0.
         25    1    1    2    0    0  0.25698736908E+03 -0.10810368715E+03 -0.27107712321E+03  0.40845651148E+03  0.12500000000E+03 0.  0.
</event>
<event>
 5    0  0.5612316E-005  0.3036326E+03  0.7546771E-02  0.1083439E+00
         21   -1    0    0  502  501  0.00000000000E+00  0.00000000000E+00  0.64690294417E+02  0.64690294417E+02  0.00000000000E+00 0.  1.
         21   -1    0    0  501  502 -0.00000000000E+00 -0.00000000000E+00 -0.14251401845E+04  0.14251401845E+04  0.00000000000E+00 0.  1.
         25    1    1    2    0    0 -0.86268886620E+02 -0.82433132921E+02 -0.15825364754E+03  0.23432191353E+03  0.12500000000E+03 0.  0.
         25    1    1    2    0    0  0.10681969300E+03  0.12123587699E+03 -0.48647555447E+03  0.52762870447E+03  0.12500000000E+03 0.  0.
         25    1    1    2    0    0 -0.20550806384E+02 -0.38802744068E+02 -0.71572068802E+03  0.72787986087E+03  0.12500000000E+03 0.  0.
</event>
<event>
 5    0  0.5612316E-005  0.3803261E+03  0.7546771E-02  0.1050813E+00
         21   -1    0    0  502  501  0.00000000000E+00  0.00000000000E+00  0.12637966025E+04  0.12637966025E+04  0.00000000000E+00 0. -1.
         21   -1    0    0  501  502 -0.00000000000E+00 -0.00000000000E+00 -0.11445509954E+03  0.11445509954E+03  0.00000000000E+00 0. -1.
         25    1    1    2    0    0 -0.11847125415E+03 -0.66984502944E+02  0.74843630766E+02  0.19937133886E+03  0.12500000000E+03 0.  0.
         25    1    1    2    0    0  0.19463673932E+02 -0.14470218660E+03  0.65551964750E+03  0.68311680236E+03  0.12500000000E+03 0.  0.
         25    1    1    2    0    0  0.99007580215E+02  0.21168668954E+03  0.41897822466E+03  0.49576356079E+03  0.12500000000E+03 0.  0.
</event>
<event>
 5    0  0.5612316E-005  0.2556932E+03  0.7546771E-02  0.1109759E+00
         21   -1    0    0  502  501  0.00000000000E+00  0.00000000000E+00  0.42147355605E+02  0.42147355605E+02  0.00000000000E+00 0. -1.
         21   -1    0    0  501  502 -0.00000000000E+00 -0.00000000000E+00 -0.15512003181E+04  0.15512003181E+04  0.00000000000E+00 0. -1.
         25    1    1    2    0    0  0.75803324393E+02  0.64885769372E+02 -0.42387020159E+03  0.45304222193E+03  0.12500000000E+03 0.  0.
         25    1    1    2    0    0 -0.12726319126E+03 -0.39486324553E+02 -0.83551655810E+03  0.85525903009E+03  0.12500000000E+03 0.  0.
         25    1    1    2    0    0  0.51459866863E+02 -0.25399444819E+02 -0.24966620277E+03  0.28504642166E+03  0.12500000000E+03 0.  0.
</event>
<event>
 5    0  0.5612316E-005  0.3593345E+03  0.7546771E-02  0.1058848E+00
         21   -1    0    0  502  501  0.00000000000E+00  0.00000000000E+00  0.11274724178E+03  0.11274724178E+03  0.00000000000E+00 0.  1.
         21   -1    0    0  501  502 -0.00000000000E+00 -0.00000000000E+00 -0.11452281239E+04  0.11452281239E+04  0.00000000000E+00 0.  1.
         25    1    1    2    0    0 -0.45134138425E+02  0.23422588124E+03 -0.17486357983E+03  0.32109363968E+03  0.12500000000E+03 0.  0.
         25    1    1    2    0    0  0.17158493297E+02 -0.92438471540E+02 -0.57380255788E+03  0.59473831249E+03  0.12500000000E+03 0.  0.
         25    1    1    2    0    0  0.27975645128E+02 -0.14178740970E+03 -0.28381474445E+03  0.34214341355E+03  0.12500000000E+03 0.  0.
</event>
<event>
 5    0  0.5612316E-005  0.4400780E+03  0.7546771E-02  0.1030723E+00
         21   -1    0    0  502  501  0.00000000000E+00  0.00000000000E+00  0.35760054611E+03  0.35760054611E+03  0.00000000000E+00 0.  1.
         21   -1    0    0  501  502 -0.00000000000E+00 -0.00000000000E+00 -0.54157810880E+03  0.54157810880E+03  0.00000000000E+00 0.  1.
         25    1    1    2    0    0  0.50471041996E+02  0.26490455050E+03 -0.33627324863E+03  0.44880557561E+03  0.12500000000E+03 0.  0.
         25    1    1    2    0    0  0.68156560165E+02 -0.60592379791E+02  0.35881762467E+02  0.15883719357E+03  0.12500000000E+03 0.  0.
         25    1    1    2    0    0 -0.11862760216E+03 -0.20431217071E+03  0.11641392347E+03  0.29153588574E+03  0.12500000000E+03 0.  0.
</event>
<event>
 5    0  0.5612316E-005  0.6061446E+03  0.7546771E-02  0.9892739E-01
         21   -1    0    0  502  501  0.00000000000E+00  0.00000000000E+00  0.83963886035E+03  0.83963886035E+03  0.00000000000E+00 0.  1.
         21   -1    0    0  501  502 -0.00000000000E+00 -0.00000000000E+00 -0.43758256637E+03  0.43758256637E+03  0.00000000000E+00 0.  1.
         25    1    1    2    0    0  0.81641823826E+02  0.36891956262E+03 -0.33856962131E+02  0.39942248931E+03  0.12500000000E+03 0.  0.
         25    1    1    2    0    0 -0.30379536784E+03 -0.35066868292E+03  0.38842239277E+03  0.61786495766E+03  0.12500000000E+03 0.  0.
         25    1    1    2    0    0  0.22215354402E+03 -0.18250879700E+02  0.47490863349E+02  0.25993397975E+03  0.12500000000E+03 0.  0.
</event>
<event>
 5    0  0.5612316E-005  0.3321614E+03  0.7546771E-02  0.1070184E+00
         21   -1    0    0  502  501  0.00000000000E+00  0.00000000000E+00  0.20100432090E+04  0.20100432090E+04  0.00000000000E+00 0. -1.
         21   -1    0    0  501  502 -0.00000000000E+00 -0.00000000000E+00 -0.54889965903E+02  0.54889965903E+02  0.00000000000E+00 0. -1.
         25    1    1    2    0    0  0.10417309695E+03  0.55705959163E+02  0.46800264923E+03  0.49860472089E+03  0.12500000000E+03 0.  0.
         25    1    1    2    0    0 -0.11401973522E+03 -0.14791752773E+03  0.13157520235E+04  0.13348065337E+04  0.12500000000E+03 0.  0.
         25    1    1    2    0    0  0.98466382678E+01  0.92211568568E+02  0.17139857037E+03  0.23152192031E+03  0.12500000000E+03 0.  0.
</event>
<event>
 5    0  0.5612316E-005  0.2260061E+03  0.7546771E-02  0.1129483E+00
         21   -1    0    0  502  501  0.00000000000E+00  0.00000000000E+00  0.64094689904E+02  0.64094689904E+02  0.00000000000E+00 0.  1.
         21   -1    0    0  501  502 -0.00000000000E+00 -0.00000000000E+00 -0.79692626265E+03  0.79692626265E+03  0.00000000000E+00 0.  1.
         25    1    1    2    0    0  0.63068768028E+02 -0.26260663808E+02 -0.16462606811E+03  0.21770170938E+03  0.12500000000E+03 0.  0.
         25    1    1    2    0    0 -0.53053192035E+02  0.22627909444E+01 -0.13422708309E+03  0.19094939445E+03  0.12500000000E+03 0.  0.
         25    1    1    2    0    0 -0.10015575993E+02  0.23997872864E+02 -0.43397842154E+03  0.45236984872E+03  0.12500000000E+03 0.  0.
</event>
<event>
 5    0  0.5612316E-005  0.2613274E+03  0.7546771E-02  0.1106348E+00
         21   -1    0    0  502  501  0.00000000000E+00  0.00000000000E+00  0.28195080500E+03  0.28195080500E+03  0.00000000000E+00 0. -1.
         21   -1    0    0  501  502 -0.00000000000E+00 -0.00000000000E+00 -0.24221257202E+03  0.24221257202E+03  0.00000000000E+00 0. -1.
         25    1    1    2    0    0  0.19307043983E+02  0.12632992182E+03 -0.33304211017E+02  0.18184108877E+03  0.12500000000E+03 0.  0.
         25    1    1    2    0    0  0.69603354615E+02 -0.22625885532E+02  0.46203700992E+01  0.14492379201E+03  0.12500000000E+03 0.  0.
         25    1    1    2    0    0 -0.88910398598E+02 -0.10370403629E+03  0.68422073893E+02  0.19739849624E+03  0.12500000000E+03 0.  0.
</event>
<event>
 5    0  0.5612316E-005  0.3969370E+03  0.7546771E-02  0.1044845E+00
         21   -1    0    0  502  501  0.00000000000E+00  0.00000000000E+00  0.34285041882E+03  0.34285041882E+03  0.00000000000E+00 0.  1.
         21   -1    0    0  501  502 -0.00000000000E+00 -0.00000000000E+00 -0.45955594542E+03  0.45955594542E+03  0.00000000000E+00 0.  1.
         25    1    1    2    0    0  0.77564876400E+02  0.25789650307E+03 -0.63260676242E+02  0.30356849228E+03  0.12500000000E+03 0.  0.
         25    1    1    2    0    0 -0.11126553463E+02 -0.78633385651E+02 -0.18364537206E+03  0.23591869831E+03  0.12500000000E+03 0.  0.
         25    1    1    2    0    0 -0.66438322937E+02 -0.17926311742E+03  0.13020052170E+03  0.26291917365E+03  0.12500000000E+03 0.  0.
</event>
<event>
 5    0  0.5612316E-005  0.2402772E+03  0.7546771E-02  0.1119608E+00
         21   -1    0    0  502  501  0.00000000000E+00  0.00000000000E+00  0.53262986621E+02  0.53262986621E+02  0.00000000000E+00 0.  1.
         21   -1    0    0  501  502 -0.00000000000E+00 -0.00000000000E+00 -0.10839255888E+04  0.10839255888E+04  0.00000000000E+00 0.  1.
         25    1    1    2    0    0 -0.32790492453E+02 -0.13954554814E+02 -0.54041883042E+03  0.55583042223E+03  0.12500000000E+03 0.  0.
         25    1    1    2    0    0 -0.45769407619E+02  0.40590087735E+02 -0.12720298236E+03  0.18854175298E+03  0.12500000000E+03 0.  0.
         25    1    1    2    0    0  0.78559900072E+02 -0.26635532921E+02 -0.36304078942E+03  0.39281640024E+03  0.12500000000E+03 0.  0.
</event>
<event>
 5    0  0.5612316E-005  0.3162168E+03  0.7546771E-02  0.1077404E+00
         21   -1    0    0  502  501  0.00000000000E+00  0.00000000000E+00  0.18629468530E+03  0.18629468530E+03  0.00000000000E+00 0. -1.
         21   -1    0    0  501  502 -0.00000000000E+00 -0.00000000000E+00 -0.53674668082E+03  0.53674668082E+03  0.00000000000E+00 0. -1.
         25    1    1    2    0    0 -0.99642165646E+01 -0.13126243988E+03  0.37880748486E+02  0.18544288835E+03  0.12500000000E+03 0.  0.
         25    1    1    2    0    0 -0.16715283712E+02  0.18065309109E+03 -0.16372360755E+03  0.27449109221E+03  0.12500000000E+03 0.  0.
         25    1    1    2    0    0  0.26679500276E+02 -0.49390651215E+02 -0.22460913645E+03  0.26310738557E+03  0.12500000000E+03 0.  0.
</event>
<event>
 5    0  0.5612316E-005  0.3337720E+03  0.7546771E-02  0.1069480E+00
         21   -1    0    0  502  501  0.00000000000E+00  0.00000000000E+00  0.54705598745E+03  0.54705598745E+03  0.00000000000E+00 0. -1.
         21   -1    0    0  501  502 -0.00000000000E+00 -0.00000000000E+00 -0.20364236056E+03  0.20364236056E+03  0.00000000000E+00 0. -1.
         25    1    1    2    0    0 -0.51685184546E+01  0.22687427572E+02  0.47645128732E+02  0.13578104155E+03  0.12500000000E+03 0.  0.
         25    1    1    2    0    0  0.82906458017E+02  0.58164494589E+02 -0.96924514364E+02  0.18781893061E+03  0.12500000000E+03 0.  0.
         25    1    1    2    0    0 -0.77737939562E+02 -0.80851922161E+02  0.39269301252E+03  0.42709837584E+03  0.12500000000E+03 0.  0.
</event>
<event>
 5    0  0.5612316E-005  0.4265507E+03  0.7546771E-02  0.1034955E+00
         21   -1    0    0  502  501  0.00000000000E+00  0.00000000000E+00  0.12860432184E+04  0.12860432184E+04  0.00000000000E+00 0. -1.
         21   -1    0    0  501  502 -0.00000000000E+00 -0.00000000000E+00 -0.14147695972E+03  0.14147695972E+03  0.00000000000E+00 0. -1.
         25    1    1    2    0    0 -0.25004994088E+02  0.56246090467E+02  0.18069274846E+02  0.14050043102E+03  0.12500000000E+03 0.  0.
         25    1    1    2    0    0  0.25967965929E+03 -0.73449680416E+01  0.86148714022E+03  0.90844513691E+03  0.12500000000E+03 0.  0.
         25    1    1    2    0    0 -0.23467466520E+03 -0.48901122426E+02  0.26500984359E+03  0.37857461016E+03  0.12500000000E+03 0.  0.
</event>
<event>
 5    0  0.5612316E-005  0.2943938E+03  0.7546771E-02  0.1088077E+00
         21   -1    0    0  502  501  0.00000000000E+00  0.00000000000E+00  0.18976405202E+03  0.18976405202E+03  0.00000000000E+00 0.  1.
         21   -1    0    0  501  502 -0.00000000000E+00 -0.00000000000E+00 -0.45671304265E+03  0.45671304265E+03  0.00000000000E+00 0.  1.
         25    1    1    2    0    0 -0.25160021868E+02  0.18811726829E+03 -0.53036792154E+02  0.23336459597E+03  0.12500000000E+03 0.  0.
         25    1    1    2    0    0  0.65714138596E+02 -0.16229814437E+03 -0.16268622635E+03  0.26972364361E+03  0.12500000000E+03 0.  0.
         25    1    1    2    0    0 -0.40554116728E+02 -0.25819123927E+02 -0.51225972125E+02  0.14338885509E+03  0.12500000000E+03 0.  0.
</event>
<event>
 5    0  0.5612316E-005  0.2796851E+03  0.7546771E-02  0.1095861E+00
         21   -1    0    0  502  501  0.00000000000E+00  0.00000000000E+00  0.27075464327E+03  0.27075464327E+03  0.00000000000E+00 0.  1.
         21   -1    0    0  501  502 -0.00000000000E+00 -0.00000000000E+00 -0.28891011879E+03  0.28891011879E+03  0.00000000000E+00 0.  1.
         25    1    1    2    0    0  0.89285302405E+02  0.55712632157E+02 -0.14341110870E+03  0.21741092131E+03  0.12500000000E+03 0.  0.
         25    1    1    2    0    0 -0.10422779998E+03 -0.56541498785E+02  0.11662648508E+02  0.17268871632E+03  0.12500000000E+03 0.  0.
         25    1    1    2    0    0  0.14942497578E+02  0.82886662845E+00  0.11359298467E+03  0.16956512442E+03  0.12500000000E+03 0.  0.
</event>
<event>
 5    0  0.5612316E-005  0.3232796E+03  0.7546771E-02  0.1074150E+00
         21   -1    0    0  502  501  0.00000000000E+00  0.00000000000E+00  0.52778513343E+03  0.52778513343E+03  0.00000000000E+00 0. -1.
         21   -1    0    0  501  502 -0.00000000000E+00 -0.00000000000E+00 -0.19801556125E+03  0.19801556125E+03  0.00000000000E+00 0. -1.
         25    1    1    2    0    0  0.16548838198E+03 -0.13992052537E+03  0.70869665195E+02  0.26002243641E+03  0.12500000000E+03 0.  0.
         25    1    1    2    0    0 -0.90039107992E+02  0.17843524150E+03  0.16881952616E+03  0.28995035573E+03  0.12500000000E+03 0.  0.
         25    1    1    2    0    0 -0.75449273987E+02 -0.38514716129E+02  0.90080380820E+02  0.17582790254E+03  0.12500000000E+03 0.  0.
</event>
<event>
 5    0  0.5612316E-005  0.3391145E+03  0.7546771E-02  0.1067174E+00
         21   -1    0    0  502  501  0.00000000000E+00  0.00000000000E+00  0.34597243309E+03  0.34597243309E+03  0.00000000000E+00 0. -1.
         21   -1    0    0  501  502 -0.00000000000E+00 -0.00000000000E+00 -0.33239251970E+03  0.33239251970E+03  0.00000000000E+00 0. -1.
         25    1    1    2    0    0  0.16592052864E+03 -0.71918521047E+02  0.64628338307E+02  0.22913689709E+03  0.12500000000E+03 0.  0.
         25    1    1    2    0    0 -0.54585733516E+02  0.90330716527E+02 -0.17542740310E+03  0.23987291304E+03  0.12500000000E+03 0.  0.
         25    1    1    2    0    0 -0.11133479513E+03 -0.18412195481E+02  0.12437897818E+03  0.20935514267E+03  0.12500000000E+03 0.  0.
</event>
<event>
 5    0  0.5612316E-005  0.2633131E+03  0.7546771E-02  0.1105169E+00
         21   -1    0    0  502  501  0.00000000000E+00  0.00000000000E+00  0.58186258391E+02  0.58186258391E+02  0.00000000000E+00 0. -1.
         21   -1    0    0  501  502 -0.00000000000E+00 -0.00000000000E+00 -0.11915839318E+04  0.11915839318E+04  0.00000000000E+00 0. -1.
         25    1    1    2    0    0  0.70640137163E+02  0.71754565888E+01 -0.29646851877E+03  0.32948459566E+03  0.12500000000E+03 0.  0.
         25    1    1    2    0    0 -0.98273604644E+02  0.20873606433E+02 -0.74026800373E+03  0.75743984987E+03  0.12500000000E+03 0.  0.
         25    1    1    2    0    0  0.27633467481E+02 -0.28049063022E+02 -0.96661150911E+02  0.16284574467E+03  0.12500000000E+03 0.  0.
</event>
<event>
 5    0  0.5612316E-005  0.3321069E+03  0.7546771E-02  0.1070208E+00
         21   -1    0    0  502  501  0.00000000000E+00  0.00000000000E+00  0.81714847510E+03  0.81714847510E+03  0.00000000000E+00 0.  1.
         21   -1    0    0  501  502 -0.00000000000E+00 -0.00000000000E+00 -0.13497546858E+03  0.13497546858E+03  0.00000000000E+00 0.  1.
         25    1    1    2    0    0 -0.15945152631E+03 -0.12579487778E+03  0.16407069243E+03  0.28947078027E+03  0.12500000000E+03 0.  0.
         25    1    1    2    0    0  0.15910846268E+03 -0.36278924296E+02  0.22047324010E+03  0.30143840639E+03  0.12500000000E+03 0.  0.
         25    1    1    2    0    0  0.34306362620E+00  0.16207380207E+03  0.29762907398E+03  0.36121475702E+03  0.12500000000E+03 0.  0.
</event>
<event>
 5    0  0.5612316E-005  0.3604329E+03  0.7546771E-02  0.1058413E+00
         21   -1    0    0  502  501  0.00000000000E+00  0.00000000000E+00  0.98958121987E+03  0.98958121987E+03  0.00000000000E+00 0. -1.
         21   -1    0    0  501  502 -0.00000000000E+00 -0.00000000000E+00 -0.13127967514E+03  0.13127967514E+03  0.00000000000E+00 0. -1.
         25    1    1    2    0    0  0.19334254426E+03 -0.10470888508E+02  0.85957586692E+02  0.24597700225E+03  0.12500000000E+03 0.  0.
         25    1    1    2    0    0  0.48893284661E+02  0.49409513404E+01  0.19994183097E+03  0.24086656483E+03  0.12500000000E+03 0.  0.
         25    1    1    2    0    0 -0.24223582892E+03  0.55299371678E+01  0.57240212707E+03  0.63401732792E+03  0.12500000000E+03 0.  0.
</event>
<event>
 5    0  0.5612316E-005  0.2187227E+03  0.7546771E-02  0.1134839E+00
         21   -1    0    0  502  501  0.00000000000E+00  0.00000000000E+00  0.36178306695E+03  0.36178306695E+03  0.00000000000E+00 0. -1.
         21   -1    0    0  501  502 -0.00000000000E+00 -0.00000000000E+00 -0.13223286462E+03  0.13223286462E+03  0.00000000000E+00 0. -1.
         25    1    1    2    0    0 -0.32988881738E+02 -0.63558562902E+01  0.14950442470E+03  0.19775043927E+03  0.12500000000E+03 0.  0.
         25    1    1    2    0    0  0.73174745355E+02 -0.21478554529E+02  0.68183676366E+02  0.16152363723E+03  0.12500000000E+03 0.  0.
         25    1    1    2    0    0 -0.40185863617E+02  0.27834410819E+02  0.11862101259E+02  0.13474185507E+03  0.12500000000E+03 0.  0.
</event>
<event>
 5    0  0.5612316E-005  0.3288522E+03  0.7546771E-02  0.1071646E+00
         21   -1    0    0  502  501  0.00000000000E+00  0.00000000000E+00  0.13479910846E+04  0.13479910846E+04  0.00000000000E+00 0. -1.
         21   -1    0    0  501  502 -0.00000000000E+00 -0.00000000000E+00 -0.80225854989E+02  0.80225854989E+02  0.00000000000E+00 0. -1.
         25    1    1    2    0    0 -0.86399482986E+02  0.23039978545E+03  0.37786238176E+03  0.46792511297E+03  0.12500000000E+03 0.  0.
         25    1    1    2    0    0  0.48950798503E+02 -0.11027034764E+03  0.55164343995E+03  0.57835215491E+03  0.12500000000E+03 0.  0.
         25    1    1    2    0    0  0.37448684483E+02 -0.12012943781E+03  0.33825940791E+03  0.38193967173E+03  0.12500000000E+03 0.  0.
</event>
<event>
 5    0  0.5612316E-005  0.3694374E+03  0.7546771E-02  0.1054908E+00
         21   -1    0    0  502  501  0.00000000000E+00  0.00000000000E+00  0.39019081104E+03  0.39019081104E+03  0.00000000000E+00 0.  1.
         21   -1    0    0  501  502 -0.00000000000E+00 -0.00000000000E+00 -0.34978780784E+03  0.34978780784E+03  0.00000000000E+00 0.  1.
         25    1    1    2    0    0  0.12838365784E+03  0.35119689321E+01  0.16290038718E+03  0.24219049046E+03  0.12500000000E+03 0.  0.
         25    1    1    2    0    0 -0.19538519239E+03  0.10916491943E+03 -0.17357349668E+03  0.30958861702E+03  0.12500000000E+03 0.  0.
         25    1    1    2    0    0  0.67001534550E+02 -0.11267688836E+03  0.51076112704E+02  0.18819951140E+03  0.12500000000E+03 0.  0.
</event>
<event>
 5    0  0.5612316E-005  0.3196680E+03  0.7546771E-02  0.1075802E+00
         21   -1    0    0  502  501  0.00000000000E+00  0.00000000000E+00  0.37382703231E+03  0.37382703231E+03  0.00000000000E+00 0.  1.
         21   -1    0    0  501  502 -0.00000000000E+00 -0.00000000000E+00 -0.27335540085E+03  0.27335540085E+03  0.00000000000E+00 0.  1.
         25    1    1    2    0    0 -0.36759134930E+01 -0.75420233135E+01  0.84434138296E+00  0.12528410661E+03  0.12500000000E+03 0.  0.
         25    1    1    2    0    0  0.20209918415E+03 -0.65153112400E+02  0.12275875064E+03  0.27528842902E+03  0.12500000000E+03 0.  0.
         25    1    1    2    0    0 -0.19842327066E+03  0.72695135713E+02 -0.23131460568E+02  0.24660989754E+03  0.12500000000E+03 0.  0.
</event>
<event>
 5    0  0.5612316E-005  0.4157717E+03  0.7546771E-02  0.1038451E+00
         21   -1    0    0  502  501  0.00000000000E+00  0.00000000000E+00  0.55860828842E+03  0.55860828842E+03  0.00000000000E+00 0. -1.
         21   -1    0    0  501  502 -0.00000000000E+00 -0.00000000000E+00 -0.30945847368E+03  0.30945847368E+03  0.00000000000E+00 0. -1.
         25    1    1    2    0    0 -0.14093342982E+03  0.12565632140E+03  0.20590850784E+02  0.22737793623E+03  0.12500000000E+03 0.  0.
         25    1    1    2    0    0  0.25721212217E+03  0.27461296886E+02 -0.37168966706E+02  0.28968729814E+03  0.12500000000E+03 0.  0.
         25    1    1    2    0    0 -0.11627869235E+03 -0.15311761829E+03  0.26572793067E+03  0.35100152772E+03  0.12500000000E+03 0.  0.
</event>
<event>
 5    0  0.5612316E-005  0.3802080E+03  0.7546771E-02  0.1050857E+00
         21   -1    0    0  502  501  0.00000000000E+00  0.00000000000E+00  0.92649591920E+03  0.92649591920E+03  0.00000000000E+00 0.  1.
         21   -1    0    0  501  502 -0.00000000000E+00 -0.00000000000E+00 -0.15602670081E+03  0.15602670081E+03  0.00000000000E+00 0.  1.
         25    1    1    2    0    0  0.54449624197E+02  0.11248510407E+03  0.25380063729E+03  0.30928534350E+03  0.12500000000E+03 0.  0.
         25    1    1    2    0    0 -0.16398363490E+03 -0.11140545182E+03  0.41053625627E+01  0.23440064252E+03  0.12500000000E+03 0.  0.
         25    1    1    2    0    0  0.10953401070E+03 -0.10796522502E+01  0.51256321853E+03  0.53883663400E+03  0.12500000000E+03 0.  0.
</event>
<event>
 5    0  0.6150122E-005  0.2912660E+03  0.7546771E-02  0.1089690E+00
         21   -1    0    0  502  501  0.00000000000E+00  0.00000000000E+00  0.99172924792E+03  0.99172924792E+03  0.00000000000E+00 0. -1.
         21   -1    0    0  501  502 -0.00000000000E+00 -0.00000000000E+00 -0.85543416817E+02  0.85543416817E+02  0.00000000000E+00 0. -1.
         25    1    1    2    0    0  0.31007674939E+02  0.37525046118E+02  0.48235099340E+02  0.14255255101E+03  0.12500000000E+03 0.  0.
         25    1    1    2    0    0 -0.10814297340E+03  0.61690679573E+02  0.28701703704E+03  0.33690417361E+03  0.12500000000E+03 0.  0.
         25    1    1    2    0    0  0.77135298460E+02 -0.99215725692E+02  0.57093369472E+03  0.59781594012E+03  0.12500000000E+03 0.  0.
</event>
<event>
 5    0  0.5612316E-005  0.3463249E+03  0.7546771E-02  0.1064134E+00
         21   -1    0    0  502  501  0.00000000000E+00  0.00000000000E+00  0.88779193351E+03  0.88779193351E+03  0.00000000000E+00 0. -1.
         21   -1    0    0  501  502 -0.00000000000E+00 -0.00000000000E+00 -0.13510024627E+03  0.13510024627E+03  0.00000000000E+00 0. -1.
         25    1    1    2    0    0  0.18925079976E+03 -0.43540105907E+02  0.14881709197E+03  0.27474193872E+03  0.12500000000E+03 0.  0.
         25    1    1    2    0    0 -0.11787115921E+02  0.12092367959E+03  0.41523011770E+03  0.45033601125E+03  0.12500000000E+03 0.  0.
         25    1    1    2    0    0 -0.17746368384E+03 -0.77383573680E+02  0.18864447758E+03  0.29781422981E+03  0.12500000000E+03 0.  0.
</event>
<event>
 5    0  0.5612316E-005  0.5049436E+03  0.7546771E-02  0.1012497E+00
         21   -1    0    0  502  501  0.00000000000E+00  0.00000000000E+00  0.92651694357E+03  0.92651694357E+03  0.00000000000E+00 0.  1.
         21   -1    0    0  501  502 -0.00000000000E+00 -0.00000000000E+00 -0.27518979176E+03  0.27518979176E+03  0.00000000000E+00 0.  1.
         25    1    1    2    0    0  0.75291984937E+02  0.13557778529E+03  0.28628662417E+03  0.34876245503E+03  0.12500000000E+03 0.  0.
         25    1    1    2    0    0 -0.10883888476E+03 -0.35049592033E+03 -0.25740935746E+02  0.38856259313E+03  0.12500000000E+03 0.  0.
         25    1    1    2    0    0  0.33546899825E+02  0.21491813504E+03  0.39078146339E+03  0.46438168718E+03  0.12500000000E+03 0.  0.
</event>
<event>
 5    0  0.5612316E-005  0.2692154E+03  0.7546771E-02  0.1101730E+00
         21   -1    0    0  502  501  0.00000000000E+00  0.00000000000E+00  0.16078823956E+04  0.16078823956E+04  0.00000000000E+00 0.  1.
         21   -1    0    0  501  502 -0.00000000000E+00 -0.00000000000E+00 -0.45076011137E+02  0.45076011137E+02  0.00000000000E+00 0.  1.
         25    1    1    2    0    0 -0.10254856581E+03  0.33757384931E+02  0.42114454163E+03  0.45237539094E+03  0.12500000000E+03 0.  0.
         25    1    1    2    0    0 -0.68654691951E+02 -0.26712486932E+02  0.30957348262E+03  0.34188852690E+03  0.12500000000E+03 0.  0.
         25    1    1    2    0    0  0.17120325776E+03 -0.70448979984E+01  0.83208836026E+03  0.85869448894E+03  0.12500000000E+03 0.  0.
</event>
<event>
 5    0  0.5612316E-005  0.2512271E+03  0.7546771E-02  0.1112532E+00
         21   -1    0    0  502  501  0.00000000000E+00  0.00000000000E+00  0.31940367132E+03  0.31940367132E+03  0.00000000000E+00 0.  1.
         21   -1    0    0  501  502 -0.00000000000E+00 -0.00000000000E+00 -0.19760275638E+03  0.19760275638E+03  0.00000000000E+00 0.  1.
         25    1    1    2    0    0  0.28306689676E+02 -0.13757280374E+03 -0.17053258056E+02  0.18879448779E+03  0.12500000000E+03 0.  0.
         25    1    1    2    0    0  0.40393090292E+01  0.64789480253E+02  0.10629768334E+03  0.17646016619E+03  0.12500000000E+03 0.  0.
         25    1    1    2    0    0 -0.32345998705E+02  0.72783323483E+02  0.32556489667E+02  0.15175177373E+03  0.12500000000E+03 0.  0.
</event>
<event>
 5    0  0.5612316E-005  0.4949174E+03  0.7546771E-02  0.1015114E+00
         21   -1    0    0  502  501  0.00000000000E+00  0.00000000000E+00  0.81551955384E+03  0.81551955384E+03  0.00000000000E+00 0.  1.
         21   -1    0    0  501  502 -0.00000000000E+00 -0.00000000000E+00 -0.30035231771E+03  0.30035231771E+03  0.00000000000E+00 0.  1.
         25    1    1    2    0    0 -0.15954966965E+03  0.26552438648E+03  0.31533222309E+03  0.45936772615E+03  0.12500000000E+03 0.  0.
         25    1    1    2    0    0  0.20755421985E+03 -0.31168694257E+03  0.28889468587E+03  0.48919591563E+03  0.12500000000E+03 0.  0.
         25    1    1    2    0    0 -0.48004550194E+02  0.46162556089E+02 -0.89059672835E+02  0.16730822977E+03  0.12500000000E+03 0.  0.
</event>
<event>
 5    0  0.5612316E-005  0.2875481E+03  0.7546771E-02  0.1091636E+00
         21   -1    0    0  502  501  0.00000000000E+00  0.00000000000E+00  0.33596628416E+03  0.33596628416E+03  0.00000000000E+00 0.  1.
         21   -1    0    0  501  502 -0.00000000000E+00 -0.00000000000E+00 -0.24610772430E+03  0.24610772430E+03  0.00000000000E+00 0.  1.
         25    1    1    2    0    0  0.42088551834E+02 -0.19745090180E+03  0.34023528325E+02  0.23987685444E+03  0.12500000000E+03 0.  0.
         25    1    1    2    0    0 -0.25728251097E+02  0.14608754025E+03  0.67934291659E+02  0.20553243127E+03  0.12500000000E+03 0.  0.
         25    1    1    2    0    0 -0.16360300737E+02  0.51363361550E+02 -0.12099260118E+02  0.13666472275E+03  0.12500000000E+03 0.  0.
</event>
<event>
 5    0  0.5612316E-005  0.2570948E+03  0.7546771E-02  0.1108901E+00
         21   -1    0    0  502  501  0.00000000000E+00  0.00000000000E+00  0.61860894758E+03  0.61860894758E+03  0.00000000000E+00 0.  1.
         21   -1    0    0  501  502 -0.00000000000E+00 -0.00000000000E+00 -0.10684896392E+03  0.10684896392E+03  0.00000000000E+00 0.  1.
         25    1    1    2    0    0  0.92639702679E+02  0.83057974392E+02  0.30679421510E+03  0.35387629483E+03  0.12500000000E+03 0.  0.
         25    1    1    2    0    0  0.80510820426E+01  0.70699794340E+01  0.92352340369E+02  0.15578433587E+03  0.12500000000E+03 0.  0.
         25    1    1    2    0    0 -0.10069078472E+03 -0.90127953826E+02  0.11261342819E+03  0.21579728079E+03  0.12500000000E+03 0.  0.
</event>
<event>
 5    0  0.5612316E-005  0.2703192E+03  0.7546771E-02  0.1101097E+00
         21   -1    0    0  502  501  0.00000000000E+00  0.00000000000E+00  0.24607210384E+03  0.24607210384E+03  0.00000000000E+00 0.  1.
         21   -1    0    0  501  502 -0.00000000000E+00 -0.00000000000E+00 -0.29695547946E+03  0.29695547946E+03  0.00000000000E+00 0.  1.
         25    1    1    2    0    0 -0.11451896970E+03  0.13626471148E+02 -0.15695547698E+03  0.23143097652E+03  0.12500000000E+03 0.  0.
         25    1    1    2    0    0  0.34903224462E+02 -0.92628214226E+01  0.98403563708E+02  0.16313275664E+03  0.12500000000E+03 0.  0.
         25    1    1    2    0    0  0.79615745243E+02 -0.43636497255E+01  0.76685376510E+01  0.14846385014E+03  0.12500000000E+03 0.  0.
</event>
<event>
 5    0  0.5612316E-005  0.3204873E+03  0.7546771E-02  0.1075425E+00
         21   -1    0    0  502  501  0.00000000000E+00  0.00000000000E+00  0.15310500218E+04  0.15310500218E+04  0.00000000000E+00 0. -1.
         21   -1    0    0  501  502 -0.00000000000E+00 -0.00000000000E+00 -0.67086063569E+02  0.67086063569E+02  0.00000000000E+00 0. -1.
         25    1    1    2    0    0  0.74581164402E+02 -0.18513016353E+03  0.79162052471E+03  0.82590773254E+03  0.12500000000E+03 0.  0.
         25    1    1    2    0    0 -0.24070676937E+02  0.11071095801E+03  0.55076795433E+03  0.57602660809E+03  0.12500000000E+03 0.  0.
         25    1    1    2    0    0 -0.50510487464E+02  0.74419205514E+02  0.12157547916E+03  0.19620174471E+03  0.12500000000E+03 0.  0.
</event>
<event>
 5    0  0.5612316E-005  0.3447750E+03  0.7546771E-02  0.1064780E+00
         21   -1    0    0  502  501  0.00000000000E+00  0.00000000000E+00  0.24537809904E+03  0.24537809904E+03  0.00000000000E+00 0. -1.
         21   -1    0    0  501  502 -0.00000000000E+00 -0.00000000000E+00 -0.48443515286E+03  0.48443515286E+03  0.00000000000E+00 0. -1.
         25    1    1    2    0    0  0.11969855945E+03  0.15638517085E+03  0.10159968755E+02  0.23347867518E+03  0.12500000000E+03 0.  0.
         25    1    1    2    0    0 -0.10115556192E+03 -0.20520011230E+03 -0.24951849253E+03  0.36086564246E+03  0.12500000000E+03 0.  0.
         25    1    1    2    0    0 -0.18542997531E+02  0.48814941449E+02  0.30146995607E+00  0.13546893426E+03  0.12500000000E+03 0.  0.
</event>
<event>
 5    0  0.5612316E-005  0.3179898E+03  0.7546771E-02  0.1076578E+00
         21   -1    0    0  502  501  0.00000000000E+00  0.00000000000E+00  0.84155973688E+03  0.84155973688E+03  0.00000000000E+00 0.  1.
         21   -1    0    0  501  502 -0.00000000000E+00 -0.00000000000E+00 -0.12015488007E+03  0.12015488007E+03  0.00000000000E+00 0.  1.
         25    1    1    2    0    0  0.10305554023E+03 -0.11338800772E+02  0.18755706071E+03  0.24809607776E+03  0.12500000000E+03 0.  0.
         25    1    1    2    0    0 -0.66671413556E+02 -0.39767523699E+02  0.55319241504E+03  0.57242762109E+03  0.12500000000E+03 0.  0.
         25    1    1    2    0    0 -0.36384126674E+02  0.51106324471E+02 -0.19344618938E+02  0.14119091811E+03  0.12500000000E+03 0.  0.
</event>
<event>
 5    0  0.5612316E-005  0.2608024E+03  0.7546771E-02  0.1106662E+00
         21   -1    0    0  502  501  0.00000000000E+00  0.00000000000E+00  0.73878670117E+02  0.73878670117E+02  0.00000000000E+00 0. -1.
         21   -1    0    0  501  502 -0.00000000000E+00 -0.00000000000E+00 -0.92067027746E+03  0.92067027746E+03  0.00000000000E+00 0. -1.
         25    1    1    2    0    0  0.41619243621E+02 -0.43678959743E+02 -0.17540922568E+03  0.22368149100E+03  0.12500000000E+03 0.  0.
         25    1    1    2    0    0 -0.15192858777E+03 -0.21201622964E+02 -0.39210200444E+03  0.43920472047E+03  0.12500000000E+03 0.  0.
         25    1    1    2    0    0  0.11030934414E+03  0.64880582708E+02 -0.27928037722E+03  0.33166273610E+03  0.12500000000E+03 0.  0.
</event>
<event>
 5    0  0.5612316E-005  0.2715106E+03  0.7546771E-02  0.1100418E+00
         21   -1    0    0  502  501  0.00000000000E+00  0.00000000000E+00  0.11090103843E+04  0.11090103843E+04  0.00000000000E+00 0.  1.
         21   -1    0    0  501  502 -0.00000000000E+00 -0.00000000000E+00 -0.66471884842E+02  0.66471884842E+02  0.00000000000E+00 0.  1.
         25    1    1    2    0    0 -0.21659884218E+02 -0.12869020796E+02  0.79763883283E+02  0.15040624773E+03  0.12500000000E+03 0.  0.
         25    1    1    2    0    0  0.23389722890E+02  0.35940337069E+02  0.13992667023E+03  0.19246625680E+03  0.12500000000E+03 0.  0.
         25    1    1    2    0    0 -0.17298386722E+01 -0.23071316273E+02  0.82284794598E+03  0.83260976465E+03  0.12500000000E+03 0.  0.
</event>
<event>
 5    0  0.5612316E-005  0.3315423E+03  0.7546771E-02  0.1070456E+00
         21   -1    0    0  502  501  0.00000000000E+00  0.00000000000E+00  0.96246440524E+03  0.96246440524E+03  0.00000000000E+00 0.  1.
         21   -1    0    0  501  502 -0.00000000000E+00 -0.00000000000E+00 -0.11420711064E+03  0.11420711064E+03  0.00000000000E+00 0.  1.
         25    1    1    2    0    0 -0.52196310359E+02 -0.21098021914E+03  0.43022136494E+03  0.49794832115E+03  0.12500000000E+03 0.  0.
         25    1    1    2    0    0  0.80772687772E+02  0.21758673229E+03  0.22335379421E+03  0.34551429861E+03  0.12500000000E+03 0.  0.
         25    1    1    2    0    0 -0.28576377413E+02 -0.66065131490E+01  0.19468213546E+03  0.23320889612E+03  0.12500000000E+03 0.  0.
</event>
<event>
 5    0  0.5612316E-005  0.4055261E+03  0.7546771E-02  0.1041883E+00
         21   -1    0    0  502  501  0.00000000000E+00  0.00000000000E+00  0.76587233271E+03  0.76587233271E+03  0.00000000000E+00 0.  1.
         21   -1    0    0  501  502 -0.00000000000E+00 -0.00000000000E+00 -0.21472431837E+03  0.21472431837E+03  0.00000000000E+00 0.  1.
         25    1    1    2    0    0 -0.12106233305E+03 -0.58389238340E+02  0.33633458303E+03  0.38315968391E+03  0.12500000000E+03 0.  0.
         25    1    1    2    0    0 -0.13210307660E+03  0.15676046416E+03  0.20772580938E+02  0.24100117446E+03  0.12500000000E+03 0.  0.
         25    1    1    2    0    0  0.25316540965E+03 -0.98371225820E+02  0.19404085038E+03  0.35643579271E+03  0.12500000000E+03 0.  0.
</event>
<event>
 5    0  0.5612316E-005  0.3668352E+03  0.7546771E-02  0.1055910E+00
         21   -1    0    0  502  501  0.00000000000E+00  0.00000000000E+00  0.15605388876E+04  0.15605388876E+04  0.00000000000E+00 0.  1.
         21   -1    0    0  501  502 -0.00000000000E+00 -0.00000000000E+00 -0.86231812685E+02  0.86231812685E+02  0.00000000000E+00 0.  1.
         25    1    1    2    0    0  0.65089583193E+02 -0.88314119924E+02  0.28996823910E+02  0.16882491941E+03  0.12500000000E+03 0.  0.
         25    1    1    2    0    0  0.17066638400E+02  0.29244825990E+02  0.40288082302E+03  0.42318375152E+03  0.12500000000E+03 0.  0.
         25    1    1    2    0    0 -0.82156221593E+02  0.59069293934E+02  0.10424294280E+04  0.10547620293E+04  0.12500000000E+03 0.  0.
</event>
<event>
 5    0  0.5612316E-005  0.2805683E+03  0.7546771E-02  0.1095379E+00
         21   -1    0    0  502  501  0.00000000000E+00  0.00000000000E+00  0.57314114868E+03  0.57314114868E+03  0.00000000000E+00 0.  1.
         21   -1    0    0  501  502 -0.00000000000E+00 -0.00000000000E+00 -0.13734587322E+03  0.13734587322E+03  0.00000000000E+00 0.  1.
         25    1    1    2    0    0  0.41923492816E+02  0.14714551874E+03  0.22169674746E+03  0.29695762454E+03  0.12500000000E+03 0.  0.
         25    1    1    2    0    0  0.46893236137E+02  0.65938360668E+01  0.10804576874E+03  0.17187595065E+03  0.12500000000E+03 0.  0.
         25    1    1    2    0    0 -0.88816728954E+02 -0.15373935481E+03  0.10605275925E+03  0.24165344671E+03  0.12500000000E+03 0.  0.
</event>
<event>
 5    0  0.5612316E-005  0.4003723E+03  0.7546771E-02  0.1043651E+00
         21   -1    0    0  502  501  0.00000000000E+00  0.00000000000E+00  0.97937284466E+03  0.97937284466E+03  0.00000000000E+00 0. -1.
         21   -1    0    0  501  502 -0.00000000000E+00 -0.00000000000E+00 -0.16367410229E+03  0.16367410229E+03  0.00000000000E+00 0. -1.
         25    1    1    2    0    0  0.20409806737E+03  0.23829532990E+03  0.26711108716E+03  0.43059728080E+03  0.12500000000E+03 0.  0.
         25    1    1    2    0    0 -0.13225137889E+03 -0.18206017341E+03  0.47681290092E+03  0.54185964644E+03  0.12500000000E+03 0.  0.
         25    1    1    2    0    0 -0.71846688477E+02 -0.56235156489E+02  0.71774754295E+02  0.17059001971E+03  0.12500000000E+03 0.  0.
</event>
<event>
 5    0  0.5612316E-005  0.2472547E+03  0.7546771E-02  0.1115052E+00
         21   -1    0    0  502  501  0.00000000000E+00  0.00000000000E+00  0.30428255528E+04  0.30428255528E+04  0.00000000000E+00 0.  1.
         21   -1    0    0  501  502 -0.00000000000E+00 -0.00000000000E+00 -0.20091492295E+02  0.20091492295E+02  0.00000000000E+00 0.  1.
         25    1    1    2    0    0  0.74880170729E+02 -0.84076802440E+02  0.84639153349E+03  0.86294818885E+03  0.12500000000E+03 0.  0.
         25    1    1    2    0    0 -0.77247109245E+02 -0.53871311351E+01  0.67808316585E+03  0.69384286181E+03  0.12500000000E+03 0.  0.
         25    1    1    2    0    0  0.23669385159E+01  0.89463933575E+02  0.14982593612E+04  0.15061259945E+04  0.12500000000E+03 0.  0.
</event>
<event>
 5    0  0.5612316E-005  0.3035579E+03  0.7546771E-02  0.1083475E+00
         21   -1    0    0  502  501  0.00000000000E+00  0.00000000000E+00  0.11732261782E+03  0.11732261782E+03  0.00000000000E+00 0. -1.
         21   -1    0    0  501  502 -0.00000000000E+00 -0.00000000000E+00 -0.78541889123E+03  0.78541889123E+03  0.00000000000E+00 0. -1.
         25    1    1    2    0    0  0.16199240479E+02  0.21623679072E+03 -0.18245692545E+03  0.30973584665E+03  0.12500000000E+03 0.  0.
         25    1    1    2    0    0 -0.22197816608E+02 -0.10372103108E+03 -0.17555727847E+03  0.24020023600E+03  0.12500000000E+03 0.  0.
         25    1    1    2    0    0  0.59985761290E+01 -0.11251575963E+03 -0.31008206948E+03  0.35280542640E+03  0.12500000000E+03 0.  0.
</event>
<event>
 5    0  0.5612316E-005  0.3459012E+03  0.7546771E-02  0.1064310E+00
         21   -1    0    0  502  501  0.00000000000E+00  0.00000000000E+00  0.10569699888E+04  0.10569699888E+04  0.00000000000E+00 0. -1.
         21   -1    0    0  501  502 -0.00000000000E+00 -0.00000000000E+00 -0.11319873656E+03  0.11319873656E+03  0.00000000000E+00 0. -1.
         25    1    1    2    0    0 -0.19604877056E+03  0.68736272932E+02  0.13959956577E+03  0.27977282645E+03  0.12500000000E+03 0.  0.
         25    1    1    2    0    0  0.59879992222E+02 -0.72237422351E+02  0.17505219518E+03  0.23467451863E+03  0.12500000000E+03 0.  0.
         25    1    1    2    0    0  0.13616877834E+03  0.35011494186E+01  0.62911949134E+03  0.65572138033E+03  0.12500000000E+03 0.  0.
</event>
<event>
 5    0  0.5612316E-005  0.2243392E+03  0.7546771E-02  0.1130689E+00
         21   -1    0    0  502  501  0.00000000000E+00  0.00000000000E+00  0.52590919489E+03  0.52590919489E+03  0.00000000000E+00 0.  1.
         21   -1    0    0  501  502 -0.00000000000E+00 -0.00000000000E+00 -0.95697278954E+02  0.95697278954E+02  0.00000000000E+00 0.  1.
         25    1    1    2    0    0 -0.89460749145E+02  0.31005114099E+01  0.17033803817E+03  0.22946216694E+03  0.12500000000E+03 0.  0.
         25    1    1    2    0    0  0.53461442357E+02 -0.26567755905E+02  0.20851919642E+03  0.25033822470E+03  0.12500000000E+03 0.  0.
         25    1    1    2    0    0  0.35999306788E+02  0.23467244495E+02  0.51354681350E+02  0.14180608220E+03  0.12500000000E+03 0.  0.
</event>
<event>
 5    0  0.5612316E-005  0.2521836E+03  0.7546771E-02  0.1111933E+00
         21   -1    0    0  502  501  0.00000000000E+00  0.00000000000E+00  0.58973702971E+03  0.58973702971E+03  0.00000000000E+00 0. -1.
         21   -1    0    0  501  502 -0.00000000000E+00 -0.00000000000E+00 -0.10783883786E+03  0.10783883786E+03  0.00000000000E+00 0. -1.
         25    1    1    2    0    0  0.16306931319E+02  0.97467360281E+02  0.16979643343E+03  0.23285538674E+03  0.12500000000E+03 0.  0.
         25    1    1    2    0    0 -0.49918664361E+02  0.48383763618E+02  0.17661240063E+03  0.22726592725E+03  0.12500000000E+03 0.  0.
         25    1    1    2    0    0  0.33611733042E+02 -0.14585112390E+03  0.13548935779E+03  0.23745455358E+03  0.12500000000E+03 0.  0.
</event>
<event>
 5    0  0.5612316E-005  0.3043994E+03  0.7546771E-02  0.1083062E+00
         21   -1    0    0  502  501  0.00000000000E+00  0.00000000000E+00  0.59057174100E+03  0.59057174100E+03  0.00000000000E+00 0.  1.
         21   -1    0    0  501  502 -0.00000000000E+00 -0.00000000000E+00 -0.15689705747E+03  0.15689705747E+03  0.00000000000E+00 0.  1.
         25    1    1    2    0    0 -0.87941693598E+02 -0.10293721470E+03  0.11334695015E+02  0.18461659447E+03  0.12500000000E+03 0.  0.
         25    1    1    2    0    0 -0.18627138906E+02  0.15029423017E+02  0.33248256224E+03  0.35600914041E+03  0.12500000000E+03 0.  0.
         25    1    1    2    0    0  0.10656883250E+03  0.87907791685E+02  0.89857426268E+02  0.20684306359E+03  0.12500000000E+03 0.  0.
</event>
<event>
 5    0  0.5612316E-005  0.5296176E+03  0.7546771E-02  0.1006325E+00
         21   -1    0    0  502  501  0.00000000000E+00  0.00000000000E+00  0.55686164096E+03  0.55686164096E+03  0.00000000000E+00 0.  1.
         21   -1    0    0  501  502 -0.00000000000E+00 -0.00000000000E+00 -0.50370654483E+03  0.50370654483E+03  0.00000000000E+00 0.  1.
         25    1    1    2    0    0 -0.27862378399E+03 -0.49361991519E+02  0.30576560728E+03  0.43495451004E+03  0.12500000000E+03 0.  0.
         25    1    1    2    0    0  0.66697229235E+02 -0.13620913729E+03 -0.24925185342E+03  0.31741602969E+03  0.12500000000E+03 0.  0.
         25    1    1    2    0    0  0.21192655475E+03  0.18557112881E+03 -0.33586577304E+01  0.30819764606E+03  0.12500000000E+03 0.  0.
</event>
<event>
 5    0  0.5612316E-005  0.2821756E+03  0.7546771E-02  0.1094507E+00
         21   -1    0    0  502  501  0.00000000000E+00  0.00000000000E+00  0.45219210156E+02  0.45219210156E+02  0.00000000000E+00 0. -1.
         21   -1    0    0  501  502 -0.00000000000E+00 -0.00000000000E+00 -0.17608238865E+04  0.17608238865E+04  0.00000000000E+00 0. -1.
         25    1    1    2    0    0  0.24014934808E+02 -0.11325296919E+03 -0.23372880488E+03  0.28923538227E+03  0.12500000000E+03 0.  0.
         25    1    1    2    0    0  0.40843670575E+02  0.12550705298E+03 -0.79112016370E+03  0.81173661934E+03  0.12500000000E+03 0.  0.
         25    1    1    2    0    0 -0.64858605383E+02 -0.12254083788E+02 -0.69075570781E+03  0.70507109510E+03  0.12500000000E+03 0.  0.
</event>
<event>
 5    0  0.5612316E-005  0.3098742E+03  0.7546771E-02  0.1080406E+00
         21   -1    0    0  502  501  0.00000000000E+00  0.00000000000E+00  0.52091609795E+03  0.52091609795E+03  0.00000000000E+00 0.  1.
         21   -1    0    0  501  502 -0.00000000000E+00 -0.00000000000E+00 -0.18433299501E+03  0.18433299501E+03  0.00000000000E+00 0.  1.
         25    1    1    2    0    0 -0.11088518811E+03  0.14765141589E+03  0.14332123457E+02  0.22344322617E+03  0.12500000000E+03 0.  0.
         25    1    1    2    0    0  0.98788603071E+02 -0.66831069035E+02  0.27572398784E+03  0.32538330836E+03  0.12500000000E+03 0.  0.
         25    1    1    2    0    0  0.12096585041E+02 -0.80820346855E+02  0.46526991642E+02  0.15642255843E+03  0.12500000000E+03 0.  0.
</event>
<event>
 5    0  0.5612316E-005  0.3640204E+03  0.7546771E-02  0.1057003E+00
         21   -1    0    0  502  501  0.00000000000E+00  0.00000000000E+00  0.66217533619E+02  0.66217533619E+02  0.00000000000E+00 0. -1.
         21   -1    0    0  501  502 -0.00000000000E+00 -0.00000000000E+00 -0.20011447473E+04  0.20011447473E+04  0.00000000000E+00 0. -1.
         25    1    1    2    0    0 -0.17230955262E+03  0.43193293422E+02 -0.11343617454E+04  0.11549709139E+04  0.12500000000E+03 0.  0.
         25    1    1    2    0    0  0.56517376796E+02  0.12066301209E+03 -0.48376112838E+03  0.51711082536E+03  0.12500000000E+03 0.  0.
         25    1    1    2    0    0  0.11579217583E+03 -0.16385630551E+03 -0.31680433988E+03  0.39528054165E+03  0.12500000000E+03 0.  0.
</event>
<event>
 5    0  0.5612316E-005  0.2171690E+03  0.7546771E-02  0.1136011E+00
         21   -1    0    0  502  501  0.00000000000E+00  0.00000000000E+00  0.11551801515E+03  0.11551801515E+03  0.00000000000E+00 0. -1.
         21   -1    0    0  501  502 -0.00000000000E+00 -0.00000000000E+00 -0.40826857031E+03  0.40826857031E+03  0.00000000000E+00 0. -1.
         25    1    1    2    0    0  0.20746497676E+02 -0.80374726376E+01 -0.22507719259E+03  0.25841780270E+03  0.12500000000E+03 0.  0.
         25    1    1    2    0    0  0.13924125680E+02  0.66386638473E+01 -0.44564399924E+02  0.13359992094E+03  0.12500000000E+03 0.  0.
         25    1    1    2    0    0 -0.34670623356E+02  0.13988087903E+01 -0.23108962656E+02  0.13176886182E+03  0.12500000000E+03 0.  0.
</event>
<event>
 5    0  0.5612316E-005  0.4106071E+03  0.7546771E-02  0.1040167E+00
         21   -1    0    0  502  501  0.00000000000E+00  0.00000000000E+00  0.34197867823E+03  0.34197867823E+03  0.00000000000E+00 0.  1.
         21   -1    0    0  501  502 -0.00000000000E+00 -0.00000000000E+00 -0.49300798224E+03  0.49300798224E+03  0.00000000000E+00 0.  1.
         25    1    1    2    0    0 -0.98399826381E+02  0.14353313825E+03  0.59678140975E+02  0.22242025114E+03  0.12500000000E+03 0.  0.
         25    1    1    2    0    0  0.52308051828E+02 -0.27366280006E+03 -0.27955962084E+03  0.41401212787E+03  0.12500000000E+03 0.  0.
         25    1    1    2    0    0  0.46091774553E+02  0.13012966181E+03  0.68852175859E+02  0.19855428146E+03  0.12500000000E+03 0.  0.
</event>
<event>
 5    0  0.5612316E-005  0.4458591E+03  0.7546771E-02  0.1028964E+00
         21   -1    0    0  502  501  0.00000000000E+00  0.00000000000E+00  0.82971501096E+03  0.82971501096E+03  0.00000000000E+00 0.  1.
         21   -1    0    0  501  502 -0.00000000000E+00 -0.00000000000E+00 -0.23958864651E+03  0.23958864651E+03  0.00000000000E+00 0.  1.
         25    1    1    2    0    0  0.79502259440E+02 -0.13198946030E+03  0.47876621460E+02  0.20410535948E+03  0.12500000000E+03 0.  0.
         25    1    1    2    0    0  0.14861995862E+03 -0.14889515311E+03  0.37418710845E+03  0.44710026935E+03  0.12500000000E+03 0.  0.
         25    1    1    2    0    0 -0.22812221806E+03  0.28088461341E+03  0.16806263454E+03  0.41809802864E+03  0.12500000000E+03 0.  0.
</event>
<event>
 5    0  0.5725579E-005  0.2984994E+03  0.7546771E-02  0.1085993E+00
         21   -1    0    0  502  501  0.00000000000E+00  0.00000000000E+00  0.48442546305E+03  0.48442546305E+03  0.00000000000E+00 0. -1.
         21   -1    0    0  501  502 -0.00000000000E+00 -0.00000000000E+00 -0.18393318205E+03  0.18393318205E+03  0.00000000000E+00 0. -1.
         25    1    1    2    0    0  0.31517444102E+02 -0.15084110777E+03  0.22516229149E+03  0.30011572199E+03  0.12500000000E+03 0.  0.
         25    1    1    2    0    0 -0.87913520201E+01 -0.18646354388E+02 -0.32165685537E+02  0.13070809358E+03  0.12500000000E+03 0.  0.
         25    1    1    2    0    0 -0.22726092082E+02  0.16948746215E+03  0.10749567505E+03  0.23753482954E+03  0.12500000000E+03 0.  0.
</event>
<event>
 5    0  0.5612316E-005  0.4108260E+03  0.7546771E-02  0.1040094E+00
         21   -1    0    0  502  501  0.00000000000E+00  0.00000000000E+00  0.30718810168E+03  0.30718810168E+03  0.00000000000E+00 0.  1.
         21   -1    0    0  501  502 -0.00000000000E+00 -0.00000000000E+00 -0.54942893424E+03  0.54942893424E+03  0.00000000000E+00 0.  1.
         25    1    1    2    0    0 -0.15815542523E+03 -0.20294411262E+03  0.14420923192E+03  0.32034474234E+03  0.12500000000E+03 0.  0.
         25    1    1    2    0    0  0.36984997552E+02  0.80884821402E+02 -0.11642647551E+03  0.19258859929E+03  0.12500000000E+03 0.  0.
         25    1    1    2    0    0  0.12117042768E+03  0.12205929121E+03 -0.27002358897E+03  0.34368369428E+03  0.12500000000E+03 0.  0.
</event>
<event>
 5    0  0.5612316E-005  0.4951614E+03  0.7546771E-02  0.1015050E+00
         21   -1    0    0  502  501  0.00000000000E+00  0.00000000000E+00  0.15217974401E+04  0.15217974401E+04  0.00000000000E+00 0.  1.
         21   -1    0    0  501  502 -0.00000000000E+00 -0.00000000000E+00 -0.16111529956E+03  0.16111529956E+03  0.00000000000E+00 0.  1.
         25    1    1    2    0    0 -0.36467591107E+03  0.22181058353E+03  0.53527734571E+03  0.69594201763E+03  0.12500000000E+03 0.  0.
         25    1    1    2    0    0  0.32497388260E+03 -0.19896241374E+03  0.68300622144E+03  0.79203318427E+03  0.12500000000E+03 0.  0.
         25    1    1    2    0    0  0.39702028461E+02 -0.22848169787E+02  0.14239857341E+03  0.19493753778E+03  0.12500000000E+03 0.  0.
</event>
<event>
 5    0  0.5612316E-005  0.3304719E+03  0.7546771E-02  0.1070928E+00
         21   -1    0    0  502  501  0.00000000000E+00  0.00000000000E+00  0.54882983113E+02  0.54882983113E+02  0.00000000000E+00 0. -1.
         21   -1    0    0  501  502 -0.00000000000E+00 -0.00000000000E+00 -0.19899004483E+04  0.19899004483E+04  0.00000000000E+00 0. -1.
         25    1    1    2    0    0  0.40396163272E+02  0.10172950759E+02 -0.35361656963E+03  0.37736589307E+03  0.12500000000E+03 0.  0.
         25    1    1    2    0    0  0.16220223924E+03  0.90600263947E+02 -0.40337506712E+03  0.46136148410E+03  0.12500000000E+03 0.  0.
         25    1    1    2    0    0 -0.20259840251E+03 -0.10077321471E+03 -0.11780258284E+04  0.12060560542E+04  0.12500000000E+03 0.  0.
</event>
<event>
 5    0  0.5612316E-005  0.4093426E+03  0.7546771E-02  0.1040592E+00
         21   -1    0    0  502  501  0.00000000000E+00  0.00000000000E+00  0.16305226644E+03  0.16305226644E+03  0.00000000000E+00 0.  1.
         21   -1    0    0  501  502 -0.00000000000E+00 -0.00000000000E+00 -0.10276542791E+04  0.10276542791E+04  0.00000000000E+00 0.  1.
         25    1    1    2    0    0 -0.13183478701E+03 -0.15767337023E+03 -0.31074703671E+01  0.24057422787E+03  0.12500000000E+03 0.  0.
         25    1    1    2    0    0 -0.95191511279E+00  0.16097682090E+03 -0.32641475453E+03  0.38481948364E+03  0.12500000000E+03 0.  0.
         25    1    1    2    0    0  0.13278670212E+03 -0.33034506759E+01 -0.53507978778E+03  0.56531283404E+03  0.12500000000E+03 0.  0.
</event>
<event>
 5    0  0.5612316E-005  0.4274424E+03  0.7546771E-02  0.1034671E+00
         21   -1    0    0  502  501  0.00000000000E+00  0.00000000000E+00  0.88943034989E+03  0.88943034989E+03  0.00000000000E+00 0. -1.
         21   -1    0    0  501  502 -0.00000000000E+00 -0.00000000000E+00 -0.20542028854E+03  0.20542028854E+03  0.00000000000E+00 0. -1.
         25    1    1    2    0    0 -0.15663238428E+03 -0.12681606352E+03  0.45611204129E+03  0.51408093914E+03  0.12500000000E+03 0.  0.
         25    1    1    2    0    0 -0.11492474254E+03  0.15148943726E+03  0.14401774593E+03  0.26930068175E+03  0.12500000000E+03 0.  0.
         25    1    1    2    0    0  0.27155712682E+03 -0.24673373735E+02  0.83880274122E+02  0.31146901754E+03  0.12500000000E+03 0.  0.
</event>
<event>
 5    0  0.5612316E-005  0.5911697E+03  0.7546771E-02  0.9923897E-01
         21   -1    0    0  502  501  0.00000000000E+00  0.00000000000E+00  0.65405535397E+03  0.65405535397E+03  0.00000000000E+00 0.  1.
         21   -1    0    0  501  502 -0.00000000000E+00 -0.00000000000E+00 -0.53433028485E+03  0.53433028485E+03  0.00000000000E+00 0.  1.
         25    1    1    2    0    0 -0.31811842655E+03  0.22069890408E+02  0.17238798345E+03  0.38344364672E+03  0.12500000000E+03 0.  0.
         25    1    1    2    0    0 -0.11984925268E+03 -0.16515081639E+03 -0.19290252440E+03  0.30736788942E+03  0.12500000000E+03 0.  0.
         25    1    1    2    0    0  0.43796767923E+03  0.14308092598E+03  0.14023961007E+03  0.49757410269E+03  0.12500000000E+03 0.  0.
</event>
<event>
 5    0  0.5612316E-005  0.5324394E+03  0.7546771E-02  0.1005642E+00
         21   -1    0    0  502  501  0.00000000000E+00  0.00000000000E+00  0.17953107160E+03  0.17953107160E+03  0.00000000000E+00 0. -1.
         21   -1    0    0  501  502 -0.00000000000E+00 -0.00000000000E+00 -0.15790678347E+04  0.15790678347E+04  0.00000000000E+00 0. -1.
         25    1    1    2    0    0  0.20827829348E+03 -0.63563640077E+02 -0.20506148399E+03  0.32418420087E+03  0.12500000000E+03 0.  0.
         25    1    1    2    0    0 -0.89038678609E+02  0.39256162388E+03 -0.67277260527E+03  0.79390206778E+03  0.12500000000E+03 0.  0.
         25    1    1    2    0    0 -0.11923961487E+03 -0.32899798380E+03 -0.52170267383E+03  0.64051263764E+03  0.12500000000E+03 0.  0.
</event>
<event>
 5    0  0.5880400E-005  0.2915150E+03  0.7546771E-02  0.1089561E+00
         21   -1    0    0  502  501  0.00000000000E+00  0.00000000000E+00  0.20417453872E+03  0.20417453872E+03  0.00000000000E+00 0. -1.
         21   -1    0    0  501  502 -0.00000000000E+00 -0.00000000000E+00 -0.41621741067E+03  0.41621741067E+03  0.00000000000E+00 0. -1.
         25    1    1    2    0    0 -0.74045959578E+01 -0.20323687944E+02 -0.16757060503E+03  0.21017323332E+03  0.12500000000E+03 0.  0.
         25    1    1    2    0    0  0.23408078611E+02  0.14517832068E+03 -0.10875450502E+03  0.22153380171E+03  0.12500000000E+03 0.  0.
         25    1    1    2    0    0 -0.16003482654E+02 -0.12485463274E+03  0.64282238103E+02  0.18868491436E+03  0.12500000000E+03 0.  0.
</event>
<event>
 5    0  0.5708472E-005  0.4290534E+03  0.7546771E-02  0.1034159E+00
         21   -1    0    0  502  501  0.00000000000E+00  0.00000000000E+00  0.58568409326E+03  0.58568409326E+03  0.00000000000E+00 0. -1.
         21   -1    0    0  501  502 -0.00000000000E+00 -0.00000000000E+00 -0.31431081479E+03  0.31431081479E+03  0.00000000000E+00 0. -1.
         25    1    1    2    0    0 -0.34477196224E+02  0.23883253842E+03 -0.47236225776E+01  0.27180318445E+03  0.12500000000E+03 0.  0.
         25    1    1    2    0    0  0.16907831664E+03 -0.25534186312E+03  0.47023508525E+02  0.33410051567E+03  0.12500000000E+03 0.  0.
         25    1    1    2    0    0 -0.13460112041E+03  0.16509324701E+02  0.22907339253E+03  0.29409120793E+03  0.12500000000E+03 0.  0.
</event>
<event>
 5    0  0.5612316E-005  0.4275283E+03  0.7546771E-02  0.1034644E+00
         21   -1    0    0  502  501  0.00000000000E+00  0.00000000000E+00  0.90309131193E+03  0.90309131193E+03  0.00000000000E+00 0.  1.
         21   -1    0    0  501  502 -0.00000000000E+00 -0.00000000000E+00 -0.20239422840E+03  0.20239422840E+03  0.00000000000E+00 0.  1.
         25    1    1    2    0    0  0.29408894129E+03 -0.10316315360E+03  0.39916630398E+03  0.52162216199E+03  0.12500000000E+03 0.  0.
         25    1    1    2    0    0 -0.22534976490E+03  0.39934266136E+02  0.33474358289E+03  0.42432950456E+03  0.12500000000E+03 0.  0.
         25    1    1    2    0    0 -0.68739176384E+02  0.63228887460E+02 -0.33212803338E+02  0.15953387379E+03  0.12500000000E+03 0.  0.
</event>
<event>
 5    0  0.5612316E-005  0.4260091E+03  0.7546771E-02  0.1035128E+00
         21   -1    0    0  502  501  0.00000000000E+00  0.00000000000E+00  0.70491707521E+03  0.70491707521E+03  0.00000000000E+00 0.  1.
         21   -1    0    0  501  502 -0.00000000000E+00 -0.00000000000E+00 -0.25745404689E+03  0.25745404689E+03  0.00000000000E+00 0.  1.
         25    1    1    2    0    0 -0.12627116903E+03  0.15176170948E+03 -0.45158359180E+02  0.23799223096E+03  0.12500000000E+03 0.  0.
         25    1    1    2    0    0 -0.56196591988E+02  0.10205403617E+03  0.71509713259E+02  0.18523423641E+03  0.12500000000E+03 0.  0.
         25    1    1    2    0    0  0.18246776102E+03 -0.25381574565E+03  0.42111167424E+03  0.53914465473E+03  0.12500000000E+03 0.  0.
</event>
<event>
 5    0  0.5612316E-005  0.3742096E+03  0.7546771E-02  0.1053095E+00
         21   -1    0    0  502  501  0.00000000000E+00  0.00000000000E+00  0.24867614830E+03  0.24867614830E+03  0.00000000000E+00 0.  1.
         21   -1    0    0  501  502 -0.00000000000E+00 -0.00000000000E+00 -0.56311334904E+03  0.56311334904E+03  0.00000000000E+00 0.  1.
         25    1    1    2    0    0 -0.98595254942E+02  0.61286764719E+02 -0.19753297988E+03  0.26100070875E+03  0.12500000000E+03 0.  0.
         25    1    1    2    0    0  0.27487681047E+03 -0.87851212175E+02 -0.10926886636E+03  0.33292609025E+03  0.12500000000E+03 0.  0.
         25    1    1    2    0    0 -0.17628155553E+03  0.26564447456E+02 -0.76353545064E+01  0.21786269834E+03  0.12500000000E+03 0.  0.
</event>
<event>
 5    0  0.5612316E-005  0.2506695E+03  0.7546771E-02  0.1112882E+00
         21   -1    0    0  502  501  0.00000000000E+00  0.00000000000E+00  0.61341107992E+03  0.61341107992E+03  0.00000000000E+00 0.  1.
         21   -1    0    0  501  502 -0.00000000000E+00 -0.00000000000E+00 -0.10243568826E+03  0.10243568826E+03  0.00000000000E+00 0.  1.
         25    1    1    2    0    0 -0.32415302240E+02 -0.14626958054E+03  0.14689839477E+03  0.24423284054E+03  0.12500000000E+03 0.  0.
         25    1    1    2    0    0  0.86740419056E+01  0.45727969822E+02  0.12551284221E+03  0.18315228578E+03  0.12500000000E+03 0.  0.
         25    1    1    2    0    0  0.23741260335E+02  0.10054161072E+03  0.23856415468E+03  0.28846164186E+03  0.12500000000E+03 0.  0.
</event>
<event>
 5    0  0.5612316E-005  0.3704768E+03  0.7546771E-02  0.1054511E+00
         21   -1    0    0  502  501  0.00000000000E+00  0.00000000000E+00  0.70649721401E+03  0.70649721401E+03  0.00000000000E+00 0.  1.
         21   -1    0    0  501  502 -0.00000000000E+00 -0.00000000000E+00 -0.19427261062E+03  0.19427261062E+03  0.00000000000E+00 0.  1.
         25    1    1    2    0    0  0.88559792932E+02  0.24267006882E+03  0.29906605662E+03  0.41448414378E+03  0.12500000000E+03 0.  0.
         25    1    1    2    0    0  0.69977897546E+01 -0.11279391538E+03 -0.27547124554E+02  0.17074917417E+03  0.12500000000E+03 0.  0.
         25    1    1    2    0    0 -0.95557582687E+02 -0.12987615344E+03  0.24070567132E+03  0.31553650668E+03  0.12500000000E+03 0.  0.
</event>
<event>
 5    0  0.5612316E-005  0.4042211E+03  0.7546771E-02  0.1042328E+00
         21   -1    0    0  502  501  0.00000000000E+00  0.00000000000E+00  0.18158732918E+03  0.18158732918E+03  0.00000000000E+00 0.  1.
         21   -1    0    0  501  502 -0.00000000000E+00 -0.00000000000E+00 -0.89981328862E+03  0.89981328862E+03  0.00000000000E+00 0.  1.
         25    1    1    2    0    0  0.13244425997E+02  0.22345080019E+03 -0.44546873768E+03  0.51397769521E+03  0.12500000000E+03 0.  0.
         25    1    1    2    0    0 -0.50506752628E+02 -0.12930550766E+03 -0.34403250138E+03  0.39147695766E+03  0.12500000000E+03 0.  0.
         25    1    1    2    0    0  0.37262326630E+02 -0.94145292532E+02  0.71275279614E+02  0.17594596493E+03  0.12500000000E+03 0.  0.
</event>
<event>
 5    0  0.5612316E-005  0.5431124E+03  0.7546771E-02  0.1003101E+00
         21   -1    0    0  502  501  0.00000000000E+00  0.00000000000E+00  0.34965225880E+03  0.34965225880E+03  0.00000000000E+00 0. -1.
         21   -1    0    0  501  502 -0.00000000000E+00 -0.00000000000E+00 -0.84361263902E+03  0.84361263902E+03  0.00000000000E+00 0. -1.
         25    1    1    2    0    0 -0.31539835440E+02  0.28246167314E+03 -0.18517174845E+03  0.36151477762E+03  0.12500000000E+03 0.  0.
         25    1    1    2    0    0  0.20343756447E+03 -0.37196243053E+03 -0.38776210986E+03  0.58798583844E+03  0.12500000000E+03 0.  0.
         25    1    1    2    0    0 -0.17189772903E+03  0.89500757384E+02  0.78973478092E+02  0.24376428176E+03  0.12500000000E+03 0.  0.
</event>
<event>
 5    0  0.5612316E-005  0.2492759E+03  0.7546771E-02  0.1113763E+00
         21   -1    0    0  502  501  0.00000000000E+00  0.00000000000E+00  0.82063754617E+03  0.82063754617E+03  0.00000000000E+00 0. -1.
         21   -1    0    0  501  502 -0.00000000000E+00 -0.00000000000E+00 -0.75719744404E+02  0.75719744404E+02  0.00000000000E+00 0. -1.
         25    1    1    2    0    0 -0.82559868842E+02  0.20592907543E+02  0.17679983888E+03  0.23264432684E+03  0.12500000000E+03 0.  0.
         25    1    1    2    0    0  0.40508150607E+02  0.82291002011E+02  0.38838978409E+03  0.41819175466E+03  0.12500000000E+03 0.  0.
         25    1    1    2    0    0  0.42051718235E+02 -0.10288390955E+03  0.17972817880E+03  0.24552120908E+03  0.12500000000E+03 0.  0.
</event>
<event>
 5    0  0.5612316E-005  0.2273113E+03  0.7546771E-02  0.1128547E+00
         21   -1    0    0  502  501  0.00000000000E+00  0.00000000000E+00  0.93523029004E+02  0.93523029004E+02  0.00000000000E+00 0.  1.
         21   -1    0    0  501  502 -0.00000000000E+00 -0.00000000000E+00 -0.55248874816E+03  0.55248874816E+03  0.00000000000E+00 0.  1.
         25    1    1    2    0    0  0.29132760639E+02 -0.34391984964E+02 -0.88490572687E+02  0.15964682216E+03  0.12500000000E+03 0.  0.
         25    1    1    2    0    0 -0.66230911444E+02 -0.28364988014E+02 -0.88041501314E+02  0.16901896973E+03  0.12500000000E+03 0.  0.
         25    1    1    2    0    0  0.37098150805E+02  0.62756972978E+02 -0.28243364516E+03  0.31734598527E+03  0.12500000000E+03 0.  0.
</event>
<event>
 5    0  0.5612316E-005  0.3605728E+03  0.7546771E-02  0.1058357E+00
         21   -1    0    0  502  501  0.00000000000E+00  0.00000000000E+00  0.42167980707E+03  0.42167980707E+03  0.00000000000E+00 0.  1.
         21   -1    0    0  501  502 -0.00000000000E+00 -0.00000000000E+00 -0.30832093148E+03  0.30832093148E+03  0.00000000000E+00 0.  1.
         25    1    1    2    0    0  0.12596486905E+03 -0.10691342543E+03  0.55803986128E+02  0.21456167794E+03  0.12500000000E+03 0.  0.
         25    1    1    2    0    0 -0.14643281715E+03  0.35087228746E+02 -0.16059312718E+03  0.25315772961E+03  0.12500000000E+03 0.  0.
         25    1    1    2    0    0  0.20467948103E+02  0.71826196687E+02  0.21814801664E+03  0.26228133100E+03  0.12500000000E+03 0.  0.
</event>
<event>
 5    0  0.5612316E-005  0.5473683E+03  0.7546771E-02  0.1002105E+00
         21   -1    0    0  502  501  0.00000000000E+00  0.00000000000E+00  0.30233234613E+03  0.30233234613E+03  0.00000000000E+00 0.  1.
         21   -1    0    0  501  502 -0.00000000000E+00 -0.00000000000E+00 -0.99100226963E+03  0.99100226963E+03  0.00000000000E+00 0.  1.
         25    1    1    2    0    0  0.67120462937E+02  0.89446347459E+02 -0.23389059439E+03  0.28781177141E+03  0.12500000000E+03 0.  0.
         25    1    1    2    0    0  0.36534192012E+03 -0.10263476951E+03 -0.37538035617E+03  0.54821895836E+03  0.12500000000E+03 0.  0.
         25    1    1    2    0    0 -0.43246238306E+03  0.13188422053E+02 -0.79398972947E+02  0.45730388599E+03  0.12500000000E+03 0.  0.
</event>
<event>
 5    0  0.5612316E-005  0.4547049E+03  0.7546771E-02  0.1026328E+00
         21   -1    0    0  502  501  0.00000000000E+00  0.00000000000E+00  0.90670041984E+03  0.90670041984E+03  0.00000000000E+00 0.  1.
         21   -1    0    0  501  502 -0.00000000000E+00 -0.00000000000E+00 -0.22803183068E+03  0.22803183068E+03  0.00000000000E+00 0.  1.
         25    1    1    2    0    0  0.78908457606E+02 -0.28220302575E+02  0.22392791527E+03  0.26979926130E+03  0.12500000000E+03 0.  0.
         25    1    1    2    0    0 -0.26314493189E+03 -0.65661707524E+02  0.53299404914E+03  0.61095365735E+03  0.12500000000E+03 0.  0.
         25    1    1    2    0    0  0.18423647429E+03  0.93882010099E+02 -0.78253375244E+02  0.25397933187E+03  0.12500000000E+03 0.  0.
</event>
<event>
 5    0  0.5612316E-005  0.3168373E+03  0.7546771E-02  0.1077114E+00
         21   -1    0    0  502  501  0.00000000000E+00  0.00000000000E+00  0.37909558254E+03  0.37909558254E+03  0.00000000000E+00 0.  1.
         21   -1    0    0  501  502 -0.00000000000E+00 -0.00000000000E+00 -0.26480367106E+03  0.26480367106E+03  0.00000000000E+00 0.  1.
         25    1    1    2    0    0  0.81855581541E+02 -0.99365742892E+01 -0.62484328404E+02  0.16226017082E+03  0.12500000000E+03 0.  0.
         25    1    1    2    0    0 -0.15023406700E+02 -0.10347817758E+03 -0.68259055632E+02  0.17668541157E+03  0.12500000000E+03 0.  0.
         25    1    1    2    0    0 -0.66832174841E+02  0.11341475187E+03  0.24503529552E+03  0.30495367122E+03  0.12500000000E+03 0.  0.
</event>
<event>
 5    0  0.5612316E-005  0.3897760E+03  0.7546771E-02  0.1047379E+00
         21   -1    0    0  502  501  0.00000000000E+00  0.00000000000E+00  0.28378203883E+03  0.28378203883E+03  0.00000000000E+00 0.  1.
         21   -1    0    0  501  502 -0.00000000000E+00 -0.00000000000E+00 -0.53535924741E+03  0.53535924741E+03  0.00000000000E+00 0.  1.
         25    1    1    2    0    0  0.15448572209E+03 -0.19890575035E+02 -0.20701866500E+03  0.28765117932E+03  0.12500000000E+03 0.  0.
         25    1    1    2    0    0 -0.11205952368E+03 -0.15393528805E+02 -0.23983571532E+03  0.29315604705E+03  0.12500000000E+03 0.  0.
         25    1    1    2    0    0 -0.42426198414E+02  0.35284103839E+02  0.19527717174E+03  0.23833405988E+03  0.12500000000E+03 0.  0.
</event>
<event>
 5    0  0.7038793E-005  0.3522172E+03  0.7546771E-02  0.1061709E+00
         21   -1    0    0  502  501  0.00000000000E+00  0.00000000000E+00  0.11480218951E+03  0.11480218951E+03  0.00000000000E+00 0.  1.
         21   -1    0    0  501  502 -0.00000000000E+00 -0.00000000000E+00 -0.10806145964E+04  0.10806145964E+04  0.00000000000E+00 0.  1.
         25    1    1    2    0    0  0.11766259173E+03 -0.11883872598E+03 -0.15738339061E+03  0.26146062787E+03  0.12500000000E+03 0.  0.
         25    1    1    2    0    0  0.52874868912E+02 -0.40501204885E+02 -0.53467466509E+03  0.55311671178E+03  0.12500000000E+03 0.  0.
         25    1    1    2    0    0 -0.17053746064E+03  0.15933993086E+03 -0.27375435123E+03  0.38083944631E+03  0.12500000000E+03 0.  0.
</event>
<event>
 5    0  0.5612316E-005  0.3678375E+03  0.7546771E-02  0.1055523E+00
         21   -1    0    0  502  501  0.00000000000E+00  0.00000000000E+00  0.49788421520E+03  0.49788421520E+03  0.00000000000E+00 0. -1.
         21   -1    0    0  501  502 -0.00000000000E+00 -0.00000000000E+00 -0.27175888905E+03  0.27175888905E+03  0.00000000000E+00 0. -1.
         25    1    1    2    0    0  0.48525170694E+01  0.17853131604E+03  0.62067740030E+02  0.22665917604E+03  0.12500000000E+03 0.  0.
         25    1    1    2    0    0  0.19325561489E+03 -0.13988130245E+03  0.31762834586E+02  0.27119806254E+03  0.12500000000E+03 0.  0.
         25    1    1    2    0    0 -0.19810813196E+03 -0.38650013591E+02  0.13229475153E+03  0.27178586568E+03  0.12500000000E+03 0.  0.
</event>
<event>
 5    0  0.5612316E-005  0.2616162E+03  0.7546771E-02  0.1106176E+00
         21   -1    0    0  502  501  0.00000000000E+00  0.00000000000E+00  0.13059592526E+04  0.13059592526E+04  0.00000000000E+00 0. -1.
         21   -1    0    0  501  502 -0.00000000000E+00 -0.00000000000E+00 -0.52408250251E+02  0.52408250251E+02  0.00000000000E+00 0. -1.
         25    1    1    2    0    0  0.78180260975E+01  0.24923350570E+02  0.16585503538E+03  0.20932077703E+03  0.12500000000E+03 0.  0.
         25    1    1    2    0    0  0.22318136679E+02  0.10468148045E+03  0.31873811443E+03  0.35871339139E+03  0.12500000000E+03 0.  0.
         25    1    1    2    0    0 -0.30136162776E+02 -0.12960483102E+03  0.76895785256E+03  0.79033333445E+03  0.12500000000E+03 0.  0.
</event>
<event>
 5    0  0.5612316E-005  0.2998873E+03  0.7546771E-02  0.1085297E+00
         21   -1    0    0  502  501  0.00000000000E+00  0.00000000000E+00  0.47866241357E+03  0.47866241357E+03  0.00000000000E+00 0. -1.
         21   -1    0    0  501  502 -0.00000000000E+00 -0.00000000000E+00 -0.18788269187E+03  0.18788269187E+03  0.00000000000E+00 0. -1.
         25    1    1    2    0    0  0.10766651335E+03 -0.58701693563E+02  0.26854006456E+03  0.32058810520E+03  0.12500000000E+03 0.  0.
         25    1    1    2    0    0 -0.47064920836E+02 -0.62467311878E+02  0.57522568483E+02  0.15827544886E+03  0.12500000000E+03 0.  0.
         25    1    1    2    0    0 -0.60601592510E+02  0.12116900544E+03 -0.35282911346E+02  0.18768155138E+03  0.12500000000E+03 0.  0.
</event>
<event>
 5    0  0.5612316E-005  0.2428397E+03  0.7546771E-02  0.1117915E+00
         21   -1    0    0  502  501  0.00000000000E+00  0.00000000000E+00  0.78306668688E+02  0.78306668688E+02  0.00000000000E+00 0.  1.
         21   -1    0    0  501  502 -0.00000000000E+00 -0.00000000000E+00 -0.75307943356E+03  0.75307943356E+03  0.00000000000E+00 0.  1.
         25    1    1    2    0    0  0.46434970081E+02  0.67478092297E+02 -0.20806717518E+03  0.25617659685E+03  0.12500000000E+03 0.  0.
         25    1    1    2    0    0 -0.50288145177E+02  0.64322552623E+02 -0.16088688199E+03  0.21949003877E+03  0.12500000000E+03 0.  0.
         25    1    1    2    0    0  0.38531750964E+01 -0.13180064492E+03 -0.30581870770E+03  0.35571946663E+03  0.12500000000E+03 0.  0.
</event>
<event>
 5    0  0.5612316E-005  0.3325992E+03  0.7546771E-02  0.1069993E+00
         21   -1    0    0  502  501  0.00000000000E+00  0.00000000000E+00  0.30278921107E+03  0.30278921107E+03  0.00000000000E+00 0.  1.
         21   -1    0    0  501  502 -0.00000000000E+00 -0.00000000000E+00 -0.36534401849E+03  0.36534401849E+03  0.00000000000E+00 0.  1.
         25    1    1    2    0    0  0.75235160868E+02 -0.16594539353E+03 -0.84793162363E+02  0.23667083354E+03  0.12500000000E+03 0.  0.
         25    1    1    2    0    0 -0.40725412901E+02  0.23572508258E+03  0.65960456620E+02  0.27785005966E+03  0.12500000000E+03 0.  0.
         25    1    1    2    0    0 -0.34509747967E+02 -0.69779689049E+02 -0.43722101673E+02  0.15361233636E+03  0.12500000000E+03 0.  0.
</event>
<event>
 5    0  0.5612316E-005  0.3138775E+03  0.7546771E-02  0.1078502E+00
         21   -1    0    0  502  501  0.00000000000E+00  0.00000000000E+00  0.53473240073E+02  0.53473240073E+02  0.00000000000E+00 0.  1.
         21   -1    0    0  501  502 -0.00000000000E+00 -0.00000000000E+00 -0.18424002130E+04  0.18424002130E+04  0.00000000000E+00 0.  1.
         25    1    1    2    0    0 -0.40889653680E+02 -0.72614165987E+01 -0.45921066369E+03  0.47772808751E+03  0.12500000000E+03 0.  0.
         25    1    1    2    0    0 -0.15795442685E+03 -0.11066838563E+03 -0.59588299702E+03  0.63866942833E+03  0.12500000000E+03 0.  0.
         25    1    1    2    0    0  0.19884408053E+03  0.11792980223E+03 -0.73383331223E+03  0.77947593725E+03  0.12500000000E+03 0.  0.
</event>
<event>
 5    0  0.5612316E-005  0.3663623E+03  0.7546771E-02  0.1056093E+00
         21   -1    0    0  502  501  0.00000000000E+00  0.00000000000E+00  0.34601787074E+03  0.34601787074E+03  0.00000000000E+00 0.  1.
         21   -1    0    0  501  502 -0.00000000000E+00 -0.00000000000E+00 -0.38790299342E+03  0.38790299342E+03  0.00000000000E+00 0.  1.
         25    1    1    2    0    0 -0.21003704658E+02 -0.23953449677E+02 -0.35938612745E+02  0.13390857794E+03  0.12500000000E+03 0.  0.
         25    1    1    2    0    0  0.15909451123E+03  0.23576463436E+03  0.43312413046E+02  0.31368294733E+03  0.12500000000E+03 0.  0.
         25    1    1    2    0    0 -0.13809080657E+03 -0.21181118469E+03 -0.49258922986E+02  0.28632933889E+03  0.12500000000E+03 0.  0.
</event>
<event>
 5    0  0.5612316E-005  0.3175374E+03  0.7546771E-02  0.1076788E+00
         21   -1    0    0  502  501  0.00000000000E+00  0.00000000000E+00  0.13524492047E+04  0.13524492047E+04  0.00000000000E+00 0. -1.
         21   -1    0    0  501  502 -0.00000000000E+00 -0.00000000000E+00 -0.74553621728E+02  0.74553621728E+02  0.00000000000E+00 0. -1.
         25    1    1    2    0    0 -0.12853968339E+03  0.33256592133E+02  0.33044984508E+03  0.37742621960E+03  0.12500000000E+03 0.  0.
         25    1    1    2    0    0  0.53881192571E+02 -0.39625306969E+02  0.87576374724E+03  0.88716429642E+03  0.12500000000E+03 0.  0.
         25    1    1    2    0    0  0.74658490817E+02  0.63687148366E+01  0.71681990602E+02  0.16241231036E+03  0.12500000000E+03 0.  0.
</event>
<event>
 5    0  0.5612316E-005  0.2623465E+03  0.7546771E-02  0.1105742E+00
         21   -1    0    0  502  501  0.00000000000E+00  0.00000000000E+00  0.58653262629E+02  0.58653262629E+02  0.00000000000E+00 0. -1.
         21   -1    0    0  501  502 -0.00000000000E+00 -0.00000000000E+00 -0.11734336065E+04  0.11734336065E+04  0.00000000000E+00 0. -1.
         25    1    1    2    0    0  0.46475672310E+02 -0.32162330982E+02 -0.16619848215E+03  0.21550252694E+03  0.12500000000E+03 0.  0.
         25    1    1    2    0    0  0.18476658320E+02 -0.94110972836E+02 -0.59579796062E+03  0.61627791782E+03  0.12500000000E+03 0.  0.
         25    1    1    2    0    0 -0.64952330630E+02  0.12627330382E+03 -0.35278390110E+03  0.40030642436E+03  0.12500000000E+03 0.  0.
</event>
<event>
 5    0  0.5612316E-005  0.4171784E+03  0.7546771E-02  0.1037989E+00
         21   -1    0    0  502  501  0.00000000000E+00  0.00000000000E+00  0.27905227838E+03  0.27905227838E+03  0.00000000000E+00 0. -1.
         21   -1    0    0  501  502 -0.00000000000E+00 -0.00000000000E+00 -0.62367467631E+03  0.62367467631E+03  0.00000000000E+00 0. -1.
         25    1    1    2    0    0 -0.62998061083E+02 -0.16580458372E+03  0.12916798307E+03  0.25252580766E+03  0.12500000000E+03 0.  0.
         25    1    1    2    0    0  0.12683679438E+03  0.52490795934E+02 -0.54086498395E+02  0.19337322817E+03  0.12500000000E+03 0.  0.
         25    1    1    2    0    0 -0.63838733296E+02  0.11331378779E+03 -0.41970388260E+03  0.45682791885E+03  0.12500000000E+03 0.  0.
</event>
<event>
 5    0  0.5612316E-005  0.2198869E+03  0.7546771E-02  0.1133967E+00
         21   -1    0    0  502  501  0.00000000000E+00  0.00000000000E+00  0.57200361481E+03  0.57200361481E+03  0.00000000000E+00 0.  1.
         21   -1    0    0  501  502 -0.00000000000E+00 -0.00000000000E+00 -0.84527849178E+02  0.84527849178E+02  0.00000000000E+00 0.  1.
         25    1    1    2    0    0 -0.14338681533E+02  0.48892651502E+02  0.10691026563E+03  0.17219434966E+03  0.12500000000E+03 0.  0.
         25    1    1    2    0    0  0.82337977019E+02 -0.11358881696E+02  0.16212878092E+03  0.22095091820E+03  0.12500000000E+03 0.  0.
         25    1    1    2    0    0 -0.67999295486E+02 -0.37533769806E+02  0.21843671909E+03  0.26338619613E+03  0.12500000000E+03 0.  0.
</event>
<event>
 5    0  0.5612316E-005  0.2651761E+03  0.7546771E-02  0.1104073E+00
         21   -1    0    0  502  501  0.00000000000E+00  0.00000000000E+00  0.76428050503E+02  0.76428050503E+02  0.00000000000E+00 0. -1.
         21   -1    0    0  501  502 -0.00000000000E+00 -0.00000000000E+00 -0.92005964802E+03  0.92005964802E+03  0.00000000000E+00 0. -1.
         25    1    1    2    0    0 -0.23278834435E+02 -0.47249389858E+02 -0.23543260115E+03  0.27171293428E+03  0.12500000000E+03 0.  0.
         25    1    1    2    0    0 -0.74558684271E+02 -0.81398441294E+02 -0.39853405199E+03  0.43201746983E+03  0.12500000000E+03 0.  0.
         25    1    1    2    0    0  0.97837518705E+02  0.12864783115E+03 -0.20966494438E+03  0.29275729441E+03  0.12500000000E+03 0.  0.
</event>
<event>
 5    0  0.5612316E-005  0.2781646E+03  0.7546771E-02  0.1096696E+00
         21   -1    0    0  502  501  0.00000000000E+00  0.00000000000E+00  0.74672244010E+03  0.74672244010E+03  0.00000000000E+00 0. -1.
         21   -1    0    0  501  502 -0.00000000000E+00 -0.00000000000E+00 -0.10362023479E+03  0.10362023479E+03  0.00000000000E+00 0. -1.
         25    1    1    2    0    0 -0.48389803513E+02  0.11174065793E+03  0.24377528945E+03  0.29979816454E+03  0.12500000000E+03 0.  0.
         25    1    1    2    0    0 -0.22251429081E+02 -0.25636069082E+02  0.13831473552E+02  0.13026374705E+03  0.12500000000E+03 0.  0.
         25    1    1    2    0    0  0.70641232593E+02 -0.86104588843E+02  0.38549544231E+03  0.42028076330E+03  0.12500000000E+03 0.  0.
</event>
<event>
 5    0  0.5653112E-005  0.3504076E+03  0.7546771E-02  0.1062448E+00
         21   -1    0    0  502  501  0.00000000000E+00  0.00000000000E+00  0.33441532967E+03  0.33441532967E+03  0.00000000000E+00 0. -1.
         21   -1    0    0  501  502 -0.00000000000E+00 -0.00000000000E+00 -0.36716462682E+03  0.36716462682E+03  0.00000000000E+00 0. -1.
         25    1    1    2    0    0  0.53091987534E+02 -0.27514686151E+01 -0.20329973678E+03  0.24450380916E+03  0.12500000000E+03 0.  0.
         25    1    1    2    0    0  0.85879383009E+02 -0.12020485948E+03  0.11999692037E+03  0.22770317865E+03  0.12500000000E+03 0.  0.
         25    1    1    2    0    0 -0.13897137054E+03  0.12295632809E+03  0.50553519265E+02  0.22937296867E+03  0.12500000000E+03 0.  0.
</event>
<event>
 5    0  0.5612316E-005  0.3901644E+03  0.7546771E-02  0.1047240E+00
         21   -1    0    0  502  501  0.00000000000E+00  0.00000000000E+00  0.14317510096E+04  0.14317510096E+04  0.00000000000E+00 0. -1.
         21   -1    0    0  501  502 -0.00000000000E+00 -0.00000000000E+00 -0.10632311900E+03  0.10632311900E+03  0.00000000000E+00 0. -1.
         25    1    1    2    0    0 -0.22819269933E+02  0.35465105408E+02  0.44949578988E+03  0.46845486218E+03  0.12500000000E+03 0.  0.
         25    1    1    2    0    0 -0.16135413690E+03  0.28373251134E+02  0.50288067332E+02  0.21211810057E+03  0.12500000000E+03 0.  0.
         25    1    1    2    0    0  0.18417340683E+03 -0.63838356541E+02  0.82564403337E+03  0.85750116582E+03  0.12500000000E+03 0.  0.
</event>
<event>
 5    0  0.5612316E-005  0.3944294E+03  0.7546771E-02  0.1045726E+00
         21   -1    0    0  502  501  0.00000000000E+00  0.00000000000E+00  0.20223380817E+04  0.20223380817E+04  0.00000000000E+00 0. -1.
         21   -1    0    0  501  502 -0.00000000000E+00 -0.00000000000E+00 -0.76928065276E+02  0.76928065276E+02  0.00000000000E+00 0. -1.
         25    1    1    2    0    0 -0.66813679190E+02  0.33252805259E+03  0.81033943858E+03  0.88730715043E+03  0.12500000000E+03 0.  0.
         25    1    1    2    0    0  0.15407548313E+02 -0.13105012122E+03  0.45925250523E+03  0.49391233066E+03  0.12500000000E+03 0.  0.
         25    1    1    2    0    0  0.51406130877E+02 -0.20147793138E+03  0.67581807265E+03  0.71804666593E+03  0.12500000000E+03 0.  0.
</event>
<event>
 5    0  0.5612316E-005  0.3301167E+03  0.7546771E-02  0.1071085E+00
         21   -1    0    0  502  501  0.00000000000E+00  0.00000000000E+00  0.24711206992E+03  0.24711206992E+03  0.00000000000E+00 0. -1.
         21   -1    0    0  501  502 -0.00000000000E+00 -0.00000000000E+00 -0.44100236249E+03  0.44100236249E+03  0.00000000000E+00 0. -1.
         25    1    1    2    0    0  0.80006833353E+02  0.68641160214E+02 -0.33187542665E+03  0.36997162199E+03  0.12500000000E+03 0.  0.
         25    1    1    2    0    0 -0.12338052456E+02 -0.24391789011E+01  0.34539995771E+02  0.13029270294E+03  0.12500000000E+03 0.  0.
         25    1    1    2    0    0 -0.67668780897E+02 -0.66201981313E+02  0.10344513832E+03  0.18785010748E+03  0.12500000000E+03 0.  0.
</event>
<event>
 5    0  0.5612316E-005  0.2462735E+03  0.7546771E-02  0.1115683E+00
         21   -1    0    0  502  501  0.00000000000E+00  0.00000000000E+00  0.41232132507E+02  0.41232132507E+02  0.00000000000E+00 0.  1.
         21   -1    0    0  501  502 -0.00000000000E+00 -0.00000000000E+00 -0.14709560319E+04  0.14709560319E+04  0.00000000000E+00 0.  1.
         25    1    1    2    0    0  0.93337620330E+02 -0.44467836247E+02 -0.30699364496E+03  0.34721664401E+03  0.12500000000E+03 0.  0.
         25    1    1    2    0    0  0.23374416362E+02  0.47057963943E+02 -0.59339416759E+03  0.60868912709E+03  0.12500000000E+03 0.  0.
         25    1    1    2    0    0 -0.11671203669E+03 -0.25901276960E+01 -0.52933608684E+03  0.55628239330E+03  0.12500000000E+03 0.  0.
</event>
<event>
 5    0  0.5612316E-005  0.4538343E+03  0.7546771E-02  0.1026585E+00
         21   -1    0    0  502  501  0.00000000000E+00  0.00000000000E+00  0.99927905459E+02  0.99927905459E+02  0.00000000000E+00 0.  1.
         21   -1    0    0  501  502 -0.00000000000E+00 -0.00000000000E+00 -0.20611414980E+04  0.20611414980E+04  0.00000000000E+00 0.  1.
         25    1    1    2    0    0 -0.74728692386E+02 -0.48745308177E+02  0.13758126909E+02  0.15419068905E+03  0.12500000000E+03 0.  0.
         25    1    1    2    0    0 -0.83472178787E+02  0.66374197891E+01 -0.82640394032E+03  0.83998817405E+03  0.12500000000E+03 0.  0.
         25    1    1    2    0    0  0.15820087117E+03  0.42107888388E+02 -0.11485677792E+04  0.11668905404E+04  0.12500000000E+03 0.  0.
</event>
<event>
 5    0  0.5612316E-005  0.2642119E+03  0.7546771E-02  0.1104639E+00
         21   -1    0    0  502  501  0.00000000000E+00  0.00000000000E+00  0.18931975086E+03  0.18931975086E+03  0.00000000000E+00 0. -1.
         21   -1    0    0  501  502 -0.00000000000E+00 -0.00000000000E+00 -0.36873016072E+03  0.36873016072E+03  0.00000000000E+00 0. -1.
         25    1    1    2    0    0 -0.20177160882E+02 -0.43098827216E+02 -0.10778470505E+03  0.17177650995E+03  0.12500000000E+03 0.  0.
         25    1    1    2    0    0  0.77530531807E+02  0.33702813530E+02  0.88535083034E+02  0.17495806335E+03  0.12500000000E+03 0.  0.
         25    1    1    2    0    0 -0.57353370926E+02  0.93960136857E+01 -0.16016078784E+03  0.21131533827E+03  0.12500000000E+03 0.  0.
</event>
<event>
 5    0  0.6108888E-005  0.3056629E+03  0.7546771E-02  0.1082444E+00
         21   -1    0    0  502  501  0.00000000000E+00  0.00000000000E+00  0.72524717953E+03  0.72524717953E+03  0.00000000000E+00 0.  1.
         21   -1    0    0  501  502 -0.00000000000E+00 -0.00000000000E+00 -0.12882478556E+03  0.12882478556E+03  0.00000000000E+00 0.  1.
         25    1    1    2    0    0 -0.40299341125E+02  0.66024860439E+02  0.33213303637E+03  0.36320885581E+03  0.12500000000E+03 0.  0.
         25    1    1    2    0    0  0.52716868954E+02  0.79358418184E+02  0.25369874797E+03  0.29843739968E+03  0.12500000000E+03 0.  0.
         25    1    1    2    0    0 -0.12417527829E+02 -0.14538327862E+03  0.10590609640E+02  0.19242570960E+03  0.12500000000E+03 0.  0.
</event>
<event>
 5    0  0.5612316E-005  0.3642107E+03  0.7546771E-02  0.1056929E+00
         21   -1    0    0  502  501  0.00000000000E+00  0.00000000000E+00  0.24867962724E+03  0.24867962724E+03  0.00000000000E+00 0.  1.
         21   -1    0    0  501  502 -0.00000000000E+00 -0.00000000000E+00 -0.53341503184E+03  0.53341503184E+03  0.00000000000E+00 0.  1.
         25    1    1    2    0    0 -0.77597007787E+01 -0.14429539253E+03 -0.10997876262E+03  0.22045793587E+03  0.12500000000E+03 0.  0.
         25    1    1    2    0    0  0.13510598298E+03  0.22217273138E+03  0.16145471341E+02  0.28896370957E+03  0.12500000000E+03 0.  0.
         25    1    1    2    0    0 -0.12734628220E+03 -0.77877338845E+02 -0.19090211332E+03  0.27267301363E+03  0.12500000000E+03 0.  0.
</event>
<event>
 5    0  0.5612316E-005  0.5074290E+03  0.7546771E-02  0.1011858E+00
         21   -1    0    0  502  501  0.00000000000E+00  0.00000000000E+00  0.85805080247E+03  0.85805080247E+03  0.00000000000E+00 0. -1.
         21   -1    0    0  501  502 -0.00000000000E+00 -0.00000000000E+00 -0.30008039412E+03  0.30008039412E+03  0.00000000000E+00 0. -1.
         25    1    1    2    0    0  0.31155049275E-01  0.17621285737E+03  0.34944016970E+03  0.41083379155E+03  0.12500000000E+03 0.  0.
         25    1    1    2    0    0 -0.27009833894E+03 -0.11218599763E+03 -0.79904922133E+02  0.32794604335E+03  0.12500000000E+03 0.  0.
         25    1    1    2    0    0  0.27006718389E+03 -0.64026859735E+02  0.28843516078E+03  0.41935136170E+03  0.12500000000E+03 0.  0.
</event>
<event>
 5    0  0.5612316E-005  0.3372384E+03  0.7546771E-02  0.1067978E+00
         21   -1    0    0  502  501  0.00000000000E+00  0.00000000000E+00  0.12486651570E+04  0.12486651570E+04  0.00000000000E+00 0.  1.
         21   -1    0    0  501  502 -0.00000000000E+00 -0.00000000000E+00 -0.91081058587E+02  0.91081058587E+02  0.00000000000E+00 0.  1.
         25    1    1    2    0    0 -0.17946823138E+03  0.13836527657E+03  0.69393826196E+03  0.74062750911E+03  0.12500000000E+03 0.  0.
         25    1    1    2    0    0  0.22573529526E+02 -0.89458902244E+02  0.11268464667E+03  0.19192521726E+03  0.12500000000E+03 0.  0.
         25    1    1    2    0    0  0.15689470186E+03 -0.48906374328E+02  0.35096118975E+03  0.40719348918E+03  0.12500000000E+03 0.  0.
</event>
<event>
 5    0  0.5612316E-005  0.3870977E+03  0.7546771E-02  0.1048341E+00
         21   -1    0    0  502  501  0.00000000000E+00  0.00000000000E+00  0.23804120413E+03  0.23804120413E+03  0.00000000000E+00 0.  1.
         21   -1    0    0  501  502 -0.00000000000E+00 -0.00000000000E+00 -0.62949035781E+03  0.62949035781E+03  0.00000000000E+00 0.  1.
         25    1    1    2    0    0 -0.22916491800E+02 -0.15315564876E+03 -0.86975014877E+02  0.21718994350E+03  0.12500000000E+03 0.  0.
         25    1    1    2    0    0 -0.22596257466E+03  0.19348062253E+02 -0.18855529663E+03  0.32033034909E+03  0.12500000000E+03 0.  0.
         25    1    1    2    0    0  0.24887906646E+03  0.13380758651E+03 -0.11591884217E+03  0.33001126935E+03  0.12500000000E+03 0.  0.
</event>
<event>
 5    0  0.5612316E-005  0.2435154E+03  0.7546771E-02  0.1117473E+00
         21   -1    0    0  502  501  0.00000000000E+00  0.00000000000E+00  0.22766911647E+03  0.22766911647E+03  0.00000000000E+00 0.  1.
         21   -1    0    0  501  502 -0.00000000000E+00 -0.00000000000E+00 -0.26046458363E+03  0.26046458363E+03  0.00000000000E+00 0.  1.
         25    1    1    2    0    0 -0.16138416797E+02 -0.66499711695E+02 -0.46049255550E+02  0.14976045569E+03  0.12500000000E+03 0.  0.
         25    1    1    2    0    0 -0.29149964724E+02 -0.35270490780E+01 -0.89339698509E+02  0.15642487733E+03  0.12500000000E+03 0.  0.
         25    1    1    2    0    0  0.45288381521E+02  0.70026760773E+02  0.10259348690E+03  0.18194836707E+03  0.12500000000E+03 0.  0.
</event>
<event>
 5    0  0.5612316E-005  0.2815801E+03  0.7546771E-02  0.1094829E+00
         21   -1    0    0  502  501  0.00000000000E+00  0.00000000000E+00  0.29730006046E+03  0.29730006046E+03  0.00000000000E+00 0. -1.
         21   -1    0    0  501  502 -0.00000000000E+00 -0.00000000000E+00 -0.26669132916E+03  0.26669132916E+03  0.00000000000E+00 0. -1.
         25    1    1    2    0    0 -0.40025735110E+02  0.15237414347E+03 -0.10437252287E+03  0.22658014608E+03  0.12500000000E+03 0.  0.
         25    1    1    2    0    0  0.24090322652E+02 -0.76414300333E+02  0.18242979633E+02  0.14959042498E+03  0.12500000000E+03 0.  0.
         25    1    1    2    0    0  0.15935412458E+02 -0.75959843132E+02  0.11673827454E+03  0.18782081855E+03  0.12500000000E+03 0.  0.
</event>
<event>
 5    0  0.5612316E-005  0.1042229E+04  0.7546771E-02  0.9263404E-01
         21   -1    0    0  502  501  0.00000000000E+00  0.00000000000E+00  0.75271742835E+03  0.75271742835E+03  0.00000000000E+00 0.  1.
         21   -1    0    0  501  502 -0.00000000000E+00 -0.00000000000E+00 -0.14430943333E+04  0.14430943333E+04  0.00000000000E+00 0.  1.
         25    1    1    2    0    0  0.74968963240E+03 -0.16704688836E+03  0.42344753059E+02  0.77933130692E+03  0.12500000000E+03 0.  0.
         25    1    1    2    0    0 -0.88079595060E+03  0.28512861996E+03 -0.75217721916E+03  0.11993729218E+04  0.12500000000E+03 0.  0.
         25    1    1    2    0    0  0.13110631821E+03 -0.11808173161E+03  0.19455561123E+02  0.21710753297E+03  0.12500000000E+03 0.  0.
</event>
<event>
 5    0  0.5612316E-005  0.2367350E+03  0.7546771E-02  0.1121987E+00
         21   -1    0    0  502  501  0.00000000000E+00  0.00000000000E+00  0.17792147340E+03  0.17792147340E+03  0.00000000000E+00 0. -1.
         21   -1    0    0  501  502 -0.00000000000E+00 -0.00000000000E+00 -0.31498976365E+03  0.31498976365E+03  0.00000000000E+00 0. -1.
         25    1    1    2    0    0 -0.60645645628E+02 -0.18616285174E+02 -0.13541596319E+03  0.19490239479E+03  0.12500000000E+03 0.  0.
         25    1    1    2    0    0 -0.19855178993E+02  0.61077005072E+02  0.19739865823E+02  0.14191296975E+03  0.12500000000E+03 0.  0.
         25    1    1    2    0    0  0.80500824622E+02 -0.42460719898E+02 -0.21392192884E+02  0.15609587251E+03  0.12500000000E+03 0.  0.
</event>
<event>
 5    0  0.5612316E-005  0.2698466E+03  0.7546771E-02  0.1101367E+00
         21   -1    0    0  502  501  0.00000000000E+00  0.00000000000E+00  0.23230846653E+03  0.23230846653E+03  0.00000000000E+00 0. -1.
         21   -1    0    0  501  502 -0.00000000000E+00 -0.00000000000E+00 -0.31345036165E+03  0.31345036165E+03  0.00000000000E+00 0. -1.
         25    1    1    2    0    0 -0.33880502926E+01  0.48839221725E+02 -0.80067562883E+02  0.15630919068E+03  0.12500000000E+03 0.  0.
         25    1    1    2    0    0  0.13070245922E+02  0.12048595823E+03 -0.30368414695E+02  0.17673408859E+03  0.12500000000E+03 0.  0.
         25    1    1    2    0    0 -0.96821956289E+01 -0.16932517996E+03  0.29294082460E+02  0.21271554891E+03  0.12500000000E+03 0.  0.
</event>
<event>
 5    0  0.5612316E-005  0.3753540E+03  0.7546771E-02  0.1052664E+00
         21   -1    0    0  502  501  0.00000000000E+00  0.00000000000E+00  0.23863691122E+03  0.23863691122E+03  0.00000000000E+00 0.  1.
         21   -1    0    0  501  502 -0.00000000000E+00 -0.00000000000E+00 -0.59039746817E+03  0.59039746817E+03  0.00000000000E+00 0.  1.
         25    1    1    2    0    0 -0.22224247620E+03 -0.17394373952E+03 -0.20000281925E+03  0.36779650685E+03  0.12500000000E+03 0.  0.
         25    1    1    2    0    0  0.11247114714E+03  0.19961659077E+03 -0.53818243854E+02  0.26649192412E+03  0.12500000000E+03 0.  0.
         25    1    1    2    0    0  0.10977132906E+03 -0.25672851246E+02 -0.97939493848E+02  0.19474594843E+03  0.12500000000E+03 0.  0.
</event>
<event>
 5    0  0.6988995E-005  0.5400940E+03  0.7546771E-02  0.1003813E+00
         21   -1    0    0  502  501  0.00000000000E+00  0.00000000000E+00  0.43778619007E+03  0.43778619007E+03  0.00000000000E+00 0. -1.
         21   -1    0    0  501  502 -0.00000000000E+00 -0.00000000000E+00 -0.66631041597E+03  0.66631041597E+03  0.00000000000E+00 0.  1.
         25    1    1    2    0    0  0.80371383746E+02  0.13169863379E+03 -0.39466707071E+03  0.44180446599E+03  0.12500000000E+03 0.  0.
         25    1    1    2    0    0  0.23076528574E+03 -0.87179682692E+00  0.14936808791E+03  0.30197550036E+03  0.12500000000E+03 0.  0.
         25    1    1    2    0    0 -0.31113666949E+03 -0.13082683696E+03  0.16774756905E+02  0.36031663969E+03  0.12500000000E+03 0.  0.
</event>
<event>
 5    0  0.5791237E-005  0.2761959E+03  0.7546771E-02  0.1097785E+00
         21   -1    0    0  502  501  0.00000000000E+00  0.00000000000E+00  0.11727715534E+03  0.11727715534E+03  0.00000000000E+00 0.  1.
         21   -1    0    0  501  502 -0.00000000000E+00 -0.00000000000E+00 -0.65046079728E+03  0.65046079728E+03  0.00000000000E+00 0.  1.
         25    1    1    2    0    0  0.12146724264E+03 -0.30628058025E+02 -0.12064175412E+03  0.21417703380E+03  0.12500000000E+03 0.  0.
         25    1    1    2    0    0 -0.22833171978E+02 -0.57662433666E+02 -0.50645404822E+02  0.14844617553E+03  0.12500000000E+03 0.  0.
         25    1    1    2    0    0 -0.98634070660E+02  0.88290491691E+02 -0.36189648300E+03  0.40511474328E+03  0.12500000000E+03 0.  0.
</event>
<event>
 5    0  0.5612316E-005  0.3679050E+03  0.7546771E-02  0.1055497E+00
         21   -1    0    0  502  501  0.00000000000E+00  0.00000000000E+00  0.78133632361E+02  0.78133632361E+02  0.00000000000E+00 0. -1.
         21   -1    0    0  501  502 -0.00000000000E+00 -0.00000000000E+00 -0.17323408893E+04  0.17323408893E+04  0.00000000000E+00 0. -1.
         25    1    1    2    0    0  0.33172971636E+02 -0.50761778605E+02 -0.35579921886E+03  0.38196241746E+03  0.12500000000E+03 0.  0.
         25    1    1    2    0    0 -0.15657692435E+03  0.18134968713E+03 -0.11012776000E+04  0.11339494673E+04  0.12500000000E+03 0.  0.
         25    1    1    2    0    0  0.12340395272E+03 -0.13058790853E+03 -0.19713043807E+03  0.29456263682E+03  0.12500000000E+03 0.  0.
</event>
<event>
 5    0  0.5612316E-005  0.2693965E+03  0.7546771E-02  0.1101626E+00
         21   -1    0    0  502  501  0.00000000000E+00  0.00000000000E+00  0.14902380498E+04  0.14902380498E+04  0.00000000000E+00 0.  1.
         21   -1    0    0  501  502 -0.00000000000E+00 -0.00000000000E+00 -0.48699902380E+02  0.48699902380E+02  0.00000000000E+00 0.  1.
         25    1    1    2    0    0  0.94684555599E+02  0.68861719046E+02  0.20970420120E+03  0.27075441533E+03  0.12500000000E+03 0.  0.
         25    1    1    2    0    0 -0.84556037946E+02 -0.82464335126E+02  0.80147990534E+03  0.81972259258E+03  0.12500000000E+03 0.  0.
         25    1    1    2    0    0 -0.10128517654E+02  0.13602616080E+02  0.43035404084E+03  0.44846094423E+03  0.12500000000E+03 0.  0.
</event>
<event>
 5    0  0.5612316E-005  0.3035116E+03  0.7546771E-02  0.1083498E+00
         21   -1    0    0  502  501  0.00000000000E+00  0.00000000000E+00  0.29929732051E+03  0.29929732051E+03  0.00000000000E+00 0. -1.
         21   -1    0    0  501  502 -0.00000000000E+00 -0.00000000000E+00 -0.30778512546E+03  0.30778512546E+03  0.00000000000E+00 0. -1.
         25    1    1    2    0    0 -0.23437818273E+02  0.10442045607E+03  0.82714234574E+02  0.18417276556E+03  0.12500000000E+03 0.  0.
         25    1    1    2    0    0  0.45179427895E+02 -0.80013388420E+01  0.10540974183E+03  0.16982760612E+03  0.12500000000E+03 0.  0.
         25    1    1    2    0    0 -0.21741609622E+02 -0.96419117231E+02 -0.19661178136E+03  0.25308207429E+03  0.12500000000E+03 0.  0.
</event>
<event>
 5    0  0.5612316E-005  0.3194951E+03  0.7546771E-02  0.1075882E+00
         21   -1    0    0  502  501  0.00000000000E+00  0.00000000000E+00  0.84311119921E+03  0.84311119921E+03  0.00000000000E+00 0. -1.
         21   -1    0    0  501  502 -0.00000000000E+00 -0.00000000000E+00 -0.12107197041E+03  0.12107197041E+03  0.00000000000E+00 0. -1.
         25    1    1    2    0    0  0.18014597675E+03 -0.14242714840E+02  0.25155602518E+03  0.33400727787E+03  0.12500000000E+03 0.  0.
         25    1    1    2    0    0 -0.22094354075E+03 -0.67544846188E+02  0.32297985240E+03  0.41631639351E+03  0.12500000000E+03 0.  0.
         25    1    1    2    0    0  0.40797564007E+02  0.81787561028E+02  0.14750335122E+03  0.21385949824E+03  0.12500000000E+03 0.  0.
</event>
<event>
 5    0  0.5612316E-005  0.2494133E+03  0.7546771E-02  0.1113676E+00
         21   -1    0    0  502  501  0.00000000000E+00  0.00000000000E+00  0.10052757558E+03  0.10052757558E+03  0.00000000000E+00 0. -1.
         21   -1    0    0  501  502 -0.00000000000E+00 -0.00000000000E+00 -0.61880518595E+03  0.61880518595E+03  0.00000000000E+00 0. -1.
         25    1    1    2    0    0  0.73487673414E+01 -0.42865077256E+02 -0.18585270745E+03  0.22816145182E+03  0.12500000000E+03 0.  0.
         25    1    1    2    0    0  0.67693122676E+02 -0.86352661563E+02 -0.14103124799E+03  0.21806869084E+03  0.12500000000E+03 0.  0.
         25    1    1    2    0    0 -0.75041890018E+02  0.12921773882E+03 -0.19139365493E+03  0.27310261886E+03  0.12500000000E+03 0.  0.
</event>
<event>
 5    0  0.5612316E-005  0.3777455E+03  0.7546771E-02  0.1051770E+00
         21   -1    0    0  502  501  0.00000000000E+00  0.00000000000E+00  0.25562425224E+03  0.25562425224E+03  0.00000000000E+00 0. -1.
         21   -1    0    0  501  502 -0.00000000000E+00 -0.00000000000E+00 -0.55820863890E+03  0.55820863890E+03  0.00000000000E+00 0. -1.
         25    1    1    2    0    0  0.44440093006E+02 -0.25054043369E+02  0.18808246712E+03  0.23152244253E+03  0.12500000000E+03 0.  0.
         25    1    1    2    0    0 -0.48681303252E+02  0.81115855119E+02 -0.15827213677E+03  0.22276606680E+03  0.12500000000E+03 0.  0.
         25    1    1    2    0    0  0.42412102461E+01 -0.56061811750E+02 -0.33239471701E+03  0.35954438182E+03  0.12500000000E+03 0.  0.
</event>
<event>
 5    0  0.5612316E-005  0.5027031E+03  0.7546771E-02  0.1013076E+00
         21   -1    0    0  502  501  0.00000000000E+00  0.00000000000E+00  0.12877361305E+04  0.12877361305E+04  0.00000000000E+00 0. -1.
         21   -1    0    0  501  502 -0.00000000000E+00 -0.00000000000E+00 -0.19624393012E+03  0.19624393012E+03  0.00000000000E+00 0. -1.
         25    1    1    2    0    0 -0.64702110069E+02 -0.18634968287E+03  0.20480623631E+03  0.31061738809E+03  0.12500000000E+03 0.  0.
         25    1    1    2    0    0  0.78934949349E+02 -0.26308069638E+03  0.35004243213E+03  0.46216542853E+03  0.12500000000E+03 0.  0.
         25    1    1    2    0    0 -0.14232839279E+02  0.44943037925E+03  0.53664353194E+03  0.71119724401E+03  0.12500000000E+03 0.  0.
</event>
<event>
 5    0  0.5612316E-005  0.2503574E+03  0.7546771E-02  0.1113079E+00
         21   -1    0    0  502  501  0.00000000000E+00  0.00000000000E+00  0.12019536626E+03  0.12019536626E+03  0.00000000000E+00 0. -1.
         21   -1    0    0  501  502 -0.00000000000E+00 -0.00000000000E+00 -0.52147441402E+03  0.52147441402E+03  0.00000000000E+00 0. -1.
         25    1    1    2    0    0  0.80978611970E+02 -0.27042350406E+02 -0.29046078165E+03  0.32753822676E+03  0.12500000000E+03 0.  0.
         25    1    1    2    0    0 -0.87798817922E+02 -0.20058752504E+02 -0.90957890603E+02  0.17891149724E+03  0.12500000000E+03 0.  0.
         25    1    1    2    0    0  0.68202059517E+01  0.47101102910E+02 -0.19860375506E+02  0.13522005628E+03  0.12500000000E+03 0.  0.
</event>
<event>
 5    0  0.5612316E-005  0.4370440E+03  0.7546771E-02  0.1031658E+00
         21   -1    0    0  502  501  0.00000000000E+00  0.00000000000E+00  0.35915124142E+03  0.35915124142E+03  0.00000000000E+00 0.  1.
         21   -1    0    0  501  502 -0.00000000000E+00 -0.00000000000E+00 -0.53183014189E+03  0.53183014189E+03  0.00000000000E+00 0.  1.
         25    1    1    2    0    0 -0.75648451771E+02  0.93121888418E+02 -0.18037402217E+02  0.17419736576E+03  0.12500000000E+03 0.  0.
         25    1    1    2    0    0  0.22374483657E+03 -0.29369232104E+03  0.15458453599E+02  0.39010369790E+03  0.12500000000E+03 0.  0.
         25    1    1    2    0    0 -0.14809638480E+03  0.20057043262E+03 -0.17009995185E+03  0.32668031966E+03  0.12500000000E+03 0.  0.
</event>
<event>
 5    0  0.5612316E-005  0.4107356E+03  0.7546771E-02  0.1040124E+00
         21   -1    0    0  502  501  0.00000000000E+00  0.00000000000E+00  0.96875067228E+02  0.96875067228E+02  0.00000000000E+00 0.  1.
         21   -1    0    0  501  502 -0.00000000000E+00 -0.00000000000E+00 -0.17414569606E+04  0.17414569606E+04  0.00000000000E+00 0.  1.
         25    1    1    2    0    0 -0.13104851049E+03  0.59453727555E+02 -0.57990313367E+02  0.19923938934E+03  0.12500000000E+03 0.  0.
         25    1    1    2    0    0  0.22034568433E+02 -0.16074623648E+03 -0.61356221549E+03  0.64684501005E+03  0.12500000000E+03 0.  0.
         25    1    1    2    0    0  0.10901394206E+03  0.10129250892E+03 -0.97302936449E+03  0.99224762841E+03  0.12500000000E+03 0.  0.
</event>
<event>
 5    0  0.5612316E-005  0.5443369E+03  0.7546771E-02  0.1002813E+00
         21   -1    0    0  502  501  0.00000000000E+00  0.00000000000E+00  0.14978874288E+04  0.14978874288E+04  0.00000000000E+00 0. -1.
         21   -1    0    0  501  502 -0.00000000000E+00 -0.00000000000E+00 -0.19781373617E+03  0.19781373617E+03  0.00000000000E+00 0. -1.
         25    1    1    2    0    0 -0.34168893305E+02  0.10663968044E+03 -0.56629088265E+02  0.17711970063E+03  0.12500000000E+03 0.  0.
         25    1    1    2    0    0 -0.38199535110E+02  0.10752778595E+03  0.36240772307E+02  0.17308906035E+03  0.12500000000E+03 0.  0.
         25    1    1    2    0    0  0.72368428415E+02 -0.21416746639E+03  0.13204620086E+04  0.13454924040E+04  0.12500000000E+03 0.  0.
</event>
<event>
 5    0  0.5612316E-005  0.4214321E+03  0.7546771E-02  0.1036601E+00
         21   -1    0    0  502  501  0.00000000000E+00  0.00000000000E+00  0.29160483535E+03  0.29160483535E+03  0.00000000000E+00 0.  1.
         21   -1    0    0  501  502 -0.00000000000E+00 -0.00000000000E+00 -0.60906055368E+03  0.60906055368E+03  0.00000000000E+00 0.  1.
         25    1    1    2    0    0 -0.87154029012E+02 -0.15848038260E+03 -0.25709170975E+03  0.33827947567E+03  0.12500000000E+03 0.  0.
         25    1    1    2    0    0  0.35289429709E+02  0.32173080517E+03 -0.31665860208E+02  0.34840175307E+03  0.12500000000E+03 0.  0.
         25    1    1    2    0    0  0.51864599303E+02 -0.16325042257E+03 -0.28698148373E+02  0.21398416028E+03  0.12500000000E+03 0.  0.
</event>
<event>
 5    0  0.5612316E-005  0.3152612E+03  0.7546771E-02  0.1077851E+00
         21   -1    0    0  502  501  0.00000000000E+00  0.00000000000E+00  0.35709154903E+03  0.35709154903E+03  0.00000000000E+00 0.  1.
         21   -1    0    0  501  502 -0.00000000000E+00 -0.00000000000E+00 -0.27833093330E+03  0.27833093330E+03  0.00000000000E+00 0.  1.
         25    1    1    2    0    0 -0.17178204572E+02 -0.79682783759E+02  0.12467895122E+03  0.19445893556E+03  0.12500000000E+03 0.  0.
         25    1    1    2    0    0 -0.33606745390E+02  0.12256992923E+03 -0.17468784120E+03  0.24958694427E+03  0.12500000000E+03 0.  0.
         25    1    1    2    0    0  0.50784949961E+02 -0.42887145470E+02  0.12876950570E+03  0.19137660251E+03  0.12500000000E+03 0.  0.
</event>
<event>
 5    0  0.5612316E-005  0.3520535E+03  0.7546771E-02  0.1061775E+00
         21   -1    0    0  502  501  0.00000000000E+00  0.00000000000E+00  0.95867956597E+02  0.95867956597E+02  0.00000000000E+00 0.  1.
         21   -1    0    0  501  502 -0.00000000000E+00 -0.00000000000E+00 -0.12928370645E+04  0.12928370645E+04  0.00000000000E+00 0.  1.
         25    1    1    2    0    0 -0.22779210132E+03  0.11842905829E+03 -0.44084446583E+03  0.52524615784E+03  0.12500000000E+03 0.  0.
         25    1    1    2    0    0  0.23083609681E+03 -0.79052334207E+02 -0.59951557725E+03  0.65922568404E+03  0.12500000000E+03 0.  0.
         25    1    1    2    0    0 -0.30439954942E+01 -0.39376724086E+02 -0.15660906483E+03  0.20423317922E+03  0.12500000000E+03 0.  0.
</event>
<event>
 5    0  0.5612316E-005  0.3177012E+03  0.7546771E-02  0.1076712E+00
         21   -1    0    0  502  501  0.00000000000E+00  0.00000000000E+00  0.53447848064E+02  0.53447848064E+02  0.00000000000E+00 0. -1.
         21   -1    0    0  501  502 -0.00000000000E+00 -0.00000000000E+00 -0.18884589217E+04  0.18884589217E+04  0.00000000000E+00 0. -1.
         25    1    1    2    0    0 -0.13539186097E+03  0.57104846392E+02 -0.12188014496E+04  0.12339748348E+04  0.12500000000E+03 0.  0.
         25    1    1    2    0    0  0.14688940818E+03 -0.48866898521E+02 -0.49391736433E+03  0.53248834240E+03  0.12500000000E+03 0.  0.
         25    1    1    2    0    0 -0.11497547209E+02 -0.82379478707E+01 -0.12229225977E+03  0.17544359258E+03  0.12500000000E+03 0.  0.
</event>
<event>
 5    0  0.5612316E-005  0.2769367E+03  0.7546771E-02  0.1097374E+00
         21   -1    0    0  502  501  0.00000000000E+00  0.00000000000E+00  0.22295188986E+03  0.22295188986E+03  0.00000000000E+00 0. -1.
         21   -1    0    0  501  502 -0.00000000000E+00 -0.00000000000E+00 -0.34399321568E+03  0.34399321568E+03  0.00000000000E+00 0. -1.
         25    1    1    2    0    0  0.68949829004E+02 -0.42068464128E+02 -0.17046812142E+03  0.22629232204E+03  0.12500000000E+03 0.  0.
         25    1    1    2    0    0  0.25722078180E+02  0.29289314815E+02  0.11105227259E+03  0.17168895280E+03  0.12500000000E+03 0.  0.
         25    1    1    2    0    0 -0.94671907184E+02  0.12779149312E+02 -0.61625476987E+02  0.16896383069E+03  0.12500000000E+03 0.  0.
</event>
<event>
 5    0  0.5612316E-005  0.3193546E+03  0.7546771E-02  0.1075947E+00
         21   -1    0    0  502  501  0.00000000000E+00  0.00000000000E+00  0.35219065928E+03  0.35219065928E+03  0.00000000000E+00 0. -1.
         21   -1    0    0  501  502 -0.00000000000E+00 -0.00000000000E+00 -0.28957997822E+03  0.28957997822E+03  0.00000000000E+00 0. -1.
         25    1    1    2    0    0  0.80515653702E+02 -0.16711591841E+02  0.74177290548E+02  0.16700095277E+03  0.12500000000E+03 0.  0.
         25    1    1    2    0    0  0.10631775448E+03 -0.12336830151E+03 -0.37282424227E+02  0.20865805015E+03  0.12500000000E+03 0.  0.
         25    1    1    2    0    0 -0.18683340818E+03  0.14007989335E+03  0.25715814737E+02  0.26611163459E+03  0.12500000000E+03 0.  0.
</event>
<event>
 5    0  0.5612316E-005  0.2636999E+03  0.7546771E-02  0.1104940E+00
         21   -1    0    0  502  501  0.00000000000E+00  0.00000000000E+00  0.55199214622E+02  0.55199214622E+02  0.00000000000E+00 0.  1.
         21   -1    0    0  501  502 -0.00000000000E+00 -0.00000000000E+00 -0.12597575723E+04  0.12597575723E+04  0.00000000000E+00 0.  1.
         25    1    1    2    0    0  0.92164672240E+02  0.57423065306E+02 -0.38428207964E+03  0.41843691516E+03  0.12500000000E+03 0.  0.
         25    1    1    2    0    0 -0.91187602708E+02 -0.13518583026E+03 -0.37583665334E+03  0.42833232143E+03  0.12500000000E+03 0.  0.
         25    1    1    2    0    0 -0.97706953237E+00  0.77762764952E+02 -0.44443962469E+03  0.46818755032E+03  0.12500000000E+03 0.  0.
</event>
<event>
 5    0  0.5612316E-005  0.4434213E+03  0.7546771E-02  0.1029702E+00
         21   -1    0    0  502  501  0.00000000000E+00  0.00000000000E+00  0.10990651910E+04  0.10990651910E+04  0.00000000000E+00 0.  1.
         21   -1    0    0  501  502 -0.00000000000E+00 -0.00000000000E+00 -0.17889968498E+03  0.17889968498E+03  0.00000000000E+00 0.  1.
         25    1    1    2    0    0 -0.12835905001E+02 -0.53003177121E+02  0.50283839818E+03  0.52100436843E+03  0.12500000000E+03 0.  0.
         25    1    1    2    0    0 -0.14705723310E+03 -0.21452722760E+03  0.24988638684E+03  0.38172760905E+03  0.12500000000E+03 0.  0.
         25    1    1    2    0    0  0.15989313810E+03  0.26753040472E+03  0.16744072100E+03  0.37523289849E+03  0.12500000000E+03 0.  0.
</event>
<event>
 5    0  0.5612316E-005  0.2387534E+03  0.7546771E-02  0.1120626E+00
         21   -1    0    0  502  501  0.00000000000E+00  0.00000000000E+00  0.31790875680E+03  0.31790875680E+03  0.00000000000E+00 0. -1.
         21   -1    0    0  501  502 -0.00000000000E+00 -0.00000000000E+00 -0.17930677146E+03  0.17930677146E+03  0.00000000000E+00 0. -1.
         25    1    1    2    0    0 -0.89848615565E+00 -0.40686517880E+02  0.15079865628E+03  0.20005357970E+03  0.12500000000E+03 0.  0.
         25    1    1    2    0    0 -0.74938532420E+02  0.14127855712E+02  0.10671919682E+02  0.14681372490E+03  0.12500000000E+03 0.  0.
         25    1    1    2    0    0  0.75837018576E+02  0.26558662168E+02 -0.22868590622E+02  0.15034822367E+03  0.12500000000E+03 0.  0.
</event>
<event>
 5    0  0.5680613E-005  0.3698574E+03  0.7546771E-02  0.1054748E+00
         21   -1    0    0  502  501  0.00000000000E+00  0.00000000000E+00  0.36276302317E+03  0.36276302317E+03  0.00000000000E+00 0.  1.
         21   -1    0    0  501  502 -0.00000000000E+00 -0.00000000000E+00 -0.37709042549E+03  0.37709042549E+03  0.00000000000E+00 0.  1.
         25    1    1    2    0    0  0.70216663956E+01 -0.18288983727E+03  0.12285181331E+03  0.25340790124E+03  0.12500000000E+03 0.  0.
         25    1    1    2    0    0  0.88728364580E+02  0.22861109564E+03 -0.41058906915E+01  0.27527734028E+03  0.12500000000E+03 0.  0.
         25    1    1    2    0    0 -0.95750030976E+02 -0.45721258372E+02 -0.13307332494E+03  0.21116820715E+03  0.12500000000E+03 0.  0.
</event>
<event>
 5    0  0.5612316E-005  0.2324874E+03  0.7546771E-02  0.1124901E+00
         21   -1    0    0  502  501  0.00000000000E+00  0.00000000000E+00  0.49139274344E+03  0.49139274344E+03  0.00000000000E+00 0.  1.
         21   -1    0    0  501  502 -0.00000000000E+00 -0.00000000000E+00 -0.10999431496E+03  0.10999431496E+03  0.00000000000E+00 0.  1.
         25    1    1    2    0    0 -0.78415262837E+02 -0.14297024652E+02  0.20217163442E+03  0.25070246932E+03  0.12500000000E+03 0.  0.
         25    1    1    2    0    0  0.62949803733E+02  0.71061870837E+01  0.17534871709E+03  0.22446680883E+03  0.12500000000E+03 0.  0.
         25    1    1    2    0    0  0.15465459105E+02  0.71908375684E+01  0.38780769729E+01  0.12621778025E+03  0.12500000000E+03 0.  0.
</event>
<event>
 5    0  0.5612316E-005  0.2907674E+03  0.7546771E-02  0.1089949E+00
         21   -1    0    0  502  501  0.00000000000E+00  0.00000000000E+00  0.94620302786E+02  0.94620302786E+02  0.00000000000E+00 0.  1.
         21   -1    0    0  501  502 -0.00000000000E+00 -0.00000000000E+00 -0.89352560017E+03  0.89352560017E+03  0.00000000000E+00 0.  1.
         25    1    1    2    0    0 -0.13675659050E+03  0.23349674265E+02 -0.25125996294E+03  0.31305613124E+03  0.12500000000E+03 0.  0.
         25    1    1    2    0    0  0.18031276965E+03 -0.10047826819E+03 -0.32354588091E+03  0.40362794047E+03  0.12500000000E+03 0.  0.
         25    1    1    2    0    0 -0.43556179151E+02  0.77128593923E+02 -0.22409945354E+03  0.27146183124E+03  0.12500000000E+03 0.  0.
</event>
<event>
 5    0  0.5612316E-005  0.2506823E+03  0.7546771E-02  0.1112874E+00
         21   -1    0    0  502  501  0.00000000000E+00  0.00000000000E+00  0.18887223371E+02  0.18887223371E+02  0.00000000000E+00 0. -1.
         21   -1    0    0  501  502 -0.00000000000E+00 -0.00000000000E+00 -0.33272013429E+04  0.33272013429E+04  0.00000000000E+00 0. -1.
         25    1    1    2    0    0  0.14579719264E+03 -0.54891609959E+02 -0.15371173147E+04  0.15500401767E+04  0.12500000000E+03 0.  0.
         25    1    1    2    0    0 -0.68640961294E+02  0.54934593155E+01 -0.86619802666E+03  0.87787572073E+03  0.12500000000E+03 0.  0.
         25    1    1    2    0    0 -0.77156231343E+02  0.49398150643E+02 -0.90499877826E+03  0.91817266893E+03  0.12500000000E+03 0.  0.
</event>
<event>
 5    0  0.6176051E-005  0.2941971E+03  0.7546771E-02  0.1088178E+00
         21   -1    0    0  502  501  0.00000000000E+00  0.00000000000E+00  0.14141698573E+03  0.14141698573E+03  0.00000000000E+00 0.  1.
         21   -1    0    0  501  502 -0.00000000000E+00 -0.00000000000E+00 -0.61203363428E+03  0.61203363428E+03  0.00000000000E+00 0.  1.
         25    1    1    2    0    0 -0.61086023930E+02 -0.10231376166E+03 -0.18514218688E+03  0.25318419680E+03  0.12500000000E+03 0.  0.
         25    1    1    2    0    0 -0.25056269276E+02 -0.95777612446E+02 -0.88804271736E+02  0.18251675637E+03  0.12500000000E+03 0.  0.
         25    1    1    2    0    0  0.86142293207E+02  0.19809137410E+03 -0.19667018993E+03  0.31774966685E+03  0.12500000000E+03 0.  0.
</event>
<event>
 5    0  0.5612316E-005  0.3212484E+03  0.7546771E-02  0.1075076E+00
         21   -1    0    0  502  501  0.00000000000E+00  0.00000000000E+00  0.15180594692E+03  0.15180594692E+03  0.00000000000E+00 0. -1.
         21   -1    0    0  501  502 -0.00000000000E+00 -0.00000000000E+00 -0.67981868039E+03  0.67981868039E+03  0.00000000000E+00 0. -1.
         25    1    1    2    0    0  0.12579601248E+03  0.15436994245E+03 -0.56022446024E+02  0.24169863538E+03  0.12500000000E+03 0.  0.
         25    1    1    2    0    0 -0.12779838865E+03 -0.38607887008E+02 -0.26176393786E+03  0.31932484439E+03  0.12500000000E+03 0.  0.
         25    1    1    2    0    0  0.20023761725E+01 -0.11576205544E+03 -0.21022634959E+03  0.27060114754E+03  0.12500000000E+03 0.  0.
</event>
<event>
 5    0  0.5612316E-005  0.3414317E+03  0.7546771E-02  0.1066188E+00
         21   -1    0    0  502  501  0.00000000000E+00  0.00000000000E+00  0.12289581838E+04  0.12289581838E+04  0.00000000000E+00 0.  1.
         21   -1    0    0  501  502 -0.00000000000E+00 -0.00000000000E+00 -0.94857272192E+02  0.94857272192E+02  0.00000000000E+00 0.  1.
         25    1    1    2    0    0 -0.17493877007E+03  0.59020818854E+02  0.40189458682E+03  0.45959905271E+03  0.12500000000E+03 0.  0.
         25    1    1    2    0    0  0.16844776122E+03  0.11569951500E+03  0.32470738293E+03  0.40351073165E+03  0.12500000000E+03 0.  0.
         25    1    1    2    0    0  0.64910088526E+01 -0.17472033385E+03  0.40749894185E+03  0.46070567162E+03  0.12500000000E+03 0.  0.
</event>
<event>
 5    0  0.5612316E-005  0.3303643E+03  0.7546771E-02  0.1070976E+00
         21   -1    0    0  502  501  0.00000000000E+00  0.00000000000E+00  0.16225051435E+03  0.16225051435E+03  0.00000000000E+00 0.  1.
         21   -1    0    0  501  502 -0.00000000000E+00 -0.00000000000E+00 -0.67266707603E+03  0.67266707603E+03  0.00000000000E+00 0.  1.
         25    1    1    2    0    0  0.10142832043E+02 -0.10592879399E+03 -0.48363927270E+03  0.51074037684E+03  0.12500000000E+03 0.  0.
         25    1    1    2    0    0 -0.56537315472E+02  0.49870539476E+02 -0.84246490941E+02  0.16854082587E+03  0.12500000000E+03 0.  0.
         25    1    1    2    0    0  0.46394483429E+02  0.56058254517E+02  0.57469201966E+02  0.15563638767E+03  0.12500000000E+03 0.  0.
</event>
<event>
 5    0  0.5612316E-005  0.3212984E+03  0.7546771E-02  0.1075053E+00
         21   -1    0    0  502  501  0.00000000000E+00  0.00000000000E+00  0.27845787558E+03  0.27845787558E+03  0.00000000000E+00 0. -1.
         21   -1    0    0  501  502 -0.00000000000E+00 -0.00000000000E+00 -0.37072994744E+03  0.37072994744E+03  0.00000000000E+00 0. -1.
         25    1    1    2    0    0 -0.57083268448E+02  0.44061901246E+02 -0.38261432590E+01  0.14435923957E+03  0.12500000000E+03 0.  0.
         25    1    1    2    0    0 -0.65494619247E+02  0.14642185652E+02 -0.23131512574E+03  0.27135885124E+03  0.12500000000E+03 0.  0.
         25    1    1    2    0    0  0.12257788769E+03 -0.58704086898E+02  0.14286919713E+03  0.23346973221E+03  0.12500000000E+03 0.  0.
</event>
<event>
 5    0  0.5612316E-005  0.3207683E+03  0.7546771E-02  0.1075296E+00
         21   -1    0    0  502  501  0.00000000000E+00  0.00000000000E+00  0.51415383840E+03  0.51415383840E+03  0.00000000000E+00 0. -1.
         21   -1    0    0  501  502 -0.00000000000E+00 -0.00000000000E+00 -0.20011970364E+03  0.20011970364E+03  0.00000000000E+00 0. -1.
         25    1    1    2    0    0 -0.47629825124E+02  0.48934312728E+02  0.14402336974E+03  0.20256085070E+03  0.12500000000E+03 0.  0.
         25    1    1    2    0    0  0.17082237357E+03 -0.13673311335E+03 -0.11710406972E+00  0.25199452635E+03  0.12500000000E+03 0.  0.
         25    1    1    2    0    0 -0.12319254845E+03  0.87798800617E+02  0.17012786909E+03  0.25971816499E+03  0.12500000000E+03 0.  0.
</event>
<event>
 5    0  0.5612316E-005  0.2732747E+03  0.7546771E-02  0.1099420E+00
         21   -1    0    0  502  501  0.00000000000E+00  0.00000000000E+00  0.69588061784E+03  0.69588061784E+03  0.00000000000E+00 0. -1.
         21   -1    0    0  501  502 -0.00000000000E+00 -0.00000000000E+00 -0.10731590958E+03  0.10731590958E+03  0.00000000000E+00 0. -1.
         25    1    1    2    0    0 -0.17041817257E+03 -0.83595571270E+01  0.21239871972E+03  0.29975064950E+03  0.12500000000E+03 0.  0.
         25    1    1    2    0    0  0.37745987751E+02 -0.38954738641E+02  0.99312948687E+02  0.16861284954E+03  0.12500000000E+03 0.  0.
         25    1    1    2    0    0  0.13267218482E+03  0.47314295768E+02  0.27685303985E+03  0.33483302836E+03  0.12500000000E+03 0.  0.
</event>
<event>
 5    0  0.5612316E-005  0.4457926E+03  0.7546771E-02  0.1028984E+00
         21   -1    0    0  502  501  0.00000000000E+00  0.00000000000E+00  0.15272559302E+03  0.15272559302E+03  0.00000000000E+00 0.  1.
         21   -1    0    0  501  502 -0.00000000000E+00 -0.00000000000E+00 -0.13012294455E+04  0.13012294455E+04  0.00000000000E+00 0.  1.
         25    1    1    2    0    0  0.15458506995E+03 -0.28345883653E+03 -0.34659619353E+03  0.48989731295E+03  0.12500000000E+03 0.  0.
         25    1    1    2    0    0 -0.16715291387E+03  0.17371774306E+03 -0.19414678043E+03  0.33382019594E+03  0.12500000000E+03 0.  0.
         25    1    1    2    0    0  0.12567843915E+02  0.10974109348E+03 -0.60776087853E+03  0.63023752964E+03  0.12500000000E+03 0.  0.
</event>
<event>
 5    0  0.5612316E-005  0.2830629E+03  0.7546771E-02  0.1094028E+00
         21   -1    0    0  502  501  0.00000000000E+00  0.00000000000E+00  0.19420484442E+03  0.19420484442E+03  0.00000000000E+00 0. -1.
         21   -1    0    0  501  502 -0.00000000000E+00 -0.00000000000E+00 -0.41257792271E+03  0.41257792271E+03  0.00000000000E+00 0. -1.
         25    1    1    2    0    0  0.54185680150E+02 -0.29690253374E+02 -0.81317828632E+02  0.16141619600E+03  0.12500000000E+03 0.  0.
         25    1    1    2    0    0 -0.18194826088E+03  0.37246772919E+02 -0.14425509734E+03  0.26632128124E+03  0.12500000000E+03 0.  0.
         25    1    1    2    0    0  0.12776258073E+03 -0.75565195447E+01  0.71998476826E+01  0.17904528988E+03  0.12500000000E+03 0.  0.
</event>
<event>
 5    0  0.5612316E-005  0.2252454E+03  0.7546771E-02  0.1130032E+00
         21   -1    0    0  502  501  0.00000000000E+00  0.00000000000E+00  0.34457136919E+03  0.34457136919E+03  0.00000000000E+00 0.  1.
         21   -1    0    0  501  502 -0.00000000000E+00 -0.00000000000E+00 -0.14724236878E+03  0.14724236878E+03  0.00000000000E+00 0.  1.
         25    1    1    2    0    0  0.28977289741E+02 -0.36633558680E+01  0.84148642311E+02  0.15348973093E+03  0.12500000000E+03 0.  0.
         25    1    1    2    0    0 -0.57427006533E+02 -0.69492018968E+02  0.11234909444E+03  0.19072053062E+03  0.12500000000E+03 0.  0.
         25    1    1    2    0    0  0.28449716792E+02  0.73155374836E+02  0.83126365476E+00  0.14760347642E+03  0.12500000000E+03 0.  0.
</event>
<event>
 5    0  0.5612316E-005  0.2474362E+03  0.7546771E-02  0.1114936E+00
         21   -1    0    0  502  501  0.00000000000E+00  0.00000000000E+00  0.11026786125E+03  0.11026786125E+03  0.00000000000E+00 0. -1.
         21   -1    0    0  501  502 -0.00000000000E+00 -0.00000000000E+00 -0.55523571341E+03  0.55523571341E+03  0.00000000000E+00 0. -1.
         25    1    1    2    0    0  0.29515560959E+02  0.16466766746E+02 -0.13817854470E+03  0.18936903907E+03  0.12500000000E+03 0.  0.
         25    1    1    2    0    0 -0.14569008904E+03 -0.18765881520E+02 -0.14938371016E+03  0.24396363093E+03  0.12500000000E+03 0.  0.
         25    1    1    2    0    0  0.11617452809E+03  0.22991147740E+01 -0.15740559731E+03  0.23217090465E+03  0.12500000000E+03 0.  0.
</event>
<event>
 5    0  0.5612316E-005  0.2829388E+03  0.7546771E-02  0.1094095E+00
         21   -1    0    0  502  501  0.00000000000E+00  0.00000000000E+00  0.59364939183E+02  0.59364939183E+02  0.00000000000E+00 0. -1.
         21   -1    0    0  501  502 -0.00000000000E+00 -0.00000000000E+00 -0.13485123433E+04  0.13485123433E+04  0.00000000000E+00 0. -1.
         25    1    1    2    0    0 -0.11145635889E+03  0.21713911939E+02 -0.25500465158E+03  0.30585353723E+03  0.12500000000E+03 0.  0.
         25    1    1    2    0    0  0.48577076495E+02  0.11875650581E+03 -0.56463884034E+03  0.59237223100E+03  0.12500000000E+03 0.  0.
         25    1    1    2    0    0  0.62879282394E+02 -0.14047041775E+03 -0.46950391218E+03  0.50965151424E+03  0.12500000000E+03 0.  0.
</event>
<event>
 5    0  0.5612316E-005  0.2443399E+03  0.7546771E-02  0.1116935E+00
         21   -1    0    0  502  501  0.00000000000E+00  0.00000000000E+00  0.52127290846E+02  0.52127290846E+02  0.00000000000E+00 0.  1.
         21   -1    0    0  501  502 -0.00000000000E+00 -0.00000000000E+00 -0.11453117313E+04  0.11453117313E+04  0.00000000000E+00 0.  1.
         25    1    1    2    0    0  0.12744744779E+03 -0.46430267205E+02 -0.49073833996E+03  0.52425922974E+03  0.12500000000E+03 0.  0.
         25    1    1    2    0    0 -0.43055981211E+02  0.64702510008E+02 -0.26560863210E+03  0.30366622757E+03  0.12500000000E+03 0.  0.
         25    1    1    2    0    0 -0.84391466574E+02 -0.18272242803E+02 -0.33683746840E+03  0.36951356485E+03  0.12500000000E+03 0.  0.
</event>
<event>
 5    0  0.5612316E-005  0.2254146E+03  0.7546771E-02  0.1129909E+00
         21   -1    0    0  502  501  0.00000000000E+00  0.00000000000E+00  0.48198479704E+02  0.48198479704E+02  0.00000000000E+00 0.  1.
         21   -1    0    0  501  502 -0.00000000000E+00 -0.00000000000E+00 -0.10542191835E+04  0.10542191835E+04  0.00000000000E+00 0.  1.
         25    1    1    2    0    0 -0.56670715023E+02  0.10095600082E+02 -0.53966422578E+03  0.55693443749E+03  0.12500000000E+03 0.  0.
         25    1    1    2    0    0  0.16374594130E+02 -0.54706103912E+02 -0.29169124906E+03  0.32244328171E+03  0.12500000000E+03 0.  0.
         25    1    1    2    0    0  0.40296120893E+02  0.44610503831E+02 -0.17466522892E+03  0.22303994396E+03  0.12500000000E+03 0.  0.
</event>
<event>
 5    0  0.5612316E-005  0.1972207E+03  0.7546771E-02  0.1152105E+00
         21   -1    0    0  502  501  0.00000000000E+00  0.00000000000E+00  0.15360070082E+03  0.15360070082E+03  0.00000000000E+00 0. -1.
         21   -1    0    0  501  502 -0.00000000000E+00 -0.00000000000E+00 -0.25322814095E+03  0.25322814095E+03  0.00000000000E+00 0. -1.
         25    1    1    2    0    0 -0.13905100642E+00  0.19913701188E+02 -0.44654378661E+02  0.13422216048E+03  0.12500000000E+03 0.  0.
         25    1    1    2    0    0  0.29315527691E+02  0.11798335078E+02  0.12288518649E+01  0.12893839983E+03  0.12500000000E+03 0.  0.
         25    1    1    2    0    0 -0.29176476685E+02 -0.31712036266E+02 -0.56201913330E+02  0.14366828146E+03  0.12500000000E+03 0.  0.
</event>
<event>
 5    0  0.5612316E-005  0.2532248E+03  0.7546771E-02  0.1111284E+00
         21   -1    0    0  502  501  0.00000000000E+00  0.00000000000E+00  0.83939180961E+02  0.83939180961E+02  0.00000000000E+00 0.  1.
         21   -1    0    0  501  502 -0.00000000000E+00 -0.00000000000E+00 -0.76391965966E+03  0.76391965966E+03  0.00000000000E+00 0.  1.
         25    1    1    2    0    0 -0.35471203815E+02 -0.54269023453E+02 -0.19376454281E+03  0.23952668172E+03  0.12500000000E+03 0.  0.
         25    1    1    2    0    0  0.67315776381E+02  0.52239461580E+02 -0.59531338902E+02  0.16257107802E+03  0.12500000000E+03 0.  0.
         25    1    1    2    0    0 -0.31844572566E+02  0.20295618738E+01 -0.42668459698E+03  0.44576108088E+03  0.12500000000E+03 0.  0.
</event>
<event>
 5    0  0.5612316E-005  0.2377470E+03  0.7546771E-02  0.1121303E+00
         21   -1    0    0  502  501  0.00000000000E+00  0.00000000000E+00  0.12355593991E+03  0.12355593991E+03  0.00000000000E+00 0. -1.
         21   -1    0    0  501  502 -0.00000000000E+00 -0.00000000000E+00 -0.45747410813E+03  0.45747410813E+03  0.00000000000E+00 0. -1.
         25    1    1    2    0    0 -0.55589828181E+02  0.73089125525E+01 -0.67716830848E+02  0.15282087024E+03  0.12500000000E+03 0.  0.
         25    1    1    2    0    0  0.11789532744E+03 -0.28131124765E+02 -0.21800133209E+03  0.27899865449E+03  0.12500000000E+03 0.  0.
         25    1    1    2    0    0 -0.62305499260E+02  0.20822212213E+02 -0.48200005287E+02  0.14921052332E+03  0.12500000000E+03 0.  0.
</event>
<event>
 5    0  0.5612316E-005  0.3405847E+03  0.7546771E-02  0.1066547E+00
         21   -1    0    0  502  501  0.00000000000E+00  0.00000000000E+00  0.10647987895E+03  0.10647987895E+03  0.00000000000E+00 0.  1.
         21   -1    0    0  501  502 -0.00000000000E+00 -0.00000000000E+00 -0.10893884714E+04  0.10893884714E+04  0.00000000000E+00 0.  1.
         25    1    1    2    0    0  0.13230872544E+03  0.12546337174E+03 -0.71419836543E+03  0.74763023057E+03  0.12500000000E+03 0.  0.
         25    1    1    2    0    0 -0.15273292115E+02  0.24613835625E+01 -0.17312237334E+03  0.21409270892E+03  0.12500000000E+03 0.  0.
         25    1    1    2    0    0 -0.11703543332E+03 -0.12792475530E+03 -0.95587853731E+02  0.23414541092E+03  0.12500000000E+03 0.  0.
</event>
<event>
 5    0  0.5612316E-005  0.2929965E+03  0.7546771E-02  0.1088795E+00
         21   -1    0    0  502  501  0.00000000000E+00  0.00000000000E+00  0.32833215913E+03  0.32833215913E+03  0.00000000000E+00 0. -1.
         21   -1    0    0  501  502 -0.00000000000E+00 -0.00000000000E+00 -0.26146376104E+03  0.26146376104E+03  0.00000000000E+00 0. -1.
         25    1    1    2    0    0 -0.18337630929E+03  0.24552695205E+02  0.32874470480E+02  0.22568880447E+03  0.12500000000E+03 0.  0.
         25    1    1    2    0    0  0.36386209887E+01  0.12973086115E+02  0.62078737313E+02  0.14021522796E+03  0.12500000000E+03 0.  0.
         25    1    1    2    0    0  0.17973768830E+03 -0.37525781320E+02 -0.28084809699E+02  0.22389188774E+03  0.12500000000E+03 0.  0.
</event>
<event>
 5    0  0.7186768E-005  0.5980655E+03  0.7546771E-02  0.9909428E-01
         21   -1    0    0  502  501  0.00000000000E+00  0.00000000000E+00  0.92820515169E+03  0.92820515169E+03  0.00000000000E+00 0.  1.
         21   -1    0    0  501  502 -0.00000000000E+00 -0.00000000000E+00 -0.38534835028E+03  0.38534835028E+03  0.00000000000E+00 0.  1.
         25    1    1    2    0    0 -0.78208708901E+02 -0.40083033467E+03  0.35144770891E+03  0.55310220704E+03  0.12500000000E+03 0.  0.
         25    1    1    2    0    0  0.20306214096E+03  0.40202634775E+03  0.29778617793E+03  0.55422109770E+03  0.12500000000E+03 0.  0.
         25    1    1    2    0    0 -0.12485343206E+03 -0.11960130802E+01 -0.10637708543E+03  0.20623019723E+03  0.12500000000E+03 0.  0.
</event>
<event>
 5    0  0.5612316E-005  0.5406514E+03  0.7546771E-02  0.1003681E+00
         21   -1    0    0  502  501  0.00000000000E+00  0.00000000000E+00  0.25470704849E+04  0.25470704849E+04  0.00000000000E+00 0. -1.
         21   -1    0    0  501  502 -0.00000000000E+00 -0.00000000000E+00 -0.11476083199E+03  0.11476083199E+03  0.00000000000E+00 0. -1.
         25    1    1    2    0    0  0.10703320741E+03  0.28834134284E+03  0.80583477239E+03  0.87154547665E+03  0.12500000000E+03 0.  0.
         25    1    1    2    0    0 -0.22253374844E+03 -0.10509462686E+03  0.14690870509E+04  0.14947936021E+04  0.12500000000E+03 0.  0.
         25    1    1    2    0    0  0.11550054103E+03 -0.18324671598E+03  0.15738782966E+03  0.29549223817E+03  0.12500000000E+03 0.  0.
</event>
<event>
 5    0  0.5612316E-005  0.2842711E+03  0.7546771E-02  0.1093379E+00
         21   -1    0    0  502  501  0.00000000000E+00  0.00000000000E+00  0.11317910600E+03  0.11317910600E+03  0.00000000000E+00 0.  1.
         21   -1    0    0  501  502 -0.00000000000E+00 -0.00000000000E+00 -0.71400149864E+03  0.71400149864E+03  0.00000000000E+00 0.  1.
         25    1    1    2    0    0  0.39855158395E+02  0.43571550236E+02 -0.60199286313E+02  0.15078417594E+03  0.12500000000E+03 0.  0.
         25    1    1    2    0    0 -0.20239982954E+01 -0.17478755248E+03 -0.34972241283E+03  0.41046991499E+03  0.12500000000E+03 0.  0.
         25    1    1    2    0    0 -0.37831160099E+02  0.13121600225E+03 -0.19090069350E+03  0.26592651372E+03  0.12500000000E+03 0.  0.
</event>
<event>
 5    0  0.5612316E-005  0.2089511E+03  0.7546771E-02  0.1142399E+00
         21   -1    0    0  502  501  0.00000000000E+00  0.00000000000E+00  0.13839889557E+03  0.13839889557E+03  0.00000000000E+00 0. -1.
         21   -1    0    0  501  502 -0.00000000000E+00 -0.00000000000E+00 -0.31546900675E+03  0.31546900675E+03  0.00000000000E+00 0. -1.
         25    1    1    2    0    0  0.19048526513E+02 -0.20938194935E+02 -0.48260960229E+02  0.13695026342E+03  0.12500000000E+03 0.  0.
         25    1    1    2    0    0  0.98817050506E+01  0.75793090881E+02 -0.90508981158E+02  0.17221822317E+03  0.12500000000E+03 0.  0.
         25    1    1    2    0    0 -0.28930231564E+02 -0.54854895947E+02 -0.38300169795E+02  0.14469941573E+03  0.12500000000E+03 0.  0.
</event>
<event>
 5    0  0.5612316E-005  0.3659182E+03  0.7546771E-02  0.1056265E+00
         21   -1    0    0  502  501  0.00000000000E+00  0.00000000000E+00  0.11874203657E+03  0.11874203657E+03  0.00000000000E+00 0.  1.
         21   -1    0    0  501  502 -0.00000000000E+00 -0.00000000000E+00 -0.11276222334E+04  0.11276222334E+04  0.00000000000E+00 0.  1.
         25    1    1    2    0    0 -0.15366985509E+03  0.11775760573E+03 -0.29441595327E+03  0.37388103939E+03  0.12500000000E+03 0.  0.
         25    1    1    2    0    0  0.53980772865E+02  0.11130074365E+03 -0.46802525407E+03  0.49997441717E+03  0.12500000000E+03 0.  0.
         25    1    1    2    0    0  0.99689082225E+02 -0.22905834938E+03 -0.24643898953E+03  0.37250881344E+03  0.12500000000E+03 0.  0.
</event>
<event>
 5    0  0.5612316E-005  0.4016735E+03  0.7546771E-02  0.1043202E+00
         21   -1    0    0  502  501  0.00000000000E+00  0.00000000000E+00  0.28155176822E+03  0.28155176822E+03  0.00000000000E+00 0.  1.
         21   -1    0    0  501  502 -0.00000000000E+00 -0.00000000000E+00 -0.57304425594E+03  0.57304425594E+03  0.00000000000E+00 0.  1.
         25    1    1    2    0    0 -0.73983878008E+02  0.26232712001E+03 -0.57313013470E+02  0.30528497115E+03  0.12500000000E+03 0.  0.
         25    1    1    2    0    0 -0.12198528568E+03 -0.17785605488E+03 -0.12714979160E+03  0.27983076258E+03  0.12500000000E+03 0.  0.
         25    1    1    2    0    0  0.19596916369E+03 -0.84471065129E+02 -0.10702968266E+03  0.26948029043E+03  0.12500000000E+03 0.  0.
</event>
<event>
 5    0  0.5612316E-005  0.4089136E+03  0.7546771E-02  0.1040736E+00
         21   -1    0    0  502  501  0.00000000000E+00  0.00000000000E+00  0.98464102748E+02  0.98464102748E+02  0.00000000000E+00 0.  1.
         21   -1    0    0  501  502 -0.00000000000E+00 -0.00000000000E+00 -0.16981858319E+04  0.16981858319E+04  0.00000000000E+00 0.  1.
         25    1    1    2    0    0  0.23633868558E+03 -0.93026324537E+02 -0.10401471051E+04  0.10779799959E+04  0.12500000000E+03 0.  0.
         25    1    1    2    0    0 -0.17257224774E+02 -0.34632417814E+02 -0.32831759801E+03  0.35343268289E+03  0.12500000000E+03 0.  0.
         25    1    1    2    0    0 -0.21908146080E+03  0.12765874235E+03 -0.23125702607E+03  0.36523725587E+03  0.12500000000E+03 0.  0.
</event>
<event>
 5    0  0.5612316E-005  0.2811502E+03  0.7546771E-02  0.1095062E+00
         21   -1    0    0  502  501  0.00000000000E+00  0.00000000000E+00  0.12234555996E+03  0.12234555996E+03  0.00000000000E+00 0.  1.
         21   -1    0    0  501  502 -0.00000000000E+00 -0.00000000000E+00 -0.64608352207E+03  0.64608352207E+03  0.00000000000E+00 0.  1.
         25    1    1    2    0    0  0.15328483251E+02 -0.71932394841E+02 -0.99908927893E+02  0.17611367266E+03  0.12500000000E+03 0.  0.
         25    1    1    2    0    0 -0.43759559558E+02 -0.12039388601E+03 -0.22440706319E+03  0.28704201234E+03  0.12500000000E+03 0.  0.
         25    1    1    2    0    0  0.28431076307E+02  0.19232628085E+03 -0.19942197103E+03  0.30527339703E+03  0.12500000000E+03 0.  0.
</event>
<event>
 5    0  0.5612316E-005  0.3086929E+03  0.7546771E-02  0.1080974E+00
         21   -1    0    0  502  501  0.00000000000E+00  0.00000000000E+00  0.90581532266E+02  0.90581532266E+02  0.00000000000E+00 0. -1.
         21   -1    0    0  501  502 -0.00000000000E+00 -0.00000000000E+00 -0.10519951527E+04  0.10519951527E+04  0.00000000000E+00 0. -1.
         25    1    1    2    0    0  0.17009040009E+02 -0.13473193126E+03 -0.11306931301E+03  0.21645246658E+03  0.12500000000E+03 0.  0.
         25    1    1    2    0    0 -0.10459997990E+03  0.16468801314E+02 -0.52019847403E+03  0.54538411198E+03  0.12500000000E+03 0.  0.
         25    1    1    2    0    0  0.87590939889E+02  0.11826312995E+03 -0.32814583335E+03  0.38074010637E+03  0.12500000000E+03 0.  0.
</event>
<event>
 5    0  0.5612316E-005  0.2841966E+03  0.7546771E-02  0.1093419E+00
         21   -1    0    0  502  501  0.00000000000E+00  0.00000000000E+00  0.92486682709E+03  0.92486682709E+03  0.00000000000E+00 0. -1.
         21   -1    0    0  501  502 -0.00000000000E+00 -0.00000000000E+00 -0.87329002678E+02  0.87329002678E+02  0.00000000000E+00 0. -1.
         25    1    1    2    0    0  0.78122811846E+02  0.15451702260E+03  0.36014399663E+03  0.41869724421E+03  0.12500000000E+03 0.  0.
         25    1    1    2    0    0  0.47075107906E+02 -0.76577205036E+02  0.26350702352E+03  0.30519024486E+03  0.12500000000E+03 0.  0.
         25    1    1    2    0    0 -0.12519791975E+03 -0.77939817568E+02  0.21388680426E+03  0.28830834069E+03  0.12500000000E+03 0.  0.
</event>
<event>
 5    0  0.5612316E-005  0.4225019E+03  0.7546771E-02  0.1036255E+00
         21   -1    0    0  502  501  0.00000000000E+00  0.00000000000E+00  0.11835146577E+03  0.11835146577E+03  0.00000000000E+00 0. -1.
         21   -1    0    0  501  502 -0.00000000000E+00 -0.00000000000E+00 -0.15082861877E+04  0.15082861877E+04  0.00000000000E+00 0. -1.
         25    1    1    2    0    0 -0.41781407574E+02 -0.13782161150E+02 -0.48059198200E+03  0.49852711776E+03  0.12500000000E+03 0.  0.
         25    1    1    2    0    0 -0.27086706838E+03  0.71050337888E+02 -0.56647907203E+03  0.64415887660E+03  0.12500000000E+03 0.  0.
         25    1    1    2    0    0  0.31264847596E+03 -0.57268176737E+02 -0.34286366789E+03  0.48395165910E+03  0.12500000000E+03 0.  0.
</event>
<event>
 5    0  0.5612316E-005  0.3849345E+03  0.7546771E-02  0.1049125E+00
         21   -1    0    0  502  501  0.00000000000E+00  0.00000000000E+00  0.84732370808E+03  0.84732370808E+03  0.00000000000E+00 0.  1.
         21   -1    0    0  501  502 -0.00000000000E+00 -0.00000000000E+00 -0.17487363604E+03  0.17487363604E+03  0.00000000000E+00 0.  1.
         25    1    1    2    0    0  0.39712367944E+02  0.22896722181E+03  0.20707144534E+03  0.33542010123E+03  0.12500000000E+03 0.  0.
         25    1    1    2    0    0 -0.18038700348E+03 -0.42431691265E+02  0.30113942057E+03  0.37503315862E+03  0.12500000000E+03 0.  0.
         25    1    1    2    0    0  0.14067463554E+03 -0.18653553055E+03  0.16423920613E+03  0.31174408426E+03  0.12500000000E+03 0.  0.
</event>
<event>
 5    0  0.5612316E-005  0.2614409E+03  0.7546771E-02  0.1106281E+00
         21   -1    0    0  502  501  0.00000000000E+00  0.00000000000E+00  0.40245199766E+03  0.40245199766E+03  0.00000000000E+00 0. -1.
         21   -1    0    0  501  502 -0.00000000000E+00 -0.00000000000E+00 -0.16983720650E+03  0.16983720650E+03  0.00000000000E+00 0. -1.
         25    1    1    2    0    0  0.38615767984E+02  0.86764408701E+02  0.78786755742E+02  0.17564621554E+03  0.12500000000E+03 0.  0.
         25    1    1    2    0    0  0.21809038527E+02 -0.45879838191E+02 -0.52357078901E+02  0.14473029201E+03  0.12500000000E+03 0.  0.
         25    1    1    2    0    0 -0.60424806511E+02 -0.40884570510E+02  0.20618511432E+03  0.25191269661E+03  0.12500000000E+03 0.  0.
</event>
<event>
 5    0  0.5612316E-005  0.3823912E+03  0.7546771E-02  0.1050053E+00
         21   -1    0    0  502  501  0.00000000000E+00  0.00000000000E+00  0.56618414746E+03  0.56618414746E+03  0.00000000000E+00 0.  1.
         21   -1    0    0  501  502 -0.00000000000E+00 -0.00000000000E+00 -0.25826050566E+03  0.25826050566E+03  0.00000000000E+00 0.  1.
         25    1    1    2    0    0  0.68398023521E+02 -0.20887459297E+03  0.12492812960E+03  0.28202645758E+03  0.12500000000E+03 0.  0.
         25    1    1    2    0    0  0.97001534869E+01  0.29625632901E+03  0.18492868955E+03  0.37106000280E+03  0.12500000000E+03 0.  0.
         25    1    1    2    0    0 -0.78098177007E+02 -0.87381736043E+02 -0.19331773338E+01  0.17135819274E+03  0.12500000000E+03 0.  0.
</event>
<event>
 5    0  0.5612316E-005  0.3319144E+03  0.7546771E-02  0.1070293E+00
         21   -1    0    0  502  501  0.00000000000E+00  0.00000000000E+00  0.78387516180E+03  0.78387516180E+03  0.00000000000E+00 0.  1.
         21   -1    0    0  501  502 -0.00000000000E+00 -0.00000000000E+00 -0.14054168903E+03  0.14054168903E+03  0.00000000000E+00 0.  1.
         25    1    1    2    0    0  0.34301349093E+02 -0.29979804572E+02  0.27173505472E+02  0.13578943490E+03  0.12500000000E+03 0.  0.
         25    1    1    2    0    0 -0.47491052605E+02  0.88631079596E+02  0.62918307336E+03  0.64931287385E+03  0.12500000000E+03 0.  0.
         25    1    1    2    0    0  0.13189703511E+02 -0.58651275024E+02 -0.13023106059E+02  0.13931454207E+03  0.12500000000E+03 0.  0.
</event>
<event>
 5    0  0.5612316E-005  0.3620056E+03  0.7546771E-02  0.1057793E+00
         21   -1    0    0  502  501  0.00000000000E+00  0.00000000000E+00  0.99799010981E+03  0.99799010981E+03  0.00000000000E+00 0.  1.
         21   -1    0    0  501  502 -0.00000000000E+00 -0.00000000000E+00 -0.13131195822E+03  0.13131195822E+03  0.00000000000E+00 0.  1.
         25    1    1    2    0    0 -0.72099233597E+02  0.15683153965E+02 -0.18991740238E+02  0.14638970934E+03  0.12500000000E+03 0.  0.
         25    1    1    2    0    0 -0.49253763189E+02 -0.10277469856E+03  0.67554272920E+03  0.69639898824E+03  0.12500000000E+03 0.  0.
         25    1    1    2    0    0  0.12135299679E+03  0.87091544591E+02  0.21012716263E+03  0.28651337045E+03  0.12500000000E+03 0.  0.
</event>
<event>
 5    0  0.5730220E-005  0.3250192E+03  0.7546771E-02  0.1073362E+00
         21   -1    0    0  502  501  0.00000000000E+00  0.00000000000E+00  0.48130339923E+03  0.48130339923E+03  0.00000000000E+00 0. -1.
         21   -1    0    0  501  502 -0.00000000000E+00 -0.00000000000E+00 -0.21948210312E+03  0.21948210312E+03  0.00000000000E+00 0. -1.
         25    1    1    2    0    0 -0.17290991511E+03 -0.68944312510E+02  0.67077722654E+02  0.23404182927E+03  0.12500000000E+03 0.  0.
         25    1    1    2    0    0  0.13254486590E+03 -0.89108853822E+02  0.33579345467E+02  0.20557505137E+03  0.12500000000E+03 0.  0.
         25    1    1    2    0    0  0.40365049212E+02  0.15805316633E+03  0.16116422798E+03  0.26116862171E+03  0.12500000000E+03 0.  0.
</event>
<event>
 5    0  0.5612316E-005  0.5569617E+03  0.7546771E-02  0.9998953E-01
         21   -1    0    0  502  501  0.00000000000E+00  0.00000000000E+00  0.33307552706E+03  0.33307552706E+03  0.00000000000E+00 0.  1.
         21   -1    0    0  501  502 -0.00000000000E+00 -0.00000000000E+00 -0.93133939915E+03  0.93133939915E+03  0.00000000000E+00 0.  1.
         25    1    1    2    0    0  0.14456439950E+02 -0.15153099122E+02  0.17527432685E+03  0.21629769930E+03  0.12500000000E+03 0.  0.
         25    1    1    2    0    0  0.88190352262E+02  0.31767927650E+02  0.82560700063E+02  0.17671448343E+03  0.12500000000E+03 0.  0.
         25    1    1    2    0    0 -0.10264679221E+03 -0.16614828528E+02 -0.85609889900E+03  0.87140274348E+03  0.12500000000E+03 0.  0.
</event>
<event>
 5    0  0.5612316E-005  0.3097615E+03  0.7546771E-02  0.1080460E+00
         21   -1    0    0  502  501  0.00000000000E+00  0.00000000000E+00  0.51683630951E+03  0.51683630951E+03  0.00000000000E+00 0. -1.
         21   -1    0    0  501  502 -0.00000000000E+00 -0.00000000000E+00 -0.18565295070E+03  0.18565295070E+03  0.00000000000E+00 0. -1.
         25    1    1    2    0    0 -0.18696405936E+02 -0.68622353267E+01  0.58006783085E+02  0.13923517067E+03  0.12500000000E+03 0.  0.
         25    1    1    2    0    0  0.18627399277E+03  0.73676387463E+02  0.24785165336E+03  0.34231805755E+03  0.12500000000E+03 0.  0.
         25    1    1    2    0    0 -0.16757758683E+03 -0.66814152136E+02  0.25324922360E+02  0.22093603198E+03  0.12500000000E+03 0.  0.
</event>
<event>
 5    0  0.5612316E-005  0.2400784E+03  0.7546771E-02  0.1119741E+00
         21   -1    0    0  502  501  0.00000000000E+00  0.00000000000E+00  0.37474748284E+03  0.37474748284E+03  0.00000000000E+00 0. -1.
         21   -1    0    0  501  502 -0.00000000000E+00 -0.00000000000E+00 -0.15380387767E+03  0.15380387767E+03  0.00000000000E+00 0. -1.
         25    1    1    2    0    0 -0.10276527686E+02 -0.97538407232E+02  0.18187326993E+03  0.24149996733E+03  0.12500000000E+03 0.  0.
         25    1    1    2    0    0  0.15236675078E+02  0.51452433010E+02 -0.26330769304E+02  0.13855619272E+03  0.12500000000E+03 0.  0.
         25    1    1    2    0    0 -0.49601473917E+01  0.46085974222E+02  0.65401104544E+02  0.14849520045E+03  0.12500000000E+03 0.  0.
</event>
<event>
 5    0  0.5612316E-005  0.2610275E+03  0.7546771E-02  0.1106527E+00
         21   -1    0    0  502  501  0.00000000000E+00  0.00000000000E+00  0.85580625142E+02  0.85580625142E+02  0.00000000000E+00 0. -1.
         21   -1    0    0  501  502 -0.00000000000E+00 -0.00000000000E+00 -0.79615423258E+03  0.79615423258E+03  0.00000000000E+00 0. -1.
         25    1    1    2    0    0 -0.98305221535E+02 -0.77426335078E+02 -0.13484441674E+03  0.22241126471E+03  0.12500000000E+03 0.  0.
         25    1    1    2    0    0  0.11392755290E+03  0.91405281147E+02 -0.38484790273E+03  0.43019451527E+03  0.12500000000E+03 0.  0.
         25    1    1    2    0    0 -0.15622331362E+02 -0.13978946069E+02 -0.19088128797E+03  0.22912907774E+03  0.12500000000E+03 0.  0.
</event>
<event>
 5    0  0.5612316E-005  0.4034134E+03  0.7546771E-02  0.1042604E+00
         21   -1    0    0  502  501  0.00000000000E+00  0.00000000000E+00  0.10481558338E+04  0.10481558338E+04  0.00000000000E+00 0. -1.
         21   -1    0    0  501  502 -0.00000000000E+00 -0.00000000000E+00 -0.15526544778E+03  0.15526544778E+03  0.00000000000E+00 0.  1.
         25    1    1    2    0    0  0.19448222190E+02  0.29285658450E+03  0.23225301228E+03  0.39460065147E+03  0.12500000000E+03 0.  0.
         25    1    1    2    0    0  0.51729390180E+02 -0.17625497518E+03  0.15654728534E+03  0.27179734846E+03  0.12500000000E+03 0.  0.
         25    1    1    2    0    0 -0.71177612370E+02 -0.11660160932E+03  0.50409008838E+03  0.53702328162E+03  0.12500000000E+03 0.  0.
</event>
<event>
 5    0  0.5612316E-005  0.3912580E+03  0.7546771E-02  0.1046849E+00
         21   -1    0    0  502  501  0.00000000000E+00  0.00000000000E+00  0.14187367919E+03  0.14187367919E+03  0.00000000000E+00 0. -1.
         21   -1    0    0  501  502 -0.00000000000E+00 -0.00000000000E+00 -0.10790081420E+04  0.10790081420E+04  0.00000000000E+00 0. -1.
         25    1    1    2    0    0 -0.20310823468E+03 -0.10340323423E+03 -0.12170781295E+03  0.28702434666E+03  0.12500000000E+03 0.  0.
         25    1    1    2    0    0  0.18697792718E+03 -0.72616459298E+02 -0.37833709588E+03  0.44609175461E+03  0.12500000000E+03 0.  0.
         25    1    1    2    0    0  0.16130307503E+02  0.17601969353E+03 -0.43708955393E+03  0.48776571988E+03  0.12500000000E+03 0.  0.
</event>
<event>
 5    0  0.5612316E-005  0.3217180E+03  0.7546771E-02  0.1074861E+00
         21   -1    0    0  502  501  0.00000000000E+00  0.00000000000E+00  0.16150065378E+03  0.16150065378E+03  0.00000000000E+00 0.  1.
         21   -1    0    0  501  502 -0.00000000000E+00 -0.00000000000E+00 -0.64087956613E+03  0.64087956613E+03  0.00000000000E+00 0.  1.
         25    1    1    2    0    0 -0.13192244938E+03  0.20781025736E+02 -0.15517861571E+03  0.23987660673E+03  0.12500000000E+03 0.  0.
         25    1    1    2    0    0 -0.43006409028E+02 -0.11711123079E+03 -0.19990894794E+02  0.17773358565E+03  0.12500000000E+03 0.  0.
         25    1    1    2    0    0  0.17492885841E+03  0.96330205056E+02 -0.30420940185E+03  0.38477002752E+03  0.12500000000E+03 0.  0.
</event>
<event>
 5    0  0.5612316E-005  0.2743787E+03  0.7546771E-02  0.1098799E+00
         21   -1    0    0  502  501  0.00000000000E+00  0.00000000000E+00  0.29718658258E+03  0.29718658258E+03  0.00000000000E+00 0. -1.
         21   -1    0    0  501  502 -0.00000000000E+00 -0.00000000000E+00 -0.25332114715E+03  0.25332114715E+03  0.00000000000E+00 0. -1.
         25    1    1    2    0    0  0.12072071319E+03 -0.45424228300E+02 -0.57117240416E+02  0.18847872629E+03  0.12500000000E+03 0.  0.
         25    1    1    2    0    0 -0.13971252894E+03  0.78758120089E+02  0.11655613254E+02  0.20367445972E+03  0.12500000000E+03 0.  0.
         25    1    1    2    0    0  0.18991815746E+02 -0.33333891789E+02  0.89327062595E+02  0.15835454373E+03  0.12500000000E+03 0.  0.
</event>
<event>
 5    0  0.5612316E-005  0.3598671E+03  0.7546771E-02  0.1058636E+00
         21   -1    0    0  502  501  0.00000000000E+00  0.00000000000E+00  0.15013181933E+03  0.15013181933E+03  0.00000000000E+00 0. -1.
         21   -1    0    0  501  502 -0.00000000000E+00 -0.00000000000E+00 -0.86260427071E+03  0.86260427071E+03  0.00000000000E+00 0. -1.
         25    1    1    2    0    0  0.39115303629E+02 -0.21986339369E+03 -0.27093396099E+03  0.37269307759E+03  0.12500000000E+03 0.  0.
         25    1    1    2    0    0 -0.67516142921E+02  0.27237328103E+03 -0.21663038566E+03  0.37589806831E+03  0.12500000000E+03 0.  0.
         25    1    1    2    0    0  0.28400839292E+02 -0.52509887340E+02 -0.22490810473E+03  0.26414494414E+03  0.12500000000E+03 0.  0.
</event>
<event>
 5    0  0.5612316E-005  0.2999895E+03  0.7546771E-02  0.1085246E+00
         21   -1    0    0  502  501  0.00000000000E+00  0.00000000000E+00  0.85761587113E+03  0.85761587113E+03  0.00000000000E+00 0.  1.
         21   -1    0    0  501  502 -0.00000000000E+00 -0.00000000000E+00 -0.10493471980E+03  0.10493471980E+03  0.00000000000E+00 0.  1.
         25    1    1    2    0    0  0.21841543332E+03  0.23385222877E+02  0.31409081217E+03  0.40315035464E+03  0.12500000000E+03 0.  0.
         25    1    1    2    0    0 -0.15800228830E+03 -0.42183850490E+02  0.28430571098E+03  0.35099706216E+03  0.12500000000E+03 0.  0.
         25    1    1    2    0    0 -0.60413145021E+02  0.18798627612E+02  0.15428462818E+03  0.20840317412E+03  0.12500000000E+03 0.  0.
</event>
<event>
 5    0  0.5612316E-005  0.2782798E+03  0.7546771E-02  0.1096632E+00
         21   -1    0    0  502  501  0.00000000000E+00  0.00000000000E+00  0.79186176311E+03  0.79186176311E+03  0.00000000000E+00 0.  1.
         21   -1    0    0  501  502 -0.00000000000E+00 -0.00000000000E+00 -0.97794392801E+02  0.97794392801E+02  0.00000000000E+00 0.  1.
         25    1    1    2    0    0 -0.58691265284E+02 -0.17198577061E+02  0.12916045381E+03  0.18986278862E+03  0.12500000000E+03 0.  0.
         25    1    1    2    0    0 -0.73156775703E+02  0.13124427809E+03  0.22703889521E+03  0.29958076424E+03  0.12500000000E+03 0.  0.
         25    1    1    2    0    0  0.13184804099E+03 -0.11404570103E+03  0.33786802128E+03  0.40021260305E+03  0.12500000000E+03 0.  0.
</event>
<event>
 5    0  0.6166033E-005  0.3222779E+03  0.7546771E-02  0.1074606E+00
         21   -1    0    0  502  501  0.00000000000E+00  0.00000000000E+00  0.13602912281E+03  0.13602912281E+03  0.00000000000E+00 0. -1.
         21   -1    0    0  501  502 -0.00000000000E+00 -0.00000000000E+00 -0.76353542018E+03  0.76353542018E+03  0.00000000000E+00 0. -1.
         25    1    1    2    0    0 -0.87738620102E+02 -0.84748763864E+02 -0.30230633658E+03  0.34913398513E+03  0.12500000000E+03 0.  0.
         25    1    1    2    0    0  0.74531525750E+02 -0.88954225727E+02 -0.12156309441E+02  0.17099876744E+03  0.12500000000E+03 0.  0.
         25    1    1    2    0    0  0.13207094352E+02  0.17370298959E+03 -0.31304365135E+03  0.37943179042E+03  0.12500000000E+03 0.  0.
</event>
<event>
 5    0  0.5612316E-005  0.3299807E+03  0.7546771E-02  0.1071145E+00
         21   -1    0    0  502  501  0.00000000000E+00  0.00000000000E+00  0.50676325193E+03  0.50676325193E+03  0.00000000000E+00 0.  1.
         21   -1    0    0  501  502 -0.00000000000E+00 -0.00000000000E+00 -0.21486816967E+03  0.21486816967E+03  0.00000000000E+00 0.  1.
         25    1    1    2    0    0  0.19432870458E+03  0.10258574268E+03  0.12107067025E+03  0.28030445451E+03  0.12500000000E+03 0.  0.
         25    1    1    2    0    0 -0.39303091068E+02  0.94876998741E+01  0.16738831757E+03  0.21278768356E+03  0.12500000000E+03 0.  0.
         25    1    1    2    0    0 -0.15502561351E+03 -0.11207344256E+03  0.34360944359E+01  0.22853928353E+03  0.12500000000E+03 0.  0.
</event>
<event>
 5    0  0.5612316E-005  0.3332216E+03  0.7546771E-02  0.1069720E+00
         21   -1    0    0  502  501  0.00000000000E+00  0.00000000000E+00  0.15101055348E+04  0.15101055348E+04  0.00000000000E+00 0.  1.
         21   -1    0    0  501  502 -0.00000000000E+00 -0.00000000000E+00 -0.73529053240E+02  0.73529053240E+02  0.00000000000E+00 0. -1.
         25    1    1    2    0    0  0.56703945848E+02 -0.22893782553E+02  0.41359838233E+03  0.43638066481E+03  0.12500000000E+03 0.  0.
         25    1    1    2    0    0 -0.24368123503E+03  0.61051112860E+02  0.44731876802E+03  0.52804058832E+03  0.12500000000E+03 0.  0.
         25    1    1    2    0    0  0.18697728918E+03 -0.38157330307E+02  0.57565933119E+03  0.61921333489E+03  0.12500000000E+03 0.  0.
</event>
<event>
 5    0  0.5734221E-005  0.5846866E+03  0.7546771E-02  0.9937696E-01
         21   -1    0    0  502  501  0.00000000000E+00  0.00000000000E+00  0.22564522714E+03  0.22564522714E+03  0.00000000000E+00 0.  1.
         21   -1    0    0  501  502 -0.00000000000E+00 -0.00000000000E+00 -0.15150261319E+04  0.15150261319E+04  0.00000000000E+00 0.  1.
         25    1    1    2    0    0 -0.18073550599E+03  0.18593394229E+03 -0.10770872941E+03  0.30734821362E+03  0.12500000000E+03 0.  0.
         25    1    1    2    0    0 -0.21177531358E+03 -0.14847138244E+03 -0.86772991391E+03  0.91404197843E+03  0.12500000000E+03 0.  0.
         25    1    1    2    0    0  0.39251081957E+03 -0.37462559846E+02 -0.31394226146E+03  0.51928116700E+03  0.12500000000E+03 0.  0.
</event>
<event>
 5    0  0.5612316E-005  0.3438136E+03  0.7546771E-02  0.1065183E+00
         21   -1    0    0  502  501  0.00000000000E+00  0.00000000000E+00  0.16747325189E+04  0.16747325189E+04  0.00000000000E+00 0. -1.
         21   -1    0    0  501  502 -0.00000000000E+00 -0.00000000000E+00 -0.70583074772E+02  0.70583074772E+02  0.00000000000E+00 0. -1.
         25    1    1    2    0    0 -0.18930327997E+03 -0.41786938454E+02  0.27529176912E+03  0.35915517284E+03  0.12500000000E+03 0.  0.
         25    1    1    2    0    0  0.10403974292E+03 -0.20494286513E+02  0.10509778612E+04  0.10636840455E+04  0.12500000000E+03 0.  0.
         25    1    1    2    0    0  0.85263537051E+02  0.62281224967E+02  0.27787981379E+03  0.32247637533E+03  0.12500000000E+03 0.  0.
</event>
<event>
 5    0  0.5612316E-005  0.3110102E+03  0.7546771E-02  0.1079863E+00
         21   -1    0    0  502  501  0.00000000000E+00  0.00000000000E+00  0.16454467349E+03  0.16454467349E+03  0.00000000000E+00 0.  1.
         21   -1    0    0  501  502 -0.00000000000E+00 -0.00000000000E+00 -0.58784850474E+03  0.58784850474E+03  0.00000000000E+00 0.  1.
         25    1    1    2    0    0 -0.79775928615E+02 -0.19105846783E+03 -0.24043586176E+03  0.34103070322E+03  0.12500000000E+03 0.  0.
         25    1    1    2    0    0  0.65074033967E+02  0.13513305034E+03 -0.17316368247E+02  0.19601129508E+03  0.12500000000E+03 0.  0.
         25    1    1    2    0    0  0.14701894648E+02  0.55925417488E+02 -0.16555160124E+03  0.21535117994E+03  0.12500000000E+03 0.  0.
</event>
<event>
 5    0  0.7650631E-005  0.4714833E+03  0.7546771E-02  0.1021502E+00
         21   -1    0    0  502  501  0.00000000000E+00  0.00000000000E+00  0.77638012989E+03  0.77638012989E+03  0.00000000000E+00 0. -1.
         21   -1    0    0  501  502 -0.00000000000E+00 -0.00000000000E+00 -0.28632432364E+03  0.28632432364E+03  0.00000000000E+00 0. -1.
         25    1    1    2    0    0 -0.19809518651E+02 -0.23563259092E+02 -0.15051291746E+03  0.19805752329E+03  0.12500000000E+03 0.  0.
         25    1    1    2    0    0  0.51798094059E+02 -0.24644005957E+03  0.29483502568E+03  0.40739224081E+03  0.12500000000E+03 0.  0.
         25    1    1    2    0    0 -0.31988575408E+02  0.27000331866E+03  0.34573369803E+03  0.45725468942E+03  0.12500000000E+03 0.  0.
</event>
<event>
 5    0  0.5612316E-005  0.2709613E+03  0.7546771E-02  0.1100731E+00
         21   -1    0    0  502  501  0.00000000000E+00  0.00000000000E+00  0.82030852961E+03  0.82030852961E+03  0.00000000000E+00 0.  1.
         21   -1    0    0  501  502 -0.00000000000E+00 -0.00000000000E+00 -0.89502973721E+02  0.89502973721E+02  0.00000000000E+00 0.  1.
         25    1    1    2    0    0 -0.54931044824E+02 -0.36260345123E+01  0.39996614183E+03  0.42264462899E+03  0.12500000000E+03 0.  0.
         25    1    1    2    0    0  0.79577783228E+02  0.65262390192E+02  0.44755859927E+02  0.16798776787E+03  0.12500000000E+03 0.  0.
         25    1    1    2    0    0 -0.24646738405E+02 -0.61636355680E+02  0.28608355414E+03  0.31917910647E+03  0.12500000000E+03 0.  0.
</event>
<event>
 5    0  0.5612316E-005  0.1963462E+03  0.7546771E-02  0.1152859E+00
         21   -1    0    0  502  501  0.00000000000E+00  0.00000000000E+00  0.94210311547E+02  0.94210311547E+02  0.00000000000E+00 0.  1.
         21   -1    0    0  501  502 -0.00000000000E+00 -0.00000000000E+00 -0.40921024206E+03  0.40921024206E+03  0.00000000000E+00 0.  1.
         25    1    1    2    0    0  0.16057186800E+01 -0.30558695927E+01 -0.15647080494E+03  0.20029984890E+03  0.12500000000E+03 0.  0.
         25    1    1    2    0    0 -0.55942573937E+01 -0.29919022278E+02 -0.70931329286E+02  0.14691050706E+03  0.12500000000E+03 0.  0.
         25    1    1    2    0    0  0.39885387136E+01  0.32974891871E+02 -0.87597796287E+02  0.15621019765E+03  0.12500000000E+03 0.  0.
</event>
<event>
 5    0  0.5612316E-005  0.2941949E+03  0.7546771E-02  0.1088179E+00
         21   -1    0    0  502  501  0.00000000000E+00  0.00000000000E+00  0.46069875167E+02  0.46069875167E+02  0.00000000000E+00 0. -1.
         21   -1    0    0  501  502 -0.00000000000E+00 -0.00000000000E+00 -0.18786822319E+04  0.18786822319E+04  0.00000000000E+00 0. -1.
         25    1    1    2    0    0  0.47221254259E+02 -0.13091655582E+03 -0.40028917535E+03  0.44184320222E+03  0.12500000000E+03 0.  0.
         25    1    1    2    0    0 -0.74759302748E+02  0.17163353106E+03 -0.62094525734E+03  0.66048848207E+03  0.12500000000E+03 0.  0.
         25    1    1    2    0    0  0.27538048489E+02 -0.40716975239E+02 -0.81137792406E+03  0.82242042280E+03  0.12500000000E+03 0.  0.
</event>
<event>
 5    0  0.6308148E-005  0.3276095E+03  0.7546771E-02  0.1072199E+00
         21   -1    0    0  502  501  0.00000000000E+00  0.00000000000E+00  0.19519016529E+03  0.19519016529E+03  0.00000000000E+00 0. -1.
         21   -1    0    0  501  502 -0.00000000000E+00 -0.00000000000E+00 -0.54986384677E+03  0.54986384677E+03  0.00000000000E+00 0. -1.
         25    1    1    2    0    0 -0.68812142664E+02  0.22727805843E+03 -0.13335197687E+03  0.29966343880E+03  0.12500000000E+03 0.  0.
         25    1    1    2    0    0  0.54175964359E+01 -0.16091668389E+03 -0.20560951844E+03  0.28952340765E+03  0.12500000000E+03 0.  0.
         25    1    1    2    0    0  0.63394546228E+02 -0.66361374541E+02 -0.15712186170E+02  0.15586716561E+03  0.12500000000E+03 0.  0.
</event>
<event>
 5    0  0.5612316E-005  0.2350317E+03  0.7546771E-02  0.1123148E+00
         21   -1    0    0  502  501  0.00000000000E+00  0.00000000000E+00  0.27110247642E+04  0.27110247642E+04  0.00000000000E+00 0.  1.
         21   -1    0    0  501  502 -0.00000000000E+00 -0.00000000000E+00 -0.20376022215E+02  0.20376022215E+02  0.00000000000E+00 0.  1.
         25    1    1    2    0    0 -0.46723858937E+02  0.99907338321E+02  0.10261157023E+04  0.10395686749E+04  0.12500000000E+03 0.  0.
         25    1    1    2    0    0  0.56546663592E+02 -0.58822280354E+02  0.56407656215E+03  0.58349374787E+03  0.12500000000E+03 0.  0.
         25    1    1    2    0    0 -0.98228046548E+01 -0.41085057967E+02  0.11004564775E+04  0.11083383636E+04  0.12500000000E+03 0.  0.
</event>
<event>
 5    0  0.5612316E-005  0.3838814E+03  0.7546771E-02  0.1049508E+00
         21   -1    0    0  502  501  0.00000000000E+00  0.00000000000E+00  0.25962275367E+04  0.25962275367E+04  0.00000000000E+00 0. -1.
         21   -1    0    0  501  502 -0.00000000000E+00 -0.00000000000E+00 -0.56761172973E+02  0.56761172973E+02  0.00000000000E+00 0. -1.
         25    1    1    2    0    0  0.82664446202E+02  0.96892145996E+02  0.16303848993E+03  0.24171894386E+03  0.12500000000E+03 0.  0.
         25    1    1    2    0    0  0.98976567607E+02 -0.19213073228E+02  0.12911007351E+04  0.13010501955E+04  0.12500000000E+03 0.  0.
         25    1    1    2    0    0 -0.18164101381E+03 -0.77679072768E+02  0.10853271387E+04  0.11102195703E+04  0.12500000000E+03 0.  0.
</event>
<event>
 5    0  0.6753497E-005  0.2901050E+03  0.7546771E-02  0.1090294E+00
         21   -1    0    0  502  501  0.00000000000E+00  0.00000000000E+00  0.22803779377E+03  0.22803779377E+03  0.00000000000E+00 0.  1.
         21   -1    0    0  501  502 -0.00000000000E+00 -0.00000000000E+00 -0.36906561774E+03  0.36906561774E+03  0.00000000000E+00 0.  1.
         25    1    1    2    0    0 -0.12200136636E+02 -0.66973797037E+02 -0.25873541590E+03  0.29530213048E+03  0.12500000000E+03 0.  0.
         25    1    1    2    0    0  0.40633730153E+02  0.42057661380E+01  0.80897166196E+02  0.15439604915E+03  0.12500000000E+03 0.  0.
         25    1    1    2    0    0 -0.28433593518E+02  0.62768030899E+02  0.36810425733E+02  0.14740523188E+03  0.12500000000E+03 0.  0.
</event>
<event>
 5    0  0.5612316E-005  0.2520122E+03  0.7546771E-02  0.1112040E+00
         21   -1    0    0  502  501  0.00000000000E+00  0.00000000000E+00  0.74371667009E+03  0.74371667009E+03  0.00000000000E+00 0. -1.
         21   -1    0    0  501  502 -0.00000000000E+00 -0.00000000000E+00 -0.85395627055E+02  0.85395627055E+02  0.00000000000E+00 0. -1.
         25    1    1    2    0    0  0.83300052432E+01  0.15465483450E+02  0.82923002064E+02  0.15102911784E+03  0.12500000000E+03 0.  0.
         25    1    1    2    0    0 -0.93246817520E+02  0.25799874595E+01  0.11669699339E+03  0.19479428528E+03  0.12500000000E+03 0.  0.
         25    1    1    2    0    0  0.84916812277E+02 -0.18045470910E+02  0.45870104758E+03  0.48328889401E+03  0.12500000000E+03 0.  0.
</event>
<event>
 5    0  0.5612316E-005  0.3150344E+03  0.7546771E-02  0.1077958E+00
         21   -1    0    0  502  501  0.00000000000E+00  0.00000000000E+00  0.15373198477E+03  0.15373198477E+03  0.00000000000E+00 0.  1.
         21   -1    0    0  501  502 -0.00000000000E+00 -0.00000000000E+00 -0.64558262147E+03  0.64558262147E+03  0.00000000000E+00 0.  1.
         25    1    1    2    0    0 -0.37776490648E+01 -0.12905418080E+03 -0.19276370048E+03  0.26353765658E+03  0.12500000000E+03 0.  0.
         25    1    1    2    0    0  0.44562462605E+02 -0.10522424852E+03 -0.72096140118E+02  0.18406740333E+03  0.12500000000E+03 0.  0.
         25    1    1    2    0    0 -0.40784813540E+02  0.23427842931E+03 -0.22699079610E+03  0.35170954632E+03  0.12500000000E+03 0.  0.
</event>
<event>
 5    0  0.5612316E-005  0.2557922E+03  0.7546771E-02  0.1109698E+00
         21   -1    0    0  502  501  0.00000000000E+00  0.00000000000E+00  0.22382274373E+03  0.22382274373E+03  0.00000000000E+00 0.  1.
         21   -1    0    0  501  502 -0.00000000000E+00 -0.00000000000E+00 -0.29232797630E+03  0.29232797630E+03  0.00000000000E+00 0.  1.
         25    1    1    2    0    0 -0.77893849819E+02  0.10185584344E+03 -0.78759849988E+02  0.19562765309E+03  0.12500000000E+03 0.  0.
         25    1    1    2    0    0 -0.28561050869E+02 -0.84877261832E+01  0.25580323846E+02  0.13102338757E+03  0.12500000000E+03 0.  0.
         25    1    1    2    0    0  0.10645490069E+03 -0.93368117260E+02 -0.15325706430E+02  0.18949967936E+03  0.12500000000E+03 0.  0.
</event>
<event>
 5    0  0.5612316E-005  0.3585055E+03  0.7546771E-02  0.1059177E+00
         21   -1    0    0  502  501  0.00000000000E+00  0.00000000000E+00  0.34232331745E+03  0.34232331745E+03  0.00000000000E+00 0. -1.
         21   -1    0    0  501  502 -0.00000000000E+00 -0.00000000000E+00 -0.37545262758E+03  0.37545262758E+03  0.00000000000E+00 0. -1.
         25    1    1    2    0    0  0.11956423120E+03 -0.35027795289E+02 -0.25264856895E+03  0.30818639038E+03  0.12500000000E+03 0.  0.
         25    1    1    2    0    0 -0.99260460942E+02  0.46871468307E+01  0.63750748574E+01  0.15981317227E+03  0.12500000000E+03 0.  0.
         25    1    1    2    0    0 -0.20303770259E+02  0.30340648458E+02  0.21314418396E+03  0.24977638238E+03  0.12500000000E+03 0.  0.
</event>
<event>
 5    0  0.5612316E-005  0.2932784E+03  0.7546771E-02  0.1088650E+00
         21   -1    0    0  502  501  0.00000000000E+00  0.00000000000E+00  0.96476265665E+02  0.96476265665E+02  0.00000000000E+00 0. -1.
         21   -1    0    0  501  502 -0.00000000000E+00 -0.00000000000E+00 -0.89153767212E+03  0.89153767212E+03  0.00000000000E+00 0. -1.
         25    1    1    2    0    0 -0.50808538515E+02 -0.91926828471E+02 -0.42164564262E+02  0.16862650995E+03  0.12500000000E+03 0.  0.
         25    1    1    2    0    0 -0.20810164190E+02  0.12096612224E+03 -0.37434637252E+03  0.41331110834E+03  0.12500000000E+03 0.  0.
         25    1    1    2    0    0  0.71618702705E+02 -0.29039293769E+02 -0.37855046968E+03  0.40607631949E+03  0.12500000000E+03 0.  0.
</event>
<event>
 5    0  0.5612316E-005  0.3557727E+03  0.7546771E-02  0.1060270E+00
         21   -1    0    0  502  501  0.00000000000E+00  0.00000000000E+00  0.24832771388E+03  0.24832771388E+03  0.00000000000E+00 0.  1.
         21   -1    0    0  501  502 -0.00000000000E+00 -0.00000000000E+00 -0.50970643202E+03  0.50970643202E+03  0.00000000000E+00 0.  1.
         25    1    1    2    0    0 -0.18410751611E+03  0.15782751920E+03 -0.10605019660E+03  0.29270590617E+03  0.12500000000E+03 0.  0.
         25    1    1    2    0    0  0.20404311627E+03 -0.19278479781E+03 -0.10615524506E+03  0.32510537925E+03  0.12500000000E+03 0.  0.
         25    1    1    2    0    0 -0.19935600153E+02  0.34957278607E+02 -0.49173276490E+02  0.14022286048E+03  0.12500000000E+03 0.  0.
</event>
<event>
 5    0  0.5612316E-005  0.3436477E+03  0.7546771E-02  0.1065253E+00
         21   -1    0    0  502  501  0.00000000000E+00  0.00000000000E+00  0.16916462671E+03  0.16916462671E+03  0.00000000000E+00 0.  1.
         21   -1    0    0  501  502 -0.00000000000E+00 -0.00000000000E+00 -0.69809947678E+03  0.69809947678E+03  0.00000000000E+00 0.  1.
         25    1    1    2    0    0  0.59900810687E+02 -0.15654304154E+03 -0.12099223254E+03  0.24157390445E+03  0.12500000000E+03 0.  0.
         25    1    1    2    0    0 -0.11777247376E+03 -0.42214496692E+02 -0.33577892184E+02  0.18001359435E+03  0.12500000000E+03 0.  0.
         25    1    1    2    0    0  0.57871663072E+02  0.19875753823E+03 -0.37436472534E+03  0.44567660469E+03  0.12500000000E+03 0.  0.
</event>
<event>
 5    0  0.5612316E-005  0.4021219E+03  0.7546771E-02  0.1043047E+00
         21   -1    0    0  502  501  0.00000000000E+00  0.00000000000E+00  0.99332043947E+03  0.99332043947E+03  0.00000000000E+00 0.  1.
         21   -1    0    0  501  502 -0.00000000000E+00 -0.00000000000E+00 -0.16278937918E+03  0.16278937918E+03  0.00000000000E+00 0.  1.
         25    1    1    2    0    0 -0.52254651735E+01 -0.17927658229E+03  0.36136391569E+03  0.42234615898E+03  0.12500000000E+03 0.  0.
         25    1    1    2    0    0 -0.52939460166E+02 -0.15850822004E+02  0.47550810541E+03  0.49475932868E+03  0.12500000000E+03 0.  0.
         25    1    1    2    0    0  0.58164925339E+02  0.19512740430E+03 -0.63409608090E+01  0.23900433099E+03  0.12500000000E+03 0.  0.
</event>
<event>
 5    0  0.5612316E-005  0.2507361E+03  0.7546771E-02  0.1112840E+00
         21   -1    0    0  502  501  0.00000000000E+00  0.00000000000E+00  0.33175849060E+02  0.33175849060E+02  0.00000000000E+00 0. -1.
         21   -1    0    0  501  502 -0.00000000000E+00 -0.00000000000E+00 -0.18950114055E+04  0.18950114055E+04  0.00000000000E+00 0. -1.
         25    1    1    2    0    0  0.36742151811E+01  0.54620942188E+02 -0.72662034194E+03  0.73932338560E+03  0.12500000000E+03 0.  0.
         25    1    1    2    0    0 -0.11131721989E+03 -0.36347451020E+02 -0.75186079934E+03  0.77112406409E+03  0.12500000000E+03 0.  0.
         25    1    1    2    0    0  0.10764300471E+03 -0.18273491168E+02 -0.38335441516E+03  0.41773980486E+03  0.12500000000E+03 0.  0.
</event>
<event>
 5    0  0.5612316E-005  0.3899451E+03  0.7546771E-02  0.1047318E+00
         21   -1    0    0  502  501  0.00000000000E+00  0.00000000000E+00  0.26764737662E+03  0.26764737662E+03  0.00000000000E+00 0.  1.
         21   -1    0    0  501  502 -0.00000000000E+00 -0.00000000000E+00 -0.56812500666E+03  0.56812500666E+03  0.00000000000E+00 0.  1.
         25    1    1    2    0    0  0.25938096389E+03  0.15420514382E+00 -0.15882990295E+03  0.32883194230E+03  0.12500000000E+03 0.  0.
         25    1    1    2    0    0  0.98385261523E+01  0.98329064894E+00 -0.16722572013E+03  0.20901484380E+03  0.12500000000E+03 0.  0.
         25    1    1    2    0    0 -0.26921949004E+03 -0.11374957928E+01  0.25577993039E+02  0.29792559716E+03  0.12500000000E+03 0.  0.
</event>
<event>
 5    0  0.5612316E-005  0.2617373E+03  0.7546771E-02  0.1106104E+00
         21   -1    0    0  502  501  0.00000000000E+00  0.00000000000E+00  0.37893571522E+03  0.37893571522E+03  0.00000000000E+00 0.  1.
         21   -1    0    0  501  502 -0.00000000000E+00 -0.00000000000E+00 -0.18078644368E+03  0.18078644368E+03  0.00000000000E+00 0.  1.
         25    1    1    2    0    0  0.51381610027E+02 -0.11135061107E+03  0.19462709406E+03  0.26180858309E+03  0.12500000000E+03 0.  0.
         25    1    1    2    0    0 -0.51014256163E+02  0.40174051278E+02 -0.42085026954E+02  0.14701210230E+03  0.12500000000E+03 0.  0.
         25    1    1    2    0    0 -0.36735386429E+00  0.71176559793E+02  0.45607204440E+02  0.15090147352E+03  0.12500000000E+03 0.  0.
</event>
<event>
 5    0  0.5612316E-005  0.2556555E+03  0.7546771E-02  0.1109782E+00
         21   -1    0    0  502  501  0.00000000000E+00  0.00000000000E+00  0.21157284011E+04  0.21157284011E+04  0.00000000000E+00 0. -1.
         21   -1    0    0  501  502 -0.00000000000E+00 -0.00000000000E+00 -0.30892300293E+02  0.30892300293E+02  0.00000000000E+00 0. -1.
         25    1    1    2    0    0  0.10215296979E+02 -0.54922141005E+02  0.13698778855E+04  0.13767030235E+04  0.12500000000E+03 0.  0.
         25    1    1    2    0    0 -0.14923644503E+01  0.81408015600E+02  0.29059700554E+03  0.32665136122E+03  0.12500000000E+03 0.  0.
         25    1    1    2    0    0 -0.87229325289E+01 -0.26485874595E+02  0.42436120982E+03  0.44326631668E+03  0.12500000000E+03 0.  0.
</event>
<event>
 5    0  0.5612316E-005  0.2780415E+03  0.7546771E-02  0.1096763E+00
         21   -1    0    0  502  501  0.00000000000E+00  0.00000000000E+00  0.52150585860E+03  0.52150585860E+03  0.00000000000E+00 0.  1.
         21   -1    0    0  501  502 -0.00000000000E+00 -0.00000000000E+00 -0.14823816495E+03  0.14823816495E+03  0.00000000000E+00 0.  1.
         25    1    1    2    0    0  0.33787852567E+02 -0.92540364588E+02  0.55714893630E+02  0.16862528705E+03  0.12500000000E+03 0.  0.
         25    1    1    2    0    0  0.16280032022E+01 -0.80619159196E+02  0.49943916648E+02  0.15691237693E+03  0.12500000000E+03 0.  0.
         25    1    1    2    0    0 -0.35415855769E+02  0.17315952378E+03  0.26760888336E+03  0.34420635957E+03  0.12500000000E+03 0.  0.
</event>
<event>
 5    0  0.5612316E-005  0.2447594E+03  0.7546771E-02  0.1116662E+00
         21   -1    0    0  502  501  0.00000000000E+00  0.00000000000E+00  0.21132782889E+02  0.21132782889E+02  0.00000000000E+00 0. -1.
         21   -1    0    0  501  502 -0.00000000000E+00 -0.00000000000E+00 -0.28347978721E+04  0.28347978721E+04  0.00000000000E+00 0. -1.
         25    1    1    2    0    0  0.15724566112E+01  0.66756958666E+01 -0.55297438179E+03  0.56696799244E+03  0.12500000000E+03 0.  0.
         25    1    1    2    0    0 -0.11371727599E+03 -0.89310706166E+01 -0.74403423637E+03  0.76303560059E+03  0.12500000000E+03 0.  0.
         25    1    1    2    0    0  0.11214481938E+03  0.22553747499E+01 -0.15166564711E+04  0.15259270620E+04  0.12500000000E+03 0.  0.
</event>
<event>
 5    0  0.5612316E-005  0.2490115E+03  0.7546771E-02  0.1113931E+00
         21   -1    0    0  502  501  0.00000000000E+00  0.00000000000E+00  0.24448832008E+04  0.24448832008E+04  0.00000000000E+00 0.  1.
         21   -1    0    0  501  502 -0.00000000000E+00 -0.00000000000E+00 -0.25361827052E+02  0.25361827052E+02  0.00000000000E+00 0.  1.
         25    1    1    2    0    0 -0.54035150692E+02 -0.40002173548E+01  0.47940632943E+03  0.49838863144E+03  0.12500000000E+03 0.  0.
         25    1    1    2    0    0  0.83554655817E+02 -0.15865578346E+02  0.16099355669E+04  0.16170190557E+04  0.12500000000E+03 0.  0.
         25    1    1    2    0    0 -0.29519505125E+02  0.19865795701E+02  0.33017947741E+03  0.35483734066E+03  0.12500000000E+03 0.  0.
</event>
<event>
 5    0  0.5612316E-005  0.2895562E+03  0.7546771E-02  0.1090581E+00
         21   -1    0    0  502  501  0.00000000000E+00  0.00000000000E+00  0.32991378690E+03  0.32991378690E+03  0.00000000000E+00 0.  1.
         21   -1    0    0  501  502 -0.00000000000E+00 -0.00000000000E+00 -0.25413551574E+03  0.25413551574E+03  0.00000000000E+00 0.  1.
         25    1    1    2    0    0  0.38422938806E+02 -0.11489717290E+03  0.50439304946E+02  0.18123687828E+03  0.12500000000E+03 0.  0.
         25    1    1    2    0    0 -0.18229503647E+02  0.16943282243E+03 -0.83423813655E+02  0.22720987831E+03  0.12500000000E+03 0.  0.
         25    1    1    2    0    0 -0.20193435158E+02 -0.54535649533E+02  0.10876277987E+03  0.17560254605E+03  0.12500000000E+03 0.  0.
</event>
<event>
 5    0  0.5612316E-005  0.2761026E+03  0.7546771E-02  0.1097837E+00
         21   -1    0    0  502  501  0.00000000000E+00  0.00000000000E+00  0.65192252219E+03  0.65192252219E+03  0.00000000000E+00 0. -1.
         21   -1    0    0  501  502 -0.00000000000E+00 -0.00000000000E+00 -0.11693511564E+03  0.11693511564E+03  0.00000000000E+00 0. -1.
         25    1    1    2    0    0 -0.59631133571E+02 -0.11871520892E+03  0.32496878707E+03  0.37266457504E+03  0.12500000000E+03 0.  0.
         25    1    1    2    0    0  0.41035957396E+02  0.15388521349E+03  0.10446898725E+03  0.22782312883E+03  0.12500000000E+03 0.  0.
         25    1    1    2    0    0  0.18595176175E+02 -0.35170004569E+02  0.10554963224E+03  0.16836993397E+03  0.12500000000E+03 0.  0.
</event>
<event>
 5    0  0.5612316E-005  0.4222172E+03  0.7546771E-02  0.1036347E+00
         21   -1    0    0  502  501  0.00000000000E+00  0.00000000000E+00  0.60437054453E+03  0.60437054453E+03  0.00000000000E+00 0.  1.
         21   -1    0    0  501  502 -0.00000000000E+00 -0.00000000000E+00 -0.29496363135E+03  0.29496363135E+03  0.00000000000E+00 0.  1.
         25    1    1    2    0    0 -0.11971865286E+02  0.17321813125E+03 -0.14666443847E+03  0.25939025437E+03  0.12500000000E+03 0.  0.
         25    1    1    2    0    0 -0.15031488527E+03 -0.58692781376E+02  0.14548342447E+03  0.25065880020E+03  0.12500000000E+03 0.  0.
         25    1    1    2    0    0  0.16228675056E+03 -0.11452534988E+03  0.31058792717E+03  0.38928512131E+03  0.12500000000E+03 0.  0.
</event>
<event>
 5    0  0.5612316E-005  0.3133205E+03  0.7546771E-02  0.1078765E+00
         21   -1    0    0  502  501  0.00000000000E+00  0.00000000000E+00  0.14416598191E+04  0.14416598191E+04  0.00000000000E+00 0. -1.
         21   -1    0    0  501  502 -0.00000000000E+00 -0.00000000000E+00 -0.68094934694E+02  0.68094934694E+02  0.00000000000E+00 0. -1.
         25    1    1    2    0    0 -0.95909687812E+02  0.84279482334E+02  0.10133183708E+03  0.20541382759E+03  0.12500000000E+03 0.  0.
         25    1    1    2    0    0  0.42577883168E+02 -0.73032036094E+02  0.70064348677E+03  0.71670973900E+03  0.12500000000E+03 0.  0.
         25    1    1    2    0    0  0.53331804644E+02 -0.11247446239E+02  0.57158956060E+03  0.58763118725E+03  0.12500000000E+03 0.  0.
</event>
<event>
 5    0  0.5612316E-005  0.4248141E+03  0.7546771E-02  0.1035511E+00
         21   -1    0    0  502  501  0.00000000000E+00  0.00000000000E+00  0.26609710550E+03  0.26609710550E+03  0.00000000000E+00 0.  1.
         21   -1    0    0  501  502 -0.00000000000E+00 -0.00000000000E+00 -0.67819979396E+03  0.67819979396E+03  0.00000000000E+00 0.  1.
         25    1    1    2    0    0  0.58687593861E+02 -0.50789318987E+02 -0.44756502848E+03  0.47112975210E+03  0.12500000000E+03 0.  0.
         25    1    1    2    0    0 -0.13633537021E+03 -0.98502826445E+02  0.12633340223E+03  0.24469423472E+03  0.12500000000E+03 0.  0.
         25    1    1    2    0    0  0.77647776345E+02  0.14929214543E+03 -0.90871062219E+02  0.22847291263E+03  0.12500000000E+03 0.  0.
</event>
<event>
 5    0  0.5612316E-005  0.4453965E+03  0.7546771E-02  0.1029104E+00
         21   -1    0    0  502  501  0.00000000000E+00  0.00000000000E+00  0.81802376967E+02  0.81802376967E+02  0.00000000000E+00 0. -1.
         21   -1    0    0  501  502 -0.00000000000E+00 -0.00000000000E+00 -0.24250884842E+04  0.24250884842E+04  0.00000000000E+00 0. -1.
         25    1    1    2    0    0 -0.17630558926E+03 -0.32285906606E+03 -0.74406164188E+03  0.83938928052E+03  0.12500000000E+03 0.  0.
         25    1    1    2    0    0  0.10221845358E+03  0.25447167166E+03 -0.11980790987E+04  0.12354039706E+04  0.12500000000E+03 0.  0.
         25    1    1    2    0    0  0.74087135675E+02  0.68387394393E+02 -0.40114536668E+03  0.43209761003E+03  0.12500000000E+03 0.  0.
</event>
<event>
 5    0  0.5612316E-005  0.3767178E+03  0.7546771E-02  0.1052154E+00
         21   -1    0    0  502  501  0.00000000000E+00  0.00000000000E+00  0.11509448597E+04  0.11509448597E+04  0.00000000000E+00 0. -1.
         21   -1    0    0  501  502 -0.00000000000E+00 -0.00000000000E+00 -0.12330418072E+03  0.12330418072E+03  0.00000000000E+00 0. -1.
         25    1    1    2    0    0  0.13779529316E+03 -0.24965780095E+03  0.45220320227E+03  0.54902577037E+03  0.12500000000E+03 0.  0.
         25    1    1    2    0    0 -0.99090750411E+02  0.25769795476E+03  0.33786432021E+03  0.45387719878E+03  0.12500000000E+03 0.  0.
         25    1    1    2    0    0 -0.38704542746E+02 -0.80401538095E+01  0.23757315655E+03  0.27134607131E+03  0.12500000000E+03 0.  0.
</event>
<event>
 5    0  0.5612316E-005  0.3563460E+03  0.7546771E-02  0.1060040E+00
         21   -1    0    0  502  501  0.00000000000E+00  0.00000000000E+00  0.18845709469E+04  0.18845709469E+04  0.00000000000E+00 0.  1.
         21   -1    0    0  501  502 -0.00000000000E+00 -0.00000000000E+00 -0.67380048310E+02  0.67380048310E+02  0.00000000000E+00 0.  1.
         25    1    1    2    0    0 -0.14367533478E+03 -0.12390956028E+03  0.71094345780E+03  0.74636571541E+03  0.12500000000E+03 0.  0.
         25    1    1    2    0    0 -0.10952079816E+03  0.95175591771E+02  0.37235617530E+03  0.41872105247E+03  0.12500000000E+03 0.  0.
         25    1    1    2    0    0  0.25319613294E+03  0.28733968512E+02  0.73389126548E+03  0.78686422732E+03  0.12500000000E+03 0.  0.
</event>
<event>
 5    0  0.6060235E-005  0.3562335E+03  0.7546771E-02  0.1060085E+00
         21   -1    0    0  502  501  0.00000000000E+00  0.00000000000E+00  0.38263310657E+03  0.38263310657E+03  0.00000000000E+00 0.  1.
         21   -1    0    0  501  502 -0.00000000000E+00 -0.00000000000E+00 -0.33165530297E+03  0.33165530297E+03  0.00000000000E+00 0.  1.
         25    1    1    2    0    0  0.11814583838E+03 -0.10635683437E+03  0.30789360044E+02  0.20455610486E+03  0.12500000000E+03 0.  0.
         25    1    1    2    0    0 -0.40869620576E+02  0.23981077830E+03 -0.83243257972E+02  0.28589154460E+03  0.12500000000E+03 0.  0.
         25    1    1    2    0    0 -0.77276217808E+02 -0.13345394393E+03  0.10343170153E+03  0.22384076007E+03  0.12500000000E+03 0.  0.
</event>
<event>
 5    0  0.5612316E-005  0.2258061E+03  0.7546771E-02  0.1129627E+00
         21   -1    0    0  502  501  0.00000000000E+00  0.00000000000E+00  0.15829137959E+04  0.15829137959E+04  0.00000000000E+00 0. -1.
         21   -1    0    0  501  502 -0.00000000000E+00 -0.00000000000E+00 -0.32211735874E+02  0.32211735874E+02  0.00000000000E+00 0. -1.
         25    1    1    2    0    0  0.48469184902E+02 -0.47838905870E+02  0.81438336787E+03  0.82673036273E+03  0.12500000000E+03 0.  0.
         25    1    1    2    0    0  0.86927439115E+01  0.41842586548E+00  0.45211062947E+03  0.46915323740E+03  0.12500000000E+03 0.  0.
         25    1    1    2    0    0 -0.57161928814E+02  0.47420480005E+02  0.28420806273E+03  0.31924193169E+03  0.12500000000E+03 0.  0.
</event>
<event>
 5    0  0.5612316E-005  0.3578149E+03  0.7546771E-02  0.1059452E+00
         21   -1    0    0  502  501  0.00000000000E+00  0.00000000000E+00  0.85689743164E+03  0.85689743164E+03  0.00000000000E+00 0. -1.
         21   -1    0    0  501  502 -0.00000000000E+00 -0.00000000000E+00 -0.14941290623E+03  0.14941290623E+03  0.00000000000E+00 0. -1.
         25    1    1    2    0    0  0.12412468864E+03 -0.22989690364E+03  0.49604873202E+03  0.57441175925E+03  0.12500000000E+03 0.  0.
         25    1    1    2    0    0 -0.49987954115E+02  0.17116254196E+03  0.10032311256E+03  0.23976058525E+03  0.12500000000E+03 0.  0.
         25    1    1    2    0    0 -0.74136734527E+02  0.58734361673E+02  0.11111268084E+03  0.19213799336E+03  0.12500000000E+03 0.  0.
</event>
<event>
 5    0  0.5612316E-005  0.2697528E+03  0.7546771E-02  0.1101421E+00
         21   -1    0    0  502  501  0.00000000000E+00  0.00000000000E+00  0.31403902272E+03  0.31403902272E+03  0.00000000000E+00 0.  1.
         21   -1    0    0  501  502 -0.00000000000E+00 -0.00000000000E+00 -0.23171184180E+03  0.23171184180E+03  0.00000000000E+00 0.  1.
         25    1    1    2    0    0  0.77899421454E+02  0.91746640314E+02 -0.18724567335E+02  0.17453187472E+03  0.12500000000E+03 0.  0.
         25    1    1    2    0    0 -0.10625977267E+03  0.30153157036E+02 -0.13792449060E+01  0.16681503075E+03  0.12500000000E+03 0.  0.
         25    1    1    2    0    0  0.28360351216E+02 -0.12189979735E+03  0.10243099316E+03  0.20440395905E+03  0.12500000000E+03 0.  0.
</event>
<event>
 5    0  0.5612316E-005  0.2162916E+03  0.7546771E-02  0.1136678E+00
         21   -1    0    0  502  501  0.00000000000E+00  0.00000000000E+00  0.38417277456E+03  0.38417277456E+03  0.00000000000E+00 0.  1.
         21   -1    0    0  501  502 -0.00000000000E+00 -0.00000000000E+00 -0.12177351275E+03  0.12177351275E+03  0.00000000000E+00 0.  1.
         25    1    1    2    0    0 -0.14789980363E+02  0.79849873497E+01  0.11854939387E+03  0.17309379633E+03  0.12500000000E+03 0.  0.
         25    1    1    2    0    0 -0.26111831814E+02  0.43296658396E+02  0.51302319941E+01  0.13493608735E+03  0.12500000000E+03 0.  0.
         25    1    1    2    0    0  0.40901812177E+02 -0.51281645746E+02  0.13871963594E+03  0.19791640363E+03  0.12500000000E+03 0.  0.
</event>
<event>
 5    0  0.5612316E-005  0.3677887E+03  0.7546771E-02  0.1055542E+00
         21   -1    0    0  502  501  0.00000000000E+00  0.00000000000E+00  0.16082188756E+04  0.16082188756E+04  0.00000000000E+00 0.  1.
         21   -1    0    0  501  502 -0.00000000000E+00 -0.00000000000E+00 -0.84110789989E+02  0.84110789989E+02  0.00000000000E+00 0.  1.
         25    1    1    2    0    0  0.25473228489E+03  0.55767421786E+01  0.41635001269E+03  0.50387693942E+03  0.12500000000E+03 0.  0.
         25    1    1    2    0    0 -0.24805101235E+03 -0.64511631262E+02  0.63984234626E+03  0.70051001661E+03  0.12500000000E+03 0.  0.
         25    1    1    2    0    0 -0.66812725365E+01  0.58934889083E+02  0.46791572669E+03  0.48794270958E+03  0.12500000000E+03 0.  0.
</event>
<event>
 5    0  0.5612316E-005  0.3193132E+03  0.7546771E-02  0.1075966E+00
         21   -1    0    0  502  501  0.00000000000E+00  0.00000000000E+00  0.34784228138E+03  0.34784228138E+03  0.00000000000E+00 0. -1.
         21   -1    0    0  501  502 -0.00000000000E+00 -0.00000000000E+00 -0.29312393860E+03  0.29312393860E+03  0.00000000000E+00 0. -1.
         25    1    1    2    0    0 -0.14468305114E+03  0.64003238988E+02 -0.25846147086E+02  0.20327966747E+03  0.12500000000E+03 0.  0.
         25    1    1    2    0    0  0.90370099085E+02 -0.16038747089E+03  0.13719315627E+03  0.26141510621E+03  0.12500000000E+03 0.  0.
         25    1    1    2    0    0  0.54312952054E+02  0.96384231905E+02 -0.56628666405E+02  0.17627144630E+03  0.12500000000E+03 0.  0.
</event>
<event>
 5    0  0.5612316E-005  0.2414578E+03  0.7546771E-02  0.1118825E+00
         21   -1    0    0  502  501  0.00000000000E+00  0.00000000000E+00  0.15057735909E+04  0.15057735909E+04  0.00000000000E+00 0.  1.
         21   -1    0    0  501  502 -0.00000000000E+00 -0.00000000000E+00 -0.38718892755E+02  0.38718892755E+02  0.00000000000E+00 0.  1.
         25    1    1    2    0    0  0.62889553543E+02 -0.49564508837E+02  0.92627905566E+03  0.93809894224E+03  0.12500000000E+03 0.  0.
         25    1    1    2    0    0 -0.62751339907E+02  0.63072354198E+01  0.31520576615E+03  0.34490170613E+03  0.12500000000E+03 0.  0.
         25    1    1    2    0    0 -0.13821363608E+00  0.43257273417E+02  0.22556987630E+03  0.26149183525E+03  0.12500000000E+03 0.  0.
</event>
<event>
 5    0  0.5612316E-005  0.5343070E+03  0.7546771E-02  0.1005193E+00
         21   -1    0    0  502  501  0.00000000000E+00  0.00000000000E+00  0.32337235706E+03  0.32337235706E+03  0.00000000000E+00 0. -1.
         21   -1    0    0  501  502 -0.00000000000E+00 -0.00000000000E+00 -0.88283352625E+03  0.88283352625E+03  0.00000000000E+00 0. -1.
         25    1    1    2    0    0  0.35034643090E+03  0.23654305124E+03 -0.75388947533E+02  0.44721776591E+03  0.12500000000E+03 0.  0.
         25    1    1    2    0    0 -0.26949123859E+02 -0.17193636909E+03 -0.27631568489E+03  0.34966230568E+03  0.12500000000E+03 0.  0.
         25    1    1    2    0    0 -0.32339730704E+03 -0.64606682145E+02 -0.20775653676E+03  0.40932581173E+03  0.12500000000E+03 0.  0.
</event>
<event>
 5    0  0.5612316E-005  0.2516560E+03  0.7546771E-02  0.1112263E+00
         21   -1    0    0  502  501  0.00000000000E+00  0.00000000000E+00  0.30704551342E+03  0.30704551342E+03  0.00000000000E+00 0. -1.
         21   -1    0    0  501  502 -0.00000000000E+00 -0.00000000000E+00 -0.20625846423E+03  0.20625846423E+03  0.00000000000E+00 0. -1.
         25    1    1    2    0    0 -0.11996619698E+03 -0.60237294215E+02 -0.14232926023E+02  0.18397824930E+03  0.12500000000E+03 0.  0.
         25    1    1    2    0    0  0.11507649261E+03  0.61517721922E+02  0.46062624997E+02  0.18647733022E+03  0.12500000000E+03 0.  0.
         25    1    1    2    0    0  0.48897043645E+01 -0.12804277074E+01  0.68957350211E+02  0.14284839814E+03  0.12500000000E+03 0.  0.
</event>
<event>
 5    0  0.5612316E-005  0.2844902E+03  0.7546771E-02  0.1093261E+00
         21   -1    0    0  502  501  0.00000000000E+00  0.00000000000E+00  0.80515862473E+02  0.80515862473E+02  0.00000000000E+00 0. -1.
         21   -1    0    0  501  502 -0.00000000000E+00 -0.00000000000E+00 -0.10052013204E+04  0.10052013204E+04  0.00000000000E+00 0. -1.
         25    1    1    2    0    0  0.94527386401E+02  0.12189370603E+02 -0.18327078218E+03  0.24144810444E+03  0.12500000000E+03 0.  0.
         25    1    1    2    0    0  0.54565818989E+02 -0.18047487552E+02 -0.56520551941E+03  0.58170905062E+03  0.12500000000E+03 0.  0.
         25    1    1    2    0    0 -0.14909320539E+03  0.58581169496E+01 -0.17620915635E+03  0.26256002782E+03  0.12500000000E+03 0.  0.
</event>
<event>
 5    0  0.5612316E-005  0.2285543E+03  0.7546771E-02  0.1127661E+00
         21   -1    0    0  502  501  0.00000000000E+00  0.00000000000E+00  0.13114767905E+04  0.13114767905E+04  0.00000000000E+00 0.  1.
         21   -1    0    0  501  502 -0.00000000000E+00 -0.00000000000E+00 -0.39830717814E+02  0.39830717814E+02  0.00000000000E+00 0.  1.
         25    1    1    2    0    0  0.62545191639E+02  0.21859087636E+02  0.21211056343E+03  0.25496198114E+03  0.12500000000E+03 0.  0.
         25    1    1    2    0    0  0.64071963100E+01  0.91081094944E+01  0.34713746742E+03  0.36912522416E+03  0.12500000000E+03 0.  0.
         25    1    1    2    0    0 -0.68952387949E+02 -0.30967197130E+02  0.71239804179E+03  0.72722030297E+03  0.12500000000E+03 0.  0.
</event>
<event>
 5    0  0.5612316E-005  0.2735435E+03  0.7546771E-02  0.1099269E+00
         21   -1    0    0  502  501  0.00000000000E+00  0.00000000000E+00  0.30618492256E+03  0.30618492256E+03  0.00000000000E+00 0.  1.
         21   -1    0    0  501  502 -0.00000000000E+00 -0.00000000000E+00 -0.24438196714E+03  0.24438196714E+03  0.00000000000E+00 0.  1.
         25    1    1    2    0    0 -0.24204046114E+02 -0.92065575018E+02  0.18390970392E+03  0.24188775320E+03  0.12500000000E+03 0.  0.
         25    1    1    2    0    0  0.16548049383E+02  0.95161154974E+02 -0.61542914714E+02  0.16953469765E+03  0.12500000000E+03 0.  0.
         25    1    1    2    0    0  0.76559967303E+01 -0.30955799555E+01 -0.60563833787E+02  0.13914443885E+03  0.12500000000E+03 0.  0.
</event>
<event>
 5    0  0.5612316E-005  0.3579507E+03  0.7546771E-02  0.1059398E+00
         21   -1    0    0  502  501  0.00000000000E+00  0.00000000000E+00  0.10289175202E+03  0.10289175202E+03  0.00000000000E+00 0.  1.
         21   -1    0    0  501  502 -0.00000000000E+00 -0.00000000000E+00 -0.12452764686E+04  0.12452764686E+04  0.00000000000E+00 0.  1.
         25    1    1    2    0    0 -0.12320474456E+03 -0.80836004341E+02 -0.22055424876E+03  0.29322865707E+03  0.12500000000E+03 0.  0.
         25    1    1    2    0    0  0.90954420782E+02  0.24804729758E+03 -0.43293878224E+03  0.52236113720E+03  0.12500000000E+03 0.  0.
         25    1    1    2    0    0  0.32250323774E+02 -0.16721129324E+03 -0.48889168558E+03  0.53257842634E+03  0.12500000000E+03 0.  0.
</event>
<event>
 5    0  0.5612316E-005  0.2288913E+03  0.7546771E-02  0.1127423E+00
         21   -1    0    0  502  501  0.00000000000E+00  0.00000000000E+00  0.18899213807E+03  0.18899213807E+03  0.00000000000E+00 0. -1.
         21   -1    0    0  501  502 -0.00000000000E+00 -0.00000000000E+00 -0.27721375723E+03  0.27721375723E+03  0.00000000000E+00 0. -1.
         25    1    1    2    0    0 -0.83377846660E+01 -0.45508072834E+01 -0.13665880315E+02  0.12610307207E+03  0.12500000000E+03 0.  0.
         25    1    1    2    0    0 -0.10333954917E+03  0.83192987767E+01 -0.19159107325E+02  0.16352475210E+03  0.12500000000E+03 0.  0.
         25    1    1    2    0    0  0.11167733384E+03 -0.37684914933E+01 -0.55396631518E+02  0.17657807113E+03  0.12500000000E+03 0.  0.
</event>
<event>
 5    0  0.5612316E-005  0.2809851E+03  0.7546771E-02  0.1095152E+00
         21   -1    0    0  502  501  0.00000000000E+00  0.00000000000E+00  0.18312709627E+03  0.18312709627E+03  0.00000000000E+00 0. -1.
         21   -1    0    0  501  502 -0.00000000000E+00 -0.00000000000E+00 -0.43113576712E+03  0.43113576712E+03  0.00000000000E+00 0. -1.
         25    1    1    2    0    0 -0.13247273357E+03  0.43326833192E+02 -0.49911140541E+02  0.19375851352E+03  0.12500000000E+03 0.  0.
         25    1    1    2    0    0  0.84515968711E+02  0.93249784647E+02 -0.72074964432E+02  0.19146349992E+03  0.12500000000E+03 0.  0.
         25    1    1    2    0    0  0.47956764857E+02 -0.13657661784E+03 -0.12602256587E+03  0.22904084995E+03  0.12500000000E+03 0.  0.
</event>
<event>
 5    0  0.5612316E-005  0.3127709E+03  0.7546771E-02  0.1079025E+00
         21   -1    0    0  502  501  0.00000000000E+00  0.00000000000E+00  0.49152111098E+03  0.49152111098E+03  0.00000000000E+00 0. -1.
         21   -1    0    0  501  502 -0.00000000000E+00 -0.00000000000E+00 -0.19902626426E+03  0.19902626426E+03  0.00000000000E+00 0. -1.
         25    1    1    2    0    0 -0.10423612886E+03 -0.13077120969E+03  0.16574648877E+03  0.26657677765E+03  0.12500000000E+03 0.  0.
         25    1    1    2    0    0 -0.53619861065E+02  0.12931550802E+03  0.11947681061E+03  0.22247988311E+03  0.12500000000E+03 0.  0.
         25    1    1    2    0    0  0.15785598992E+03  0.14557016677E+01  0.72715473426E+01  0.20149071448E+03  0.12500000000E+03 0.  0.
</event>
<event>
 5    0  0.5612316E-005  0.4622838E+03  0.7546771E-02  0.1024121E+00
         21   -1    0    0  502  501  0.00000000000E+00  0.00000000000E+00  0.10248887578E+04  0.10248887578E+04  0.00000000000E+00 0.  1.
         21   -1    0    0  501  502 -0.00000000000E+00 -0.00000000000E+00 -0.20851658478E+03  0.20851658478E+03  0.00000000000E+00 0.  1.
         25    1    1    2    0    0  0.15005713892E+03  0.32389415975E+02 -0.26955794823E+02  0.19979447961E+03  0.12500000000E+03 0.  0.
         25    1    1    2    0    0 -0.15456584469E+03 -0.85025137546E+02  0.41214567985E+02  0.22009887545E+03  0.12500000000E+03 0.  0.
         25    1    1    2    0    0  0.45087057702E+01  0.52635721570E+02  0.80211339982E+03  0.81351198748E+03  0.12500000000E+03 0.  0.
</event>
<event>
 5    0  0.5612316E-005  0.3712108E+03  0.7546771E-02  0.1054231E+00
         21   -1    0    0  502  501  0.00000000000E+00  0.00000000000E+00  0.11823697460E+03  0.11823697460E+03  0.00000000000E+00 0. -1.
         21   -1    0    0  501  502 -0.00000000000E+00 -0.00000000000E+00 -0.11654346193E+04  0.11654346193E+04  0.00000000000E+00 0. -1.
         25    1    1    2    0    0 -0.33324983960E+02  0.97941726894E+02 -0.68006699994E+03  0.69915610620E+03  0.12500000000E+03 0.  0.
         25    1    1    2    0    0 -0.14718012631E+03 -0.11469143680E+03 -0.12422383533E+03  0.25665672897E+03  0.12500000000E+03 0.  0.
         25    1    1    2    0    0  0.18050511027E+03  0.16749709911E+02 -0.24290680944E+03  0.32785875875E+03  0.12500000000E+03 0.  0.
</event>
<event>
 5    0  0.5612316E-005  0.3502763E+03  0.7546771E-02  0.1062502E+00
         21   -1    0    0  502  501  0.00000000000E+00  0.00000000000E+00  0.75136221868E+02  0.75136221868E+02  0.00000000000E+00 0.  1.
         21   -1    0    0  501  502 -0.00000000000E+00 -0.00000000000E+00 -0.16329472700E+04  0.16329472700E+04  0.00000000000E+00 0.  1.
         25    1    1    2    0    0 -0.23807153863E+02 -0.22900580445E+03 -0.28952603138E+03  0.39046224132E+03  0.12500000000E+03 0.  0.
         25    1    1    2    0    0  0.13429997262E+01  0.89870245092E+02 -0.76261115932E+03  0.77799694403E+03  0.12500000000E+03 0.  0.
         25    1    1    2    0    0  0.22464154137E+02  0.13913555936E+03 -0.50567385744E+03  0.53962430653E+03  0.12500000000E+03 0.  0.
</event>
<event>
 5    0  0.5612316E-005  0.4503457E+03  0.7546771E-02  0.1027619E+00
         21   -1    0    0  502  501  0.00000000000E+00  0.00000000000E+00  0.16207468995E+03  0.16207468995E+03  0.00000000000E+00 0. -1.
         21   -1    0    0  501  502 -0.00000000000E+00 -0.00000000000E+00 -0.12513444393E+04  0.12513444393E+04  0.00000000000E+00 0. -1.
         25    1    1    2    0    0  0.37349791775E+01 -0.13006504809E+03 -0.22245162298E+03  0.28642728810E+03  0.12500000000E+03 0.  0.
         25    1    1    2    0    0  0.22160527379E+03 -0.16051630929E+03 -0.22061284895E+03  0.37305416770E+03  0.12500000000E+03 0.  0.
         25    1    1    2    0    0 -0.22534025297E+03  0.29058135738E+03 -0.64620527745E+03  0.75393767347E+03  0.12500000000E+03 0.  0.
</event>
<event>
 5    0  0.5612316E-005  0.4290259E+03  0.7546771E-02  0.1034168E+00
         21   -1    0    0  502  501  0.00000000000E+00  0.00000000000E+00  0.34965697877E+03  0.34965697877E+03  0.00000000000E+00 0. -1.
         21   -1    0    0  501  502 -0.00000000000E+00 -0.00000000000E+00 -0.52641085508E+03  0.52641085508E+03  0.00000000000E+00 0. -1.
         25    1    1    2    0    0 -0.17086592164E+03  0.14153729634E+03 -0.22224563719E+03  0.33800309567E+03  0.12500000000E+03 0.  0.
         25    1    1    2    0    0 -0.72741573442E+02  0.44345446255E+02 -0.94902040924E+02  0.17857562119E+03  0.12500000000E+03 0.  0.
         25    1    1    2    0    0  0.24360749508E+03 -0.18588274260E+03  0.14039380180E+03  0.35948911699E+03  0.12500000000E+03 0.  0.
</event>
<event>
 5    0  0.5612316E-005  0.4214806E+03  0.7546771E-02  0.1036586E+00
         21   -1    0    0  502  501  0.00000000000E+00  0.00000000000E+00  0.29317858213E+03  0.29317858213E+03  0.00000000000E+00 0. -1.
         21   -1    0    0  501  502 -0.00000000000E+00 -0.00000000000E+00 -0.60593065724E+03  0.60593065724E+03  0.00000000000E+00 0. -1.
         25    1    1    2    0    0 -0.20526427363E+01 -0.36077548836E+03 -0.11581899232E+03  0.39900151043E+03  0.12500000000E+03 0.  0.
         25    1    1    2    0    0  0.68343094588E+02  0.16605154098E+03 -0.10133791905E+03  0.24111878126E+03  0.12500000000E+03 0.  0.
         25    1    1    2    0    0 -0.66290451851E+02  0.19472394738E+03 -0.95595163730E+02  0.25898894768E+03  0.12500000000E+03 0.  0.
</event>
<event>
 5    0  0.9130969E-005  0.7507356E+03  0.7546771E-02  0.9634197E-01
         21   -1    0    0  502  501  0.00000000000E+00  0.00000000000E+00  0.91434866692E+03  0.91434866692E+03  0.00000000000E+00 0.  1.
         21   -1    0    0  501  502 -0.00000000000E+00 -0.00000000000E+00 -0.61639933637E+03  0.61639933637E+03  0.00000000000E+00 0.  1.
         25    1    1    2    0    0  0.19512244660E+03 -0.20225093154E+02  0.29944344932E+03  0.37917437005E+03  0.12500000000E+03 0.  0.
         25    1    1    2    0    0  0.23828021413E+03  0.12544502761E+03 -0.42870090931E+03  0.52146273600E+03  0.12500000000E+03 0.  0.
         25    1    1    2    0    0 -0.43340266073E+03 -0.10521993446E+03  0.42720679055E+03  0.63011089724E+03  0.12500000000E+03 0.  0.
</event>
<event>
 5    0  0.5612316E-005  0.2949218E+03  0.7546771E-02  0.1087807E+00
         21   -1    0    0  502  501  0.00000000000E+00  0.00000000000E+00  0.10210031088E+04  0.10210031088E+04  0.00000000000E+00 0.  1.
         21   -1    0    0  501  502 -0.00000000000E+00 -0.00000000000E+00 -0.85189599373E+02  0.85189599373E+02  0.00000000000E+00 0.  1.
         25    1    1    2    0    0 -0.15992994165E+03  0.10774449918E+03  0.32203340484E+03  0.39562226577E+03  0.12500000000E+03 0.  0.
         25    1    1    2    0    0 -0.26940792617E+01 -0.67954425267E+02  0.31850964306E+03  0.34885305603E+03  0.12500000000E+03 0.  0.
         25    1    1    2    0    0  0.16262402091E+03 -0.39790073912E+02  0.29527046155E+03  0.36171738640E+03  0.12500000000E+03 0.  0.
</event>
<event>
 5    0  0.5612316E-005  0.4393776E+03  0.7546771E-02  0.1030938E+00
         21   -1    0    0  502  501  0.00000000000E+00  0.00000000000E+00  0.10686892602E+04  0.10686892602E+04  0.00000000000E+00 0. -1.
         21   -1    0    0  501  502 -0.00000000000E+00 -0.00000000000E+00 -0.18064433397E+03  0.18064433397E+03  0.00000000000E+00 0. -1.
         25    1    1    2    0    0  0.64751730499E+01 -0.31150473093E+03  0.53579468622E+03  0.63228005744E+03  0.12500000000E+03 0.  0.
         25    1    1    2    0    0 -0.12606693064E+03  0.51234498489E+02  0.75488055415E+02  0.19960283401E+03  0.12500000000E+03 0.  0.
         25    1    1    2    0    0  0.11959175759E+03  0.26027023244E+03  0.27676218461E+03  0.41745070272E+03  0.12500000000E+03 0.  0.
</event>
<event>
 5    0  0.5612316E-005  0.2526272E+03  0.7546771E-02  0.1111656E+00
         21   -1    0    0  502  501  0.00000000000E+00  0.00000000000E+00  0.18222703327E+03  0.18222703327E+03  0.00000000000E+00 0. -1.
         21   -1    0    0  501  502 -0.00000000000E+00 -0.00000000000E+00 -0.35022520885E+03  0.35022520885E+03  0.00000000000E+00 0. -1.
         25    1    1    2    0    0  0.25695594654E+02 -0.51223160869E+02  0.60996991116E+01  0.13764549438E+03  0.12500000000E+03 0.  0.
         25    1    1    2    0    0 -0.17827094866E+02  0.14910468993E+03 -0.94929074800E+02  0.21722463745E+03  0.12500000000E+03 0.  0.
         25    1    1    2    0    0 -0.78684997883E+01 -0.97881529064E+02 -0.79168799895E+02  0.17758211030E+03  0.12500000000E+03 0.  0.
</event>
<event>
 5    0  0.5612316E-005  0.3139411E+03  0.7546771E-02  0.1078472E+00
         21   -1    0    0  502  501  0.00000000000E+00  0.00000000000E+00  0.18448990765E+04  0.18448990765E+04  0.00000000000E+00 0.  1.
         21   -1    0    0  501  502 -0.00000000000E+00 -0.00000000000E+00 -0.53422446200E+02  0.53422446200E+02  0.00000000000E+00 0.  1.
         25    1    1    2    0    0  0.13270702316E+03 -0.75052864023E+01  0.51894089753E+03  0.55008375585E+03  0.12500000000E+03 0.  0.
         25    1    1    2    0    0  0.12208676457E+02 -0.15666983124E+02  0.10331843803E+04  0.10409080026E+04  0.12500000000E+03 0.  0.
         25    1    1    2    0    0 -0.14491569962E+03  0.23172269526E+02  0.23935135243E+03  0.30732976423E+03  0.12500000000E+03 0.  0.
</event>
<event>
 5    0  0.5790704E-005  0.3008632E+03  0.7546771E-02  0.1084810E+00
         21   -1    0    0  502  501  0.00000000000E+00  0.00000000000E+00  0.64501669638E+03  0.64501669638E+03  0.00000000000E+00 0.  1.
         21   -1    0    0  501  502 -0.00000000000E+00 -0.00000000000E+00 -0.14033535678E+03  0.14033535678E+03  0.00000000000E+00 0.  1.
         25    1    1    2    0    0 -0.12600032236E+03 -0.25367718668E+02  0.42722802943E+03  0.46332320416E+03  0.12500000000E+03 0.  0.
         25    1    1    2    0    0  0.47915577020E+02 -0.18281607208E+02 -0.24859488169E+02  0.13737945201E+03  0.12500000000E+03 0.  0.
         25    1    1    2    0    0  0.78084745338E+02  0.43649325876E+02  0.10231279834E+03  0.18464939699E+03  0.12500000000E+03 0.  0.
</event>
<event>
 5    0  0.5612316E-005  0.4851488E+03  0.7546771E-02  0.1017730E+00
         21   -1    0    0  502  501  0.00000000000E+00  0.00000000000E+00  0.62980242886E+03  0.62980242886E+03  0.00000000000E+00 0. -1.
         21   -1    0    0  501  502 -0.00000000000E+00 -0.00000000000E+00 -0.37371940574E+03  0.37371940574E+03  0.00000000000E+00 0. -1.
         25    1    1    2    0    0 -0.10419311335E+03  0.24324838191E+03  0.28293484816E+03  0.40706646690E+03  0.12500000000E+03 0.  0.
         25    1    1    2    0    0  0.84072081728E+02 -0.34223974003E+03 -0.14067895648E+03  0.39951435941E+03  0.12500000000E+03 0.  0.
         25    1    1    2    0    0  0.20121031620E+02  0.98991358116E+02  0.11382713143E+03  0.19694100829E+03  0.12500000000E+03 0.  0.
</event>
<event>
 5    0  0.5612316E-005  0.2490988E+03  0.7546771E-02  0.1113876E+00
         21   -1    0    0  502  501  0.00000000000E+00  0.00000000000E+00  0.13568642693E+03  0.13568642693E+03  0.00000000000E+00 0.  1.
         21   -1    0    0  501  502 -0.00000000000E+00 -0.00000000000E+00 -0.45730605105E+03  0.45730605105E+03  0.00000000000E+00 0.  1.
         25    1    1    2    0    0  0.10264104932E+03 -0.18326608453E+02 -0.14657183696E+02  0.16343464326E+03  0.12500000000E+03 0.  0.
         25    1    1    2    0    0 -0.56040575704E+02  0.72913530057E+02 -0.17799034226E+03  0.23614082859E+03  0.12500000000E+03 0.  0.
         25    1    1    2    0    0 -0.46600473620E+02 -0.54586921604E+02 -0.12897209818E+03  0.19341700613E+03  0.12500000000E+03 0.  0.
</event>
<event>
 5    0  0.5612316E-005  0.2903384E+03  0.7546771E-02  0.1090173E+00
         21   -1    0    0  502  501  0.00000000000E+00  0.00000000000E+00  0.22318661015E+03  0.22318661015E+03  0.00000000000E+00 0.  1.
         21   -1    0    0  501  502 -0.00000000000E+00 -0.00000000000E+00 -0.37769464058E+03  0.37769464058E+03  0.00000000000E+00 0.  1.
         25    1    1    2    0    0 -0.84736145990E+02  0.65401087147E+02 -0.12859072799E+03  0.20884944808E+03  0.12500000000E+03 0.  0.
         25    1    1    2    0    0  0.14735960536E+02 -0.20168727865E+02 -0.15023709993E+03  0.19702820182E+03  0.12500000000E+03 0.  0.
         25    1    1    2    0    0  0.70000185454E+02 -0.45232359282E+02  0.12431979749E+03  0.19500360083E+03  0.12500000000E+03 0.  0.
</event>
<event>
 5    0  0.5612316E-005  0.2438923E+03  0.7546771E-02  0.1117227E+00
         21   -1    0    0  502  501  0.00000000000E+00  0.00000000000E+00  0.24691440056E+03  0.24691440056E+03  0.00000000000E+00 0. -1.
         21   -1    0    0  501  502 -0.00000000000E+00 -0.00000000000E+00 -0.24090725603E+03  0.24090725603E+03  0.00000000000E+00 0. -1.
         25    1    1    2    0    0 -0.22894679398E+02 -0.30139843855E+02  0.13211941313E+03  0.18577705956E+03  0.12500000000E+03 0.  0.
         25    1    1    2    0    0  0.70037105506E+01  0.64916100468E+02 -0.86574797419E+02  0.16547914554E+03  0.12500000000E+03 0.  0.
         25    1    1    2    0    0  0.15890968847E+02 -0.34776256613E+02 -0.39537471177E+02  0.13656545150E+03  0.12500000000E+03 0.  0.
</event>
<event>
 5    0  0.5612316E-005  0.2350455E+03  0.7546771E-02  0.1123138E+00
         21   -1    0    0  502  501  0.00000000000E+00  0.00000000000E+00  0.43168349872E+02  0.43168349872E+02  0.00000000000E+00 0.  1.
         21   -1    0    0  501  502 -0.00000000000E+00 -0.00000000000E+00 -0.12797891793E+04  0.12797891793E+04  0.00000000000E+00 0.  1.
         25    1    1    2    0    0 -0.27002073272E+02 -0.36085446802E+02 -0.23656315110E+03  0.27132710128E+03  0.12500000000E+03 0.  0.
         25    1    1    2    0    0 -0.81661293301E+02  0.46908981887E+02 -0.41678514003E+03  0.44520093481E+03  0.12500000000E+03 0.  0.
         25    1    1    2    0    0  0.10866336657E+03 -0.10823535085E+02 -0.58327253833E+03  0.60642949311E+03  0.12500000000E+03 0.  0.
</event>
<event>
 5    0  0.5612316E-005  0.2818528E+03  0.7546771E-02  0.1094681E+00
         21   -1    0    0  502  501  0.00000000000E+00  0.00000000000E+00  0.57742785538E+02  0.57742785538E+02  0.00000000000E+00 0. -1.
         21   -1    0    0  501  502 -0.00000000000E+00 -0.00000000000E+00 -0.13757739782E+04  0.13757739782E+04  0.00000000000E+00 0. -1.
         25    1    1    2    0    0 -0.58876980795E+01  0.12522009723E+03 -0.61747529998E+03  0.64235152668E+03  0.12500000000E+03 0.  0.
         25    1    1    2    0    0 -0.31360321639E+02 -0.10457800242E+03 -0.60712324789E+03  0.62939944908E+03  0.12500000000E+03 0.  0.
         25    1    1    2    0    0  0.37248019718E+02 -0.20642094803E+02 -0.93432644791E+02  0.16176578799E+03  0.12500000000E+03 0.  0.
</event>
<event>
 5    0  0.5612316E-005  0.3943879E+03  0.7546771E-02  0.1045740E+00
         21   -1    0    0  502  501  0.00000000000E+00  0.00000000000E+00  0.12513591027E+04  0.12513591027E+04  0.00000000000E+00 0. -1.
         21   -1    0    0  501  502 -0.00000000000E+00 -0.00000000000E+00 -0.12429833336E+03  0.12429833336E+03  0.00000000000E+00 0. -1.
         25    1    1    2    0    0 -0.98250625676E+02  0.60582581986E+02  0.73161609832E+03  0.75113950103E+03  0.12500000000E+03 0.  0.
         25    1    1    2    0    0  0.20172700989E+03  0.23413739740E+02  0.65408280391E+02  0.24727562127E+03  0.12500000000E+03 0.  0.
         25    1    1    2    0    0 -0.10347638422E+03 -0.83996321725E+02  0.33003639061E+03  0.37724231375E+03  0.12500000000E+03 0.  0.
</event>
<event>
 5    0  0.5612316E-005  0.2686452E+03  0.7546771E-02  0.1102057E+00
         21   -1    0    0  502  501  0.00000000000E+00  0.00000000000E+00  0.91770490405E+02  0.91770490405E+02  0.00000000000E+00 0.  1.
         21   -1    0    0  501  502 -0.00000000000E+00 -0.00000000000E+00 -0.78642107220E+03  0.78642107220E+03  0.00000000000E+00 0.  1.
         25    1    1    2    0    0  0.30406175246E+02 -0.27580661816E+02 -0.44677322730E+02  0.13894708189E+03  0.12500000000E+03 0.  0.
         25    1    1    2    0    0  0.50292996429E+01 -0.35761243238E+02 -0.83453348727E+02  0.15457561834E+03  0.12500000000E+03 0.  0.
         25    1    1    2    0    0 -0.35435474889E+02  0.63341905054E+02 -0.56651991034E+03  0.58466886237E+03  0.12500000000E+03 0.  0.
</event>
<event>
 5    0  0.5612316E-005  0.2252416E+03  0.7546771E-02  0.1130034E+00
         21   -1    0    0  502  501  0.00000000000E+00  0.00000000000E+00  0.46688817681E+03  0.46688817681E+03  0.00000000000E+00 0.  1.
         21   -1    0    0  501  502 -0.00000000000E+00 -0.00000000000E+00 -0.10866365623E+03  0.10866365623E+03  0.00000000000E+00 0.  1.
         25    1    1    2    0    0 -0.16426632568E+02 -0.74439423910E+02  0.58665933843E+02  0.15772683311E+03  0.12500000000E+03 0.  0.
         25    1    1    2    0    0  0.15324629195E+01  0.73021423721E+02  0.23582800639E+03  0.27672066305E+03  0.12500000000E+03 0.  0.
         25    1    1    2    0    0  0.14894169648E+02  0.14180001887E+01  0.63730580346E+02  0.14110433688E+03  0.12500000000E+03 0.  0.
</event>
<event>
 5    0  0.5612316E-005  0.2155850E+03  0.7546771E-02  0.1137218E+00
         21   -1    0    0  502  501  0.00000000000E+00  0.00000000000E+00  0.28494440317E+03  0.28494440317E+03  0.00000000000E+00 0.  1.
         21   -1    0    0  501  502 -0.00000000000E+00 -0.00000000000E+00 -0.16310869112E+03  0.16310869112E+03  0.00000000000E+00 0.  1.
         25    1    1    2    0    0  0.43121751450E+02 -0.37161327717E+02  0.56518927005E+02  0.14852554944E+03  0.12500000000E+03 0.  0.
         25    1    1    2    0    0  0.23521546032E+02  0.47199044844E+02 -0.14804056674E+02  0.13647407467E+03  0.12500000000E+03 0.  0.
         25    1    1    2    0    0 -0.66643297482E+02 -0.10037717126E+02  0.80120841718E+02  0.16305347019E+03  0.12500000000E+03 0.  0.
</event>
<event>
 5    0  0.5612316E-005  0.2934657E+03  0.7546771E-02  0.1088553E+00
         21   -1    0    0  502  501  0.00000000000E+00  0.00000000000E+00  0.80460633307E+02  0.80460633307E+02  0.00000000000E+00 0.  1.
         21   -1    0    0  501  502 -0.00000000000E+00 -0.00000000000E+00 -0.10703631077E+04  0.10703631077E+04  0.00000000000E+00 0.  1.
         25    1    1    2    0    0  0.63596864929E+01  0.55443379791E+02 -0.69375868062E+02  0.15346799355E+03  0.12500000000E+03 0.  0.
         25    1    1    2    0    0  0.46976856862E+02 -0.14876640769E+03 -0.65486146767E+03  0.68469468450E+03  0.12500000000E+03 0.  0.
         25    1    1    2    0    0 -0.53336543355E+02  0.93323027900E+02 -0.26566513868E+03  0.31266106298E+03  0.12500000000E+03 0.  0.
</event>
<event>
 5    0  0.5612316E-005  0.4089553E+03  0.7546771E-02  0.1040722E+00
         21   -1    0    0  502  501  0.00000000000E+00  0.00000000000E+00  0.15143429110E+04  0.15143429110E+04  0.00000000000E+00 0.  1.
         21   -1    0    0  501  502 -0.00000000000E+00 -0.00000000000E+00 -0.11044026673E+03  0.11044026673E+03  0.00000000000E+00 0.  1.
         25    1    1    2    0    0 -0.77331393597E+01  0.30330120076E+03  0.10102942858E+04  0.10622480707E+04  0.12500000000E+03 0.  0.
         25    1    1    2    0    0  0.65355716490E+01 -0.18809495903E+03  0.17600245121E+03  0.28639883055E+03  0.12500000000E+03 0.  0.
         25    1    1    2    0    0  0.11975677107E+01 -0.11520624173E+03  0.21760590730E+03  0.27613627649E+03  0.12500000000E+03 0.  0.
</event>
<event>
 5    0  0.6651504E-005  0.5616230E+03  0.7546771E-02  0.9988389E-01
         21   -1    0    0  502  501  0.00000000000E+00  0.00000000000E+00  0.10699811906E+04  0.10699811906E+04  0.00000000000E+00 0.  1.
         21   -1    0    0  501  502 -0.00000000000E+00 -0.00000000000E+00 -0.29479063262E+03  0.29479063262E+03  0.00000000000E+00 0.  1.
         25    1    1    2    0    0 -0.34990459699E+03 -0.25660270506E+02  0.35426291789E+03  0.51402226748E+03  0.12500000000E+03 0.  0.
         25    1    1    2    0    0  0.15226723627E+03  0.30549634170E+03  0.28366324374E+03  0.46108910406E+03  0.12500000000E+03 0.  0.
         25    1    1    2    0    0  0.19763736072E+03 -0.27983607119E+03  0.13726439633E+03  0.38966045167E+03  0.12500000000E+03 0.  0.
</event>
<event>
 5    0  0.5612316E-005  0.3562859E+03  0.7546771E-02  0.1060064E+00
         21   -1    0    0  502  501  0.00000000000E+00  0.00000000000E+00  0.50221322937E+03  0.50221322937E+03  0.00000000000E+00 0.  1.
         21   -1    0    0  501  502 -0.00000000000E+00 -0.00000000000E+00 -0.25276043085E+03  0.25276043085E+03  0.00000000000E+00 0.  1.
         25    1    1    2    0    0 -0.10048999689E+03  0.12304592696E+03 -0.14967024326E+03  0.25152479268E+03  0.12500000000E+03 0.  0.
         25    1    1    2    0    0  0.22834843805E+02 -0.72903384620E+02  0.23858496267E+03  0.27997163783E+03  0.12500000000E+03 0.  0.
         25    1    1    2    0    0  0.77655153085E+02 -0.50142542336E+02  0.16053807912E+03  0.22347722971E+03  0.12500000000E+03 0.  0.
</event>
<event>
 5    0  0.5612316E-005  0.2439423E+03  0.7546771E-02  0.1117194E+00
         21   -1    0    0  502  501  0.00000000000E+00  0.00000000000E+00  0.25392533519E+03  0.25392533519E+03  0.00000000000E+00 0.  1.
         21   -1    0    0  501  502 -0.00000000000E+00 -0.00000000000E+00 -0.23435178098E+03  0.23435178098E+03  0.00000000000E+00 0.  1.
         25    1    1    2    0    0 -0.42442270073E+02 -0.21668139651E+02  0.40561658687E+02  0.13978949431E+03  0.12500000000E+03 0.  0.
         25    1    1    2    0    0 -0.44329833273E+02 -0.42237030439E+02 -0.94062357747E+02  0.16799353560E+03  0.12500000000E+03 0.  0.
         25    1    1    2    0    0  0.86772103346E+02  0.63905170090E+02  0.73074253271E+02  0.18049408626E+03  0.12500000000E+03 0.  0.
</event>
<event>
 5    0  0.5612316E-005  0.4724740E+03  0.7546771E-02  0.1021224E+00
         21   -1    0    0  502  501  0.00000000000E+00  0.00000000000E+00  0.77551885744E+03  0.77551885744E+03  0.00000000000E+00 0. -1.
         21   -1    0    0  501  502 -0.00000000000E+00 -0.00000000000E+00 -0.28784814386E+03  0.28784814386E+03  0.00000000000E+00 0. -1.
         25    1    1    2    0    0  0.18336907544E+03 -0.22349378416E+03  0.51942931341E+03  0.60745822985E+03  0.12500000000E+03 0.  0.
         25    1    1    2    0    0 -0.42697754748E+02  0.22457317688E+03 -0.55027937645E+02  0.26628797185E+03  0.12500000000E+03 0.  0.
         25    1    1    2    0    0 -0.14067132069E+03 -0.10793927212E+01  0.23269337812E+02  0.18962079959E+03  0.12500000000E+03 0.  0.
</event>
<event>
 5    0  0.5612316E-005  0.3374429E+03  0.7546771E-02  0.1067890E+00
         21   -1    0    0  502  501  0.00000000000E+00  0.00000000000E+00  0.74295965892E+02  0.74295965892E+02  0.00000000000E+00 0.  1.
         21   -1    0    0  501  502 -0.00000000000E+00 -0.00000000000E+00 -0.15326226091E+04  0.15326226091E+04  0.00000000000E+00 0.  1.
         25    1    1    2    0    0 -0.22145699713E+03  0.96372655204E+02 -0.51491211890E+03  0.58231467476E+03  0.12500000000E+03 0.  0.
         25    1    1    2    0    0  0.16224408131E+03  0.31319354794E+02 -0.41906712496E+03  0.46748935723E+03  0.12500000000E+03 0.  0.
         25    1    1    2    0    0  0.59212915821E+02 -0.12769201000E+03 -0.52434739933E+03  0.55711454298E+03  0.12500000000E+03 0.  0.
</event>
<event>
 5    0  0.5612316E-005  0.3504368E+03  0.7546771E-02  0.1062436E+00
         21   -1    0    0  502  501  0.00000000000E+00  0.00000000000E+00  0.73844242439E+02  0.73844242439E+02  0.00000000000E+00 0. -1.
         21   -1    0    0  501  502 -0.00000000000E+00 -0.00000000000E+00 -0.16630406032E+04  0.16630406032E+04  0.00000000000E+00 0. -1.
         25    1    1    2    0    0 -0.89504475483E+02  0.64537182552E+02 -0.37703554691E+03  0.41225829609E+03  0.12500000000E+03 0.  0.
         25    1    1    2    0    0 -0.17441590687E+03 -0.33007392312E+02 -0.33142972221E+03  0.39620835084E+03  0.12500000000E+03 0.  0.
         25    1    1    2    0    0  0.26392038236E+03 -0.31529790240E+02 -0.88073109168E+03  0.92841819874E+03  0.12500000000E+03 0.  0.
</event>
<event>
 5    0  0.5612316E-005  0.3374495E+03  0.7546771E-02  0.1067887E+00
         21   -1    0    0  502  501  0.00000000000E+00  0.00000000000E+00  0.53185368994E+03  0.53185368994E+03  0.00000000000E+00 0. -1.
         21   -1    0    0  501  502 -0.00000000000E+00 -0.00000000000E+00 -0.21410431284E+03  0.21410431284E+03  0.00000000000E+00 0. -1.
         25    1    1    2    0    0 -0.15056070845E+03  0.17880802454E+03  0.92755502903E+02  0.28083699879E+03  0.12500000000E+03 0.  0.
         25    1    1    2    0    0  0.14410991334E+03 -0.13740010610E+03  0.23562875624E+03  0.33285487385E+03  0.12500000000E+03 0.  0.
         25    1    1    2    0    0  0.64507951058E+01 -0.41407918445E+02 -0.10634882050E+02  0.13226613015E+03  0.12500000000E+03 0.  0.
</event>
<event>
 5    0  0.5612316E-005  0.2603732E+03  0.7546771E-02  0.1106919E+00
         21   -1    0    0  502  501  0.00000000000E+00  0.00000000000E+00  0.24710006686E+03  0.24710006686E+03  0.00000000000E+00 0. -1.
         21   -1    0    0  501  502 -0.00000000000E+00 -0.00000000000E+00 -0.27435932418E+03  0.27435932418E+03  0.00000000000E+00 0. -1.
         25    1    1    2    0    0  0.52388556023E+02  0.37939732348E+02  0.50950087637E+02  0.14968264937E+03  0.12500000000E+03 0.  0.
         25    1    1    2    0    0  0.46785288348E+02  0.16878914420E+02  0.65979323787E+02  0.14984002177E+03  0.12500000000E+03 0.  0.
         25    1    1    2    0    0 -0.99173844371E+02 -0.54818646768E+02 -0.14418866875E+03  0.22193671989E+03  0.12500000000E+03 0.  0.
</event>
<event>
 5    0  0.5612316E-005  0.2415740E+03  0.7546771E-02  0.1118749E+00
         21   -1    0    0  502  501  0.00000000000E+00  0.00000000000E+00  0.22048103055E+03  0.22048103055E+03  0.00000000000E+00 0.  1.
         21   -1    0    0  501  502 -0.00000000000E+00 -0.00000000000E+00 -0.26468487958E+03  0.26468487958E+03  0.00000000000E+00 0.  1.
         25    1    1    2    0    0  0.90610703882E+01  0.79212225713E+02 -0.17337842071E+02  0.14927250405E+03  0.12500000000E+03 0.  0.
         25    1    1    2    0    0  0.70587976240E+02 -0.10962510446E+03 -0.36514697521E+02  0.18427872654E+03  0.12500000000E+03 0.  0.
         25    1    1    2    0    0 -0.79649046629E+02  0.30412878752E+02  0.96486905628E+01  0.15161467954E+03  0.12500000000E+03 0.  0.
</event>
<event>
 5    0  0.5612316E-005  0.2781379E+03  0.7546771E-02  0.1096710E+00
         21   -1    0    0  502  501  0.00000000000E+00  0.00000000000E+00  0.37908633582E+02  0.37908633582E+02  0.00000000000E+00 0.  1.
         21   -1    0    0  501  502 -0.00000000000E+00 -0.00000000000E+00 -0.20407142576E+04  0.20407142576E+04  0.00000000000E+00 0.  1.
         25    1    1    2    0    0 -0.36650600864E+02 -0.12200260225E+03 -0.28834883743E+03  0.33911348182E+03  0.12500000000E+03 0.  0.
         25    1    1    2    0    0  0.27916854913E+02  0.17457252176E+02 -0.66598187874E+03  0.67841061994E+03  0.12500000000E+03 0.  0.
         25    1    1    2    0    0  0.87337459504E+01  0.10454535007E+03 -0.10484749079E+04  0.10610987894E+04  0.12500000000E+03 0.  0.
</event>
<event>
 5    0  0.5612316E-005  0.2627476E+03  0.7546771E-02  0.1105504E+00
         21   -1    0    0  502  501  0.00000000000E+00  0.00000000000E+00  0.84911708072E+03  0.84911708072E+03  0.00000000000E+00 0. -1.
         21   -1    0    0  501  502 -0.00000000000E+00 -0.00000000000E+00 -0.81303626534E+02  0.81303626534E+02  0.00000000000E+00 0. -1.
         25    1    1    2    0    0  0.29124199892E+02  0.12208617861E+03  0.23713298587E+03  0.29599038331E+03  0.12500000000E+03 0.  0.
         25    1    1    2    0    0 -0.36883039228E+01 -0.16497395741E+03  0.37744698608E+03  0.43048953240E+03  0.12500000000E+03 0.  0.
         25    1    1    2    0    0 -0.25435895970E+02  0.42887778803E+02  0.15323348223E+03  0.20394079153E+03  0.12500000000E+03 0.  0.
</event>
<event>
 5    0  0.5612316E-005  0.3193597E+03  0.7546771E-02  0.1075944E+00
         21   -1    0    0  502  501  0.00000000000E+00  0.00000000000E+00  0.15538043376E+03  0.15538043376E+03  0.00000000000E+00 0.  1.
         21   -1    0    0  501  502 -0.00000000000E+00 -0.00000000000E+00 -0.65639280263E+03  0.65639280263E+03  0.00000000000E+00 0.  1.
         25    1    1    2    0    0  0.15075408370E+02  0.55820659211E+02  0.58372293396E+02  0.14958455324E+03  0.12500000000E+03 0.  0.
         25    1    1    2    0    0 -0.91427602251E+02 -0.94886935380E+02 -0.18969436199E+03  0.26262423333E+03  0.12500000000E+03 0.  0.
         25    1    1    2    0    0  0.76352193880E+02  0.39066276169E+02 -0.36969030027E+03  0.39956444982E+03  0.12500000000E+03 0.  0.
</event>
<event>
 5    0  0.5612316E-005  0.2490900E+03  0.7546771E-02  0.1113881E+00
         21   -1    0    0  502  501  0.00000000000E+00  0.00000000000E+00  0.73490307732E+02  0.73490307732E+02  0.00000000000E+00 0.  1.
         21   -1    0    0  501  502 -0.00000000000E+00 -0.00000000000E+00 -0.84427214769E+03  0.84427214769E+03  0.00000000000E+00 0.  1.
         25    1    1    2    0    0  0.78364358922E+00 -0.67616978808E+01 -0.29039067416E+03  0.31622472752E+03  0.12500000000E+03 0.  0.
         25    1    1    2    0    0 -0.11520738346E+03  0.44041492417E+02 -0.32115688891E+03  0.36603161278E+03  0.12500000000E+03 0.  0.
         25    1    1    2    0    0  0.11442373987E+03 -0.37279794537E+02 -0.15923427689E+03  0.23550611513E+03  0.12500000000E+03 0.  0.
</event>
<event>
 5    0  0.5612316E-005  0.2962969E+03  0.7546771E-02  0.1087107E+00
         21   -1    0    0  502  501  0.00000000000E+00  0.00000000000E+00  0.47242156421E+02  0.47242156421E+02  0.00000000000E+00 0.  1.
         21   -1    0    0  501  502 -0.00000000000E+00 -0.00000000000E+00 -0.18583370651E+04  0.18583370651E+04  0.00000000000E+00 0.  1.
         25    1    1    2    0    0 -0.57358202172E+02  0.50966587941E+02 -0.55299050711E+03  0.57211105338E+03  0.12500000000E+03 0.  0.
         25    1    1    2    0    0 -0.80807819237E+02 -0.20012844034E+02 -0.16079928319E+03  0.22002687802E+03  0.12500000000E+03 0.  0.
         25    1    1    2    0    0  0.13816602141E+03 -0.30953743907E+02 -0.10973051183E+04  0.11134412901E+04  0.12500000000E+03 0.  0.
</event>
<event>
 5    0  0.5612316E-005  0.2241796E+03  0.7546771E-02  0.1130805E+00
         21   -1    0    0  502  501  0.00000000000E+00  0.00000000000E+00  0.55822187930E+02  0.55822187930E+02  0.00000000000E+00 0. -1.
         21   -1    0    0  501  502 -0.00000000000E+00 -0.00000000000E+00 -0.90029569644E+03  0.90029569644E+03  0.00000000000E+00 0. -1.
         25    1    1    2    0    0 -0.47256330799E+02 -0.56161813265E+02 -0.43489294372E+03  0.45841485858E+03  0.12500000000E+03 0.  0.
         25    1    1    2    0    0 -0.30892544751E+02  0.28004199030E+02 -0.17173506852E+03  0.21646366495E+03  0.12500000000E+03 0.  0.
         25    1    1    2    0    0  0.78148875550E+02  0.28157614234E+02 -0.23784549627E+03  0.28123936084E+03  0.12500000000E+03 0.  0.
</event>
<event>
 5    0  0.5612316E-005  0.2863519E+03  0.7546771E-02  0.1092269E+00
         21   -1    0    0  502  501  0.00000000000E+00  0.00000000000E+00  0.98323156554E+03  0.98323156554E+03  0.00000000000E+00 0. -1.
         21   -1    0    0  501  502 -0.00000000000E+00 -0.00000000000E+00 -0.83395851383E+02  0.83395851383E+02  0.00000000000E+00 0. -1.
         25    1    1    2    0    0  0.12750125577E+03 -0.62467509530E+02  0.62289556384E+03  0.65098590109E+03  0.12500000000E+03 0.  0.
         25    1    1    2    0    0 -0.11000480422E+03 -0.16582792419E+01  0.12698055374E+03  0.20941076350E+03  0.12500000000E+03 0.  0.
         25    1    1    2    0    0 -0.17496451557E+02  0.64125788772E+02  0.14995959658E+03  0.20623075234E+03  0.12500000000E+03 0.  0.
</event>
<event>
 5    0  0.5612316E-005  0.3349063E+03  0.7546771E-02  0.1068986E+00
         21   -1    0    0  502  501  0.00000000000E+00  0.00000000000E+00  0.11313000430E+04  0.11313000430E+04  0.00000000000E+00 0. -1.
         21   -1    0    0  501  502 -0.00000000000E+00 -0.00000000000E+00 -0.99144563697E+02  0.99144563697E+02  0.00000000000E+00 0. -1.
         25    1    1    2    0    0  0.49809100702E+02 -0.15886382830E+03  0.19637525877E+03  0.28619382368E+03  0.12500000000E+03 0.  0.
         25    1    1    2    0    0  0.94527057435E+01 -0.79546998672E+02  0.18292248646E+03  0.23559014134E+03  0.12500000000E+03 0.  0.
         25    1    1    2    0    0 -0.59261806446E+02  0.23841082698E+03  0.65285773410E+03  0.70866064170E+03  0.12500000000E+03 0.  0.
</event>
<event>
 5    0  0.5612316E-005  0.2289465E+03  0.7546771E-02  0.1127383E+00
         21   -1    0    0  502  501  0.00000000000E+00  0.00000000000E+00  0.20724039852E+03  0.20724039852E+03  0.00000000000E+00 0.  1.
         21   -1    0    0  501  502 -0.00000000000E+00 -0.00000000000E+00 -0.25292617027E+03  0.25292617027E+03  0.00000000000E+00 0.  1.
         25    1    1    2    0    0  0.32619446900E+02  0.52601124241E+02 -0.22216059866E+02  0.14124255698E+03  0.12500000000E+03 0.  0.
         25    1    1    2    0    0 -0.46759442754E+02 -0.20981895514E+02  0.76414362458E+02  0.15521224248E+03  0.12500000000E+03 0.  0.
         25    1    1    2    0    0  0.14139995854E+02 -0.31619228727E+02 -0.99884074341E+02  0.16371176932E+03  0.12500000000E+03 0.  0.
</event>
<event>
 5    0  0.5612316E-005  0.4213764E+03  0.7546771E-02  0.1036619E+00
         21   -1    0    0  502  501  0.00000000000E+00  0.00000000000E+00  0.56288651534E+03  0.56288651534E+03  0.00000000000E+00 0.  1.
         21   -1    0    0  501  502 -0.00000000000E+00 -0.00000000000E+00 -0.31544209514E+03  0.31544209514E+03  0.00000000000E+00 0.  1.
         25    1    1    2    0    0  0.80608461546E+02  0.17820812265E+03  0.60060248184E+02  0.23976674595E+03  0.12500000000E+03 0.  0.
         25    1    1    2    0    0  0.93623774533E+02 -0.30755084554E+03  0.38126076858E+02  0.34703246460E+03  0.12500000000E+03 0.  0.
         25    1    1    2    0    0 -0.17423223608E+03  0.12934272288E+03  0.14925809516E+03  0.29152939993E+03  0.12500000000E+03 0.  0.
</event>
<event>
 5    0  0.5612316E-005  0.3896791E+03  0.7546771E-02  0.1047413E+00
         21   -1    0    0  502  501  0.00000000000E+00  0.00000000000E+00  0.10542561537E+03  0.10542561537E+03  0.00000000000E+00 0. -1.
         21   -1    0    0  501  502 -0.00000000000E+00 -0.00000000000E+00 -0.14403501738E+04  0.14403501738E+04  0.00000000000E+00 0. -1.
         25    1    1    2    0    0  0.31157901875E+02 -0.75009943943E+02 -0.26358933682E+03  0.30282279476E+03  0.12500000000E+03 0.  0.
         25    1    1    2    0    0  0.18050975979E+03  0.53782055966E+02 -0.93318220681E+03  0.96017202314E+03  0.12500000000E+03 0.  0.
         25    1    1    2    0    0 -0.21166766166E+03  0.21227887977E+02 -0.13815301482E+03  0.28278097129E+03  0.12500000000E+03 0.  0.
</event>
<event>
 5    0  0.5612316E-005  0.3331271E+03  0.7546771E-02  0.1069762E+00
         21   -1    0    0  502  501  0.00000000000E+00  0.00000000000E+00  0.45372426801E+02  0.45372426801E+02  0.00000000000E+00 0. -1.
         21   -1    0    0  501  502 -0.00000000000E+00 -0.00000000000E+00 -0.24458400024E+04  0.24458400024E+04  0.00000000000E+00 0. -1.
         25    1    1    2    0    0  0.64969804312E+02 -0.45180794805E+02 -0.42649418168E+03  0.45142515072E+03  0.12500000000E+03 0.  0.
         25    1    1    2    0    0  0.15236198009E+03 -0.84889091389E+02 -0.60356318332E+03  0.64057306146E+03  0.12500000000E+03 0.  0.
         25    1    1    2    0    0 -0.21733178440E+03  0.13006988619E+03 -0.13704102106E+04  0.13992142170E+04  0.12500000000E+03 0.  0.
</event>
<event>
 5    0  0.5612316E-005  0.4238529E+03  0.7546771E-02  0.1035820E+00
         21   -1    0    0  502  501  0.00000000000E+00  0.00000000000E+00  0.73542469886E+03  0.73542469886E+03  0.00000000000E+00 0.  1.
         21   -1    0    0  501  502 -0.00000000000E+00 -0.00000000000E+00 -0.24428240121E+03  0.24428240121E+03  0.00000000000E+00 0.  1.
         25    1    1    2    0    0  0.11239763679E+02  0.54695204495E+02  0.35654613180E+03  0.38192674924E+03  0.12500000000E+03 0.  0.
         25    1    1    2    0    0 -0.23867085138E+03  0.88024150322E+02  0.36468557745E+02  0.28577435512E+03  0.12500000000E+03 0.  0.
         25    1    1    2    0    0  0.22743108770E+03 -0.14271935482E+03  0.98127608100E+02  0.31200599572E+03  0.12500000000E+03 0.  0.
</event>
<event>
 5    0  0.5612316E-005  0.3976378E+03  0.7546771E-02  0.1044601E+00
         21   -1    0    0  502  501  0.00000000000E+00  0.00000000000E+00  0.13148676539E+04  0.13148676539E+04  0.00000000000E+00 0. -1.
         21   -1    0    0  501  502 -0.00000000000E+00 -0.00000000000E+00 -0.12025226678E+03  0.12025226678E+03  0.00000000000E+00 0. -1.
         25    1    1    2    0    0 -0.39101026389E+01  0.16215315901E+03  0.16544618863E+03  0.26326104386E+03  0.12500000000E+03 0.  0.
         25    1    1    2    0    0 -0.87726624943E+02 -0.15969454284E+03  0.12372431886E+03  0.25324102120E+03  0.12500000000E+03 0.  0.
         25    1    1    2    0    0  0.91636727582E+02 -0.24586161667E+01  0.90544487963E+03  0.91861785563E+03  0.12500000000E+03 0.  0.
</event>
<event>
 5    0  0.5612316E-005  0.2815294E+03  0.7546771E-02  0.1094857E+00
         21   -1    0    0  502  501  0.00000000000E+00  0.00000000000E+00  0.14754957849E+03  0.14754957849E+03  0.00000000000E+00 0. -1.
         21   -1    0    0  501  502 -0.00000000000E+00 -0.00000000000E+00 -0.53716728338E+03  0.53716728338E+03  0.00000000000E+00 0. -1.
         25    1    1    2    0    0  0.26836377778E+02 -0.13607405909E+01 -0.25689396010E+03  0.28695217289E+03  0.12500000000E+03 0.  0.
         25    1    1    2    0    0 -0.24348313342E+02  0.10994515485E+03 -0.15733844207E+03  0.23035008745E+03  0.12500000000E+03 0.  0.
         25    1    1    2    0    0 -0.24880644363E+01 -0.10858441426E+03  0.24614697286E+02  0.16741460153E+03  0.12500000000E+03 0.  0.
</event>
<event>
 5    0  0.5612316E-005  0.2983308E+03  0.7546771E-02  0.1086078E+00
         21   -1    0    0  502  501  0.00000000000E+00  0.00000000000E+00  0.77030884952E+02  0.77030884952E+02  0.00000000000E+00 0.  1.
         21   -1    0    0  501  502 -0.00000000000E+00 -0.00000000000E+00 -0.11553970856E+04  0.11553970856E+04  0.00000000000E+00 0.  1.
         25    1    1    2    0    0  0.48441112944E+02 -0.51742402885E+02 -0.26348171136E+03  0.30011902622E+03  0.12500000000E+03 0.  0.
         25    1    1    2    0    0 -0.32413022257E+02  0.71300570777E+02 -0.78836782408E+03  0.80204937594E+03  0.12500000000E+03 0.  0.
         25    1    1    2    0    0 -0.16028090687E+02 -0.19558167893E+02 -0.26516665207E+02  0.13025956839E+03  0.12500000000E+03 0.  0.
</event>
<event>
 5    0  0.5612316E-005  0.2597846E+03  0.7546771E-02  0.1107273E+00
         21   -1    0    0  502  501  0.00000000000E+00  0.00000000000E+00  0.30587272850E+02  0.30587272850E+02  0.00000000000E+00 0. -1.
         21   -1    0    0  501  502 -0.00000000000E+00 -0.00000000000E+00 -0.22064097811E+04  0.22064097811E+04  0.00000000000E+00 0. -1.
         25    1    1    2    0    0 -0.23522732915E+02 -0.96023466415E+02 -0.33119520570E+03  0.36754467666E+03  0.12500000000E+03 0.  0.
         25    1    1    2    0    0 -0.18645372934E+02  0.67070754806E+02 -0.56973063204E+03  0.58742159406E+03  0.12500000000E+03 0.  0.
         25    1    1    2    0    0  0.42168105849E+02  0.28952711609E+02 -0.12748966705E+04  0.12820307832E+04  0.12500000000E+03 0.  0.
</event>
<event>
 5    0  0.5612316E-005  0.3658919E+03  0.7546771E-02  0.1056275E+00
         21   -1    0    0  502  501  0.00000000000E+00  0.00000000000E+00  0.32252469600E+03  0.32252469600E+03  0.00000000000E+00 0.  1.
         21   -1    0    0  501  502 -0.00000000000E+00 -0.00000000000E+00 -0.41509021672E+03  0.41509021672E+03  0.00000000000E+00 0.  1.
         25    1    1    2    0    0  0.68373342450E+02 -0.94836318188E+01  0.19029096970E+03  0.23790860930E+03  0.12500000000E+03 0.  0.
         25    1    1    2    0    0  0.12625640952E+03  0.10276549166E+02 -0.95089213498E+02  0.20177523865E+03  0.12500000000E+03 0.  0.
         25    1    1    2    0    0 -0.19462975197E+03 -0.79291734698E+00 -0.18776727692E+03  0.29793106477E+03  0.12500000000E+03 0.  0.
</event>
<event>
 5    0  0.5612316E-005  0.3162992E+03  0.7546771E-02  0.1077365E+00
         21   -1    0    0  502  501  0.00000000000E+00  0.00000000000E+00  0.63692790505E+03  0.63692790505E+03  0.00000000000E+00 0.  1.
         21   -1    0    0  501  502 -0.00000000000E+00 -0.00000000000E+00 -0.15707456756E+03  0.15707456756E+03  0.00000000000E+00 0.  1.
         25    1    1    2    0    0 -0.56288176070E+02  0.21859171605E+03  0.18587802937E+03  0.31800367748E+03  0.12500000000E+03 0.  0.
         25    1    1    2    0    0 -0.39865945426E+02 -0.44829980463E+02  0.12672536346E+03  0.18783859693E+03  0.12500000000E+03 0.  0.
         25    1    1    2    0    0  0.96154121496E+02 -0.17376173559E+03  0.16724994466E+03  0.28816019820E+03  0.12500000000E+03 0.  0.
</event>
<event>
 5    0  0.5612316E-005  0.3225684E+03  0.7546771E-02  0.1074473E+00
         21   -1    0    0  502  501  0.00000000000E+00  0.00000000000E+00  0.56785921048E+03  0.56785921048E+03  0.00000000000E+00 0. -1.
         21   -1    0    0  501  502 -0.00000000000E+00 -0.00000000000E+00 -0.18323268455E+03  0.18323268455E+03  0.00000000000E+00 0. -1.
         25    1    1    2    0    0 -0.27633679829E+02 -0.15909386207E+03  0.16866595530E+03  0.26485407622E+03  0.12500000000E+03 0.  0.
         25    1    1    2    0    0 -0.43271132602E+02  0.14012817123E+03 -0.35543803973E+02  0.19595065014E+03  0.12500000000E+03 0.  0.
         25    1    1    2    0    0  0.70904812431E+02  0.18965690845E+02  0.25150437460E+03  0.29028716867E+03  0.12500000000E+03 0.  0.
</event>
<event>
 5    0  0.5612316E-005  0.2119616E+03  0.7546771E-02  0.1140022E+00
         21   -1    0    0  502  501  0.00000000000E+00  0.00000000000E+00  0.30180550708E+03  0.30180550708E+03  0.00000000000E+00 0.  1.
         21   -1    0    0  501  502 -0.00000000000E+00 -0.00000000000E+00 -0.14886317426E+03  0.14886317426E+03  0.00000000000E+00 0.  1.
         25    1    1    2    0    0 -0.40873691137E+02 -0.10739832154E+02  0.41943110558E+02  0.13845658939E+03  0.12500000000E+03 0.  0.
         25    1    1    2    0    0  0.59080863888E+02  0.43748133435E+02  0.10938100021E+03  0.18164154498E+03  0.12500000000E+03 0.  0.
         25    1    1    2    0    0 -0.18207172751E+02 -0.33008301281E+02  0.16182220531E+01  0.13057054697E+03  0.12500000000E+03 0.  0.
</event>
<event>
 5    0  0.5724080E-005  0.3511707E+03  0.7546771E-02  0.1062136E+00
         21   -1    0    0  502  501  0.00000000000E+00  0.00000000000E+00  0.79522655049E+03  0.79522655049E+03  0.00000000000E+00 0. -1.
         21   -1    0    0  501  502 -0.00000000000E+00 -0.00000000000E+00 -0.15507640852E+03  0.15507640852E+03  0.00000000000E+00 0.  1.
         25    1    1    2    0    0  0.15948735569E+03 -0.17678671385E+03  0.45871534700E+03  0.53172787062E+03  0.12500000000E+03 0.  0.
         25    1    1    2    0    0 -0.86783519974E+02  0.14421347197E+03  0.16998366552E+03  0.26990433746E+03  0.12500000000E+03 0.  0.
         25    1    1    2    0    0 -0.72703835720E+02  0.32573241881E+02  0.11451129452E+02  0.14867075093E+03  0.12500000000E+03 0.  0.
</event>
<event>
 5    0  0.5612316E-005  0.2552511E+03  0.7546771E-02  0.1110030E+00
         21   -1    0    0  502  501  0.00000000000E+00  0.00000000000E+00  0.12977445212E+03  0.12977445212E+03  0.00000000000E+00 0. -1.
         21   -1    0    0  501  502 -0.00000000000E+00 -0.00000000000E+00 -0.50204905206E+03  0.50204905206E+03  0.00000000000E+00 0. -1.
         25    1    1    2    0    0  0.29089870801E+02 -0.96521539752E+02 -0.25385506521E+03  0.30038312595E+03  0.12500000000E+03 0.  0.
         25    1    1    2    0    0 -0.57866485366E+02 -0.65560429816E+01 -0.89408600260E+02  0.16434843969E+03  0.12500000000E+03 0.  0.
         25    1    1    2    0    0  0.28776614565E+02  0.10307758273E+03 -0.29010934462E+02  0.16709193854E+03  0.12500000000E+03 0.  0.
</event>
<event>
 5    0  0.5612316E-005  0.4182194E+03  0.7546771E-02  0.1037647E+00
         21   -1    0    0  502  501  0.00000000000E+00  0.00000000000E+00  0.13472601156E+04  0.13472601156E+04  0.00000000000E+00 0.  1.
         21   -1    0    0  501  502 -0.00000000000E+00 -0.00000000000E+00 -0.12982457559E+03  0.12982457559E+03  0.00000000000E+00 0.  1.
         25    1    1    2    0    0  0.20423075146E+03  0.13127224058E+03  0.79082233128E+03  0.83664064008E+03  0.12500000000E+03 0.  0.
         25    1    1    2    0    0 -0.16850573771E+03  0.15700338883E+02  0.38666443939E+03  0.44019890160E+03  0.12500000000E+03 0.  0.
         25    1    1    2    0    0 -0.35725013751E+02 -0.14697257946E+03  0.39948769330E+02  0.20024514949E+03  0.12500000000E+03 0.  0.
</event>
<event>
 5    0  0.5612316E-005  0.2214002E+03  0.7546771E-02  0.1132843E+00
         21   -1    0    0  502  501  0.00000000000E+00  0.00000000000E+00  0.18980039183E+03  0.18980039183E+03  0.00000000000E+00 0. -1.
         21   -1    0    0  501  502 -0.00000000000E+00 -0.00000000000E+00 -0.25826099990E+03  0.25826099990E+03  0.00000000000E+00 0. -1.
         25    1    1    2    0    0  0.32104929420E+02  0.29868526713E+02 -0.25452308889E+02  0.13489134668E+03  0.12500000000E+03 0.  0.
         25    1    1    2    0    0 -0.30595662235E+02 -0.14512145707E+02 -0.11053284488E+03  0.17026217054E+03  0.12500000000E+03 0.  0.
         25    1    1    2    0    0 -0.15092671854E+01 -0.15356381006E+02  0.67524545695E+02  0.14290787451E+03  0.12500000000E+03 0.  0.
</event>
<event>
 5    0  0.5612316E-005  0.9764832E+03  0.7546771E-02  0.9334720E-01
         21   -1    0    0  502  501  0.00000000000E+00  0.00000000000E+00  0.30789564631E+03  0.30789564631E+03  0.00000000000E+00 0. -1.
         21   -1    0    0  501  502 -0.00000000000E+00 -0.00000000000E+00 -0.30968916354E+04  0.30968916354E+04  0.00000000000E+00 0. -1.
         25    1    1    2    0    0 -0.66015524887E+03 -0.55528520660E+03 -0.11543197490E+04  0.14464527978E+04  0.12500000000E+03 0.  0.
         25    1    1    2    0    0  0.49186596288E+03  0.55156010634E+02 -0.10058256699E+04  0.11279559341E+04  0.12500000000E+03 0.  0.
         25    1    1    2    0    0  0.16828928599E+03  0.50012919597E+03 -0.62885057014E+03  0.83037854982E+03  0.12500000000E+03 0.  0.
</event>
<event>
 5    0  0.5612316E-005  0.4601103E+03  0.7546771E-02  0.1024749E+00
         21   -1    0    0  502  501  0.00000000000E+00  0.00000000000E+00  0.88366420832E+03  0.88366420832E+03  0.00000000000E+00 0.  1.
         21   -1    0    0  501  502 -0.00000000000E+00 -0.00000000000E+00 -0.23957233287E+03  0.23957233287E+03  0.00000000000E+00 0.  1.
         25    1    1    2    0    0 -0.38164889063E+02 -0.19768682181E+03  0.54361271811E+02  0.24313943767E+03  0.12500000000E+03 0.  0.
         25    1    1    2    0    0  0.72959530167E+02 -0.15382271448E+03  0.41714543450E+03  0.46756799939E+03  0.12500000000E+03 0.  0.
         25    1    1    2    0    0 -0.34794641104E+02  0.35150953629E+03  0.17258516914E+03  0.41252910413E+03  0.12500000000E+03 0.  0.
</event>
<event>
 5    0  0.5612316E-005  0.2426033E+03  0.7546771E-02  0.1118071E+00
         21   -1    0    0  502  501  0.00000000000E+00  0.00000000000E+00  0.82268475476E+02  0.82268475476E+02  0.00000000000E+00 0.  1.
         21   -1    0    0  501  502 -0.00000000000E+00 -0.00000000000E+00 -0.71541810127E+03  0.71541810127E+03  0.00000000000E+00 0.  1.
         25    1    1    2    0    0 -0.19820968024E+02 -0.66648265313E+02 -0.75858584964E+02  0.16190857592E+03  0.12500000000E+03 0.  0.
         25    1    1    2    0    0  0.21585893119E+01  0.32271219077E+02 -0.10960505083E+03  0.16936457202E+03  0.12500000000E+03 0.  0.
         25    1    1    2    0    0  0.17662378712E+02  0.34377046235E+02 -0.44768599000E+03  0.46641342881E+03  0.12500000000E+03 0.  0.
</event>
<event>
 5    0  0.5612316E-005  0.2560575E+03  0.7546771E-02  0.1109535E+00
         21   -1    0    0  502  501  0.00000000000E+00  0.00000000000E+00  0.44793977441E+02  0.44793977441E+02  0.00000000000E+00 0.  1.
         21   -1    0    0  501  502 -0.00000000000E+00 -0.00000000000E+00 -0.14637110976E+04  0.14637110976E+04  0.00000000000E+00 0.  1.
         25    1    1    2    0    0 -0.47962122542E+02  0.26041825079E+02 -0.30401666358E+03  0.33321115465E+03  0.12500000000E+03 0.  0.
         25    1    1    2    0    0  0.14203616389E+03  0.51463992434E+02 -0.54184342300E+03  0.57623095145E+03  0.12500000000E+03 0.  0.
         25    1    1    2    0    0 -0.94074041350E+02 -0.77505817513E+02 -0.57305703355E+03  0.59906296890E+03  0.12500000000E+03 0.  0.
</event>
<event>
 5    0  0.5612316E-005  0.8041713E+03  0.7546771E-02  0.9553999E-01
         21   -1    0    0  502  501  0.00000000000E+00  0.00000000000E+00  0.13009632664E+04  0.13009632664E+04  0.00000000000E+00 0.  1.
         21   -1    0    0  501  502 -0.00000000000E+00 -0.00000000000E+00 -0.49708669791E+03  0.49708669791E+03  0.00000000000E+00 0.  1.
         25    1    1    2    0    0  0.21044377810E+03  0.47002470386E+03  0.77702578316E+02  0.53560479522E+03  0.12500000000E+03 0.  0.
         25    1    1    2    0    0  0.30026991968E+03 -0.53862276123E+01  0.16970324978E+03  0.36689948092E+03  0.12500000000E+03 0.  0.
         25    1    1    2    0    0 -0.51071369778E+03 -0.46463847625E+03  0.55647074043E+03  0.89554568821E+03  0.12500000000E+03 0.  0.
</event>
<event>
 5    0  0.5612316E-005  0.3165709E+03  0.7546771E-02  0.1077238E+00
         21   -1    0    0  502  501  0.00000000000E+00  0.00000000000E+00  0.99269847538E+02  0.99269847538E+02  0.00000000000E+00 0. -1.
         21   -1    0    0  501  502 -0.00000000000E+00 -0.00000000000E+00 -0.10095427533E+04  0.10095427533E+04  0.00000000000E+00 0. -1.
         25    1    1    2    0    0 -0.89024780432E+01  0.47755615890E+01 -0.24603476052E+03  0.27615242800E+03  0.12500000000E+03 0.  0.
         25    1    1    2    0    0  0.23988899543E+01 -0.13280049966E+03 -0.44728691402E+02  0.18779612142E+03  0.12500000000E+03 0.  0.
         25    1    1    2    0    0  0.65035880888E+01  0.12802493808E+03 -0.61950945388E+03  0.64486405147E+03  0.12500000000E+03 0.  0.
</event>
<event>
 5    0  0.5612316E-005  0.3599519E+03  0.7546771E-02  0.1058603E+00
         21   -1    0    0  502  501  0.00000000000E+00  0.00000000000E+00  0.18694352368E+03  0.18694352368E+03  0.00000000000E+00 0.  1.
         21   -1    0    0  501  502 -0.00000000000E+00 -0.00000000000E+00 -0.69307241135E+03  0.69307241135E+03  0.00000000000E+00 0.  1.
         25    1    1    2    0    0 -0.29231652172E+02  0.14190602861E+03 -0.22605340118E+03  0.29617047562E+03  0.12500000000E+03 0.  0.
         25    1    1    2    0    0 -0.14687297711E+03 -0.73135291902E+02  0.20629300900E+02  0.20729450157E+03  0.12500000000E+03 0.  0.
         25    1    1    2    0    0  0.17610462928E+03 -0.68770736709E+02 -0.30070478739E+03  0.37655095783E+03  0.12500000000E+03 0.  0.
</event>
<event>
 5    0  0.5612316E-005  0.3401202E+03  0.7546771E-02  0.1066745E+00
         21   -1    0    0  502  501  0.00000000000E+00  0.00000000000E+00  0.57794322751E+03  0.57794322751E+03  0.00000000000E+00 0. -1.
         21   -1    0    0  501  502 -0.00000000000E+00 -0.00000000000E+00 -0.20016112183E+03  0.20016112183E+03  0.00000000000E+00 0. -1.
         25    1    1    2    0    0  0.14326453602E+03 -0.16603175342E+03  0.24692884518E+03  0.35311488924E+03  0.12500000000E+03 0.  0.
         25    1    1    2    0    0 -0.15119478025E+03  0.52056520154E+02 -0.12167693839E+02  0.20332927885E+03  0.12500000000E+03 0.  0.
         25    1    1    2    0    0  0.79302442314E+01  0.11397523327E+03  0.14302095434E+03  0.22166018125E+03  0.12500000000E+03 0.  0.
</event>
<event>
 5    0  0.5612316E-005  0.2556072E+03  0.7546771E-02  0.1109812E+00
         21   -1    0    0  502  501  0.00000000000E+00  0.00000000000E+00  0.19235610918E+03  0.19235610918E+03  0.00000000000E+00 0. -1.
         21   -1    0    0  501  502 -0.00000000000E+00 -0.00000000000E+00 -0.33965667015E+03  0.33965667015E+03  0.00000000000E+00 0. -1.
         25    1    1    2    0    0  0.77015599742E+02 -0.44212900146E+02 -0.54884376739E+01  0.15343176363E+03  0.12500000000E+03 0.  0.
         25    1    1    2    0    0 -0.93831062993E+02  0.10410416927E+03 -0.12394754381E+02  0.18820355039E+03  0.12500000000E+03 0.  0.
         25    1    1    2    0    0  0.16815463250E+02 -0.59891269128E+02 -0.12941736891E+03  0.19037746531E+03  0.12500000000E+03 0.  0.
</event>
<event>
 5    0  0.5612316E-005  0.3847143E+03  0.7546771E-02  0.1049205E+00
         21   -1    0    0  502  501  0.00000000000E+00  0.00000000000E+00  0.15793241376E+03  0.15793241376E+03  0.00000000000E+00 0.  1.
         21   -1    0    0  501  502 -0.00000000000E+00 -0.00000000000E+00 -0.93714216954E+03  0.93714216954E+03  0.00000000000E+00 0.  1.
         25    1    1    2    0    0  0.70445921564E+02  0.55838580675E+02 -0.38848926075E+03  0.41788692331E+03  0.12500000000E+03 0.  0.
         25    1    1    2    0    0  0.97623620163E+02  0.84697963980E+02 -0.38496650800E+03  0.42488625372E+03  0.12500000000E+03 0.  0.
         25    1    1    2    0    0 -0.16806954173E+03 -0.14053654466E+03 -0.57539870345E+01  0.25230140627E+03  0.12500000000E+03 0.  0.
</event>
<event>
 5    0  0.5612316E-005  0.2533307E+03  0.7546771E-02  0.1111218E+00
         21   -1    0    0  502  501  0.00000000000E+00  0.00000000000E+00  0.32525029470E+03  0.32525029470E+03  0.00000000000E+00 0.  1.
         21   -1    0    0  501  502 -0.00000000000E+00 -0.00000000000E+00 -0.19731396424E+03  0.19731396424E+03  0.00000000000E+00 0.  1.
         25    1    1    2    0    0  0.58712463776E+02 -0.12165457306E+03  0.19947178671E+02  0.18512125347E+03  0.12500000000E+03 0.  0.
         25    1    1    2    0    0 -0.65738279398E+02  0.10395098561E+03  0.67996582612E+01  0.17549519691E+03  0.12500000000E+03 0.  0.
         25    1    1    2    0    0  0.70258156214E+01  0.17703587453E+02  0.10118949354E+03  0.16194780855E+03  0.12500000000E+03 0.  0.
</event>
<event>
 5    0  0.5612316E-005  0.3317423E+03  0.7546771E-02  0.1070369E+00
         21   -1    0    0  502  501  0.00000000000E+00  0.00000000000E+00  0.14631646686E+03  0.14631646686E+03  0.00000000000E+00 0.  1.
         21   -1    0    0  501  502 -0.00000000000E+00 -0.00000000000E+00 -0.75215717690E+03  0.75215717690E+03  0.00000000000E+00 0.  1.
         25    1    1    2    0    0  0.71752778590E+02 -0.16009423474E+03 -0.42834421858E+03  0.47946052478E+03  0.12500000000E+03 0.  0.
         25    1    1    2    0    0 -0.14500840279E+03  0.64723252258E+02 -0.65076619781E+02  0.21231227639E+03  0.12500000000E+03 0.  0.
         25    1    1    2    0    0  0.73255624204E+02  0.95370982483E+02 -0.11241987168E+03  0.20670084259E+03  0.12500000000E+03 0.  0.
</event>
<event>
 5    0  0.5612316E-005  0.3947140E+03  0.7546771E-02  0.1045626E+00
         21   -1    0    0  502  501  0.00000000000E+00  0.00000000000E+00  0.65126417739E+03  0.65126417739E+03  0.00000000000E+00 0. -1.
         21   -1    0    0  501  502 -0.00000000000E+00 -0.00000000000E+00 -0.23922574956E+03  0.23922574956E+03  0.00000000000E+00 0. -1.
         25    1    1    2    0    0  0.29139780880E+03 -0.11250519654E+03  0.29377362048E+03  0.44665203717E+03  0.12500000000E+03 0.  0.
         25    1    1    2    0    0 -0.21928675960E+03  0.13474726835E+02  0.70080293272E+02  0.26230611641E+03  0.12500000000E+03 0.  0.
         25    1    1    2    0    0 -0.72111049197E+02  0.99030469702E+02  0.48184514085E+02  0.18153177337E+03  0.12500000000E+03 0.  0.
</event>
<event>
 5    0  0.5612316E-005  0.2561725E+03  0.7546771E-02  0.1109465E+00
         21   -1    0    0  502  501  0.00000000000E+00  0.00000000000E+00  0.28013971081E+02  0.28013971081E+02  0.00000000000E+00 0. -1.
         21   -1    0    0  501  502 -0.00000000000E+00 -0.00000000000E+00 -0.23425581775E+04  0.23425581775E+04  0.00000000000E+00 0. -1.
         25    1    1    2    0    0  0.15103693063E+03 -0.44472965009E+02 -0.83228653826E+03  0.85622186424E+03  0.12500000000E+03 0.  0.
         25    1    1    2    0    0 -0.61235511429E+02  0.62457839686E+02 -0.63785769330E+03  0.65584922543E+03  0.12500000000E+03 0.  0.
         25    1    1    2    0    0 -0.89801419205E+02 -0.17984874677E+02 -0.84439997485E+03  0.85850105890E+03  0.12500000000E+03 0.  0.
</event>
<event>
 5    0  0.5612316E-005  0.3581794E+03  0.7546771E-02  0.1059307E+00
         21   -1    0    0  502  501  0.00000000000E+00  0.00000000000E+00  0.64947435233E+02  0.64947435233E+02  0.00000000000E+00 0. -1.
         21   -1    0    0  501  502 -0.00000000000E+00 -0.00000000000E+00 -0.19753284723E+04  0.19753284723E+04  0.00000000000E+00 0. -1.
         25    1    1    2    0    0 -0.18617807078E+03 -0.11111603157E+03 -0.80250962728E+03  0.84062818677E+03  0.12500000000E+03 0.  0.
         25    1    1    2    0    0  0.25257188842E+03  0.35203051725E+02 -0.54835294647E+03  0.61753361656E+03  0.12500000000E+03 0.  0.
         25    1    1    2    0    0 -0.66393817644E+02  0.75912979841E+02 -0.55951846333E+03  0.58211410422E+03  0.12500000000E+03 0.  0.
</event>
<event>
 5    0  0.5612316E-005  0.2691962E+03  0.7546771E-02  0.1101741E+00
         21   -1    0    0  502  501  0.00000000000E+00  0.00000000000E+00  0.14118618841E+03  0.14118618841E+03  0.00000000000E+00 0.  1.
         21   -1    0    0  501  502 -0.00000000000E+00 -0.00000000000E+00 -0.51326968829E+03  0.51326968829E+03  0.00000000000E+00 0.  1.
         25    1    1    2    0    0  0.12883873982E+03 -0.48641121570E+02 -0.78259462488E+02  0.20177939204E+03  0.12500000000E+03 0.  0.
         25    1    1    2    0    0 -0.16208105670E+03  0.47189700916E+02 -0.21803367918E+03  0.30275538323E+03  0.12500000000E+03 0.  0.
         25    1    1    2    0    0  0.33242316887E+02  0.14514206540E+01 -0.75790358211E+02  0.14992110142E+03  0.12500000000E+03 0.  0.
</event>
<event>
 5    0  0.5612316E-005  0.2263628E+03  0.7546771E-02  0.1129226E+00
         21   -1    0    0  502  501  0.00000000000E+00  0.00000000000E+00  0.34720230078E+02  0.34720230078E+02  0.00000000000E+00 0. -1.
         21   -1    0    0  501  502 -0.00000000000E+00 -0.00000000000E+00 -0.14757996161E+04  0.14757996161E+04  0.00000000000E+00 0. -1.
         25    1    1    2    0    0 -0.52839420354E+02  0.57193550212E+02 -0.50133369427E+03  0.52251658303E+03  0.12500000000E+03 0.  0.
         25    1    1    2    0    0  0.68446863613E+02 -0.95771010199E+02 -0.58053828797E+03  0.60539802059E+03  0.12500000000E+03 0.  0.
         25    1    1    2    0    0 -0.15607443259E+02  0.38577459987E+02 -0.35920740378E+03  0.38260524256E+03  0.12500000000E+03 0.  0.
</event>
<event>
 5    0  0.5612316E-005  0.3616839E+03  0.7546771E-02  0.1057919E+00
         21   -1    0    0  502  501  0.00000000000E+00  0.00000000000E+00  0.83268090174E+03  0.83268090174E+03  0.00000000000E+00 0. -1.
         21   -1    0    0  501  502 -0.00000000000E+00 -0.00000000000E+00 -0.15710125244E+03  0.15710125244E+03  0.00000000000E+00 0. -1.
         25    1    1    2    0    0  0.19012754887E+03 -0.14588886314E+03  0.37837880246E+03  0.46500275631E+03  0.12500000000E+03 0.  0.
         25    1    1    2    0    0 -0.19908427187E+02  0.16366144254E+03  0.21239228798E+03  0.29650783673E+03  0.12500000000E+03 0.  0.
         25    1    1    2    0    0 -0.17021912169E+03 -0.17772579405E+02  0.84808558866E+02  0.22827156114E+03  0.12500000000E+03 0.  0.
</event>
<event>
 5    0  0.5612316E-005  0.2137709E+03  0.7546771E-02  0.1138614E+00
         21   -1    0    0  502  501  0.00000000000E+00  0.00000000000E+00  0.30886431036E+03  0.30886431036E+03  0.00000000000E+00 0.  1.
         21   -1    0    0  501  502 -0.00000000000E+00 -0.00000000000E+00 -0.14795497573E+03  0.14795497573E+03  0.00000000000E+00 0.  1.
         25    1    1    2    0    0 -0.69265019543E+02  0.14267407296E+02  0.11031210778E+03  0.18109379605E+03  0.12500000000E+03 0.  0.
         25    1    1    2    0    0  0.34513393134E+02  0.28696953808E+02  0.39704968235E+02  0.13862241509E+03  0.12500000000E+03 0.  0.
         25    1    1    2    0    0  0.34751626409E+02 -0.42964361105E+02  0.10892258618E+02  0.13710307495E+03  0.12500000000E+03 0.  0.
</event>
<event>
 5    0  0.6954289E-005  0.4169848E+03  0.7546771E-02  0.1038052E+00
         21   -1    0    0  502  501  0.00000000000E+00  0.00000000000E+00  0.60399603198E+03  0.60399603198E+03  0.00000000000E+00 0. -1.
         21   -1    0    0  501  502 -0.00000000000E+00 -0.00000000000E+00 -0.28787654729E+03  0.28787654729E+03  0.00000000000E+00 0. -1.
         25    1    1    2    0    0  0.23332766002E+02 -0.13926758453E+03 -0.95622005844E+02  0.21144371845E+03  0.12500000000E+03 0.  0.
         25    1    1    2    0    0  0.18917915829E+03  0.35788736831E+01  0.30360009619E+03  0.37894535315E+03  0.12500000000E+03 0.  0.
         25    1    1    2    0    0 -0.21251192430E+03  0.13568871085E+03  0.10814139435E+03  0.30148350766E+03  0.12500000000E+03 0.  0.
</event>
<event>
 5    0  0.5612316E-005  0.2322161E+03  0.7546771E-02  0.1125090E+00
         21   -1    0    0  502  501  0.00000000000E+00  0.00000000000E+00  0.40298376908E+03  0.40298376908E+03  0.00000000000E+00 0.  1.
         21   -1    0    0  501  502 -0.00000000000E+00 -0.00000000000E+00 -0.13381260706E+03  0.13381260706E+03  0.00000000000E+00 0.  1.
         25    1    1    2    0    0  0.30185452217E+02 -0.13003657953E+02  0.13784461688E+03  0.18896135861E+03  0.12500000000E+03 0.  0.
         25    1    1    2    0    0 -0.17764076233E+02 -0.88083148935E+02  0.10002307246E+03  0.18358599771E+03  0.12500000000E+03 0.  0.
         25    1    1    2    0    0 -0.12421375984E+02  0.10108680689E+03  0.31303472687E+02  0.16424901982E+03  0.12500000000E+03 0.  0.
</event>
<event>
 5    0  0.5612316E-005  0.3614276E+03  0.7546771E-02  0.1058020E+00
         21   -1    0    0  502  501  0.00000000000E+00  0.00000000000E+00  0.40518219255E+03  0.40518219255E+03  0.00000000000E+00 0.  1.
         21   -1    0    0  501  502 -0.00000000000E+00 -0.00000000000E+00 -0.32239801928E+03  0.32239801928E+03  0.00000000000E+00 0.  1.
         25    1    1    2    0    0  0.23753816638E+03 -0.10792706481E+03 -0.45086797468E+02  0.29279762825E+03  0.12500000000E+03 0.  0.
         25    1    1    2    0    0 -0.24559352558E+03  0.78335989319E+02  0.96496855208E+02  0.30230671527E+03  0.12500000000E+03 0.  0.
         25    1    1    2    0    0  0.80553592046E+01  0.29591075490E+02  0.31374115535E+02  0.13247586832E+03  0.12500000000E+03 0.  0.
</event>
<event>
 5    0  0.5612316E-005  0.4063709E+03  0.7546771E-02  0.1041596E+00
         21   -1    0    0  502  501  0.00000000000E+00  0.00000000000E+00  0.48065999326E+03  0.48065999326E+03  0.00000000000E+00 0.  1.
         21   -1    0    0  501  502 -0.00000000000E+00 -0.00000000000E+00 -0.34356373276E+03  0.34356373276E+03  0.00000000000E+00 0.  1.
         25    1    1    2    0    0 -0.12143538677E+03 -0.73845370374E+02  0.17658240320E+03  0.25885524334E+03  0.12500000000E+03 0.  0.
         25    1    1    2    0    0 -0.13911555834E+03  0.16846935285E+02  0.12730993810E+03  0.22686951788E+03  0.12500000000E+03 0.  0.
         25    1    1    2    0    0  0.26055094511E+03  0.56998435088E+02 -0.16679608080E+03  0.33849896480E+03  0.12500000000E+03 0.  0.
</event>
<event>
 5    0  0.5612316E-005  0.2679304E+03  0.7546771E-02  0.1102470E+00
         21   -1    0    0  502  501  0.00000000000E+00  0.00000000000E+00  0.11281146155E+03  0.11281146155E+03  0.00000000000E+00 0. -1.
         21   -1    0    0  501  502 -0.00000000000E+00 -0.00000000000E+00 -0.63634208814E+03  0.63634208814E+03  0.00000000000E+00 0. -1.
         25    1    1    2    0    0 -0.13917880259E+03  0.16648462753E+02 -0.24113045614E+03  0.30564163211E+03  0.12500000000E+03 0.  0.
         25    1    1    2    0    0  0.15874364927E+01 -0.68138734406E+02 -0.16400648545E+03  0.21718318155E+03  0.12500000000E+03 0.  0.
         25    1    1    2    0    0  0.13759136610E+03  0.51490271653E+02 -0.11839368501E+03  0.22632873603E+03  0.12500000000E+03 0.  0.
</event>
<event>
 5    0  0.5612316E-005  0.2286592E+03  0.7546771E-02  0.1127587E+00
         21   -1    0    0  502  501  0.00000000000E+00  0.00000000000E+00  0.10093539198E+03  0.10093539198E+03  0.00000000000E+00 0.  1.
         21   -1    0    0  501  502 -0.00000000000E+00 -0.00000000000E+00 -0.51800500059E+03  0.51800500059E+03  0.00000000000E+00 0.  1.
         25    1    1    2    0    0 -0.13896567369E+02 -0.13779059301E+02 -0.15822684217E+03  0.20259247430E+03  0.12500000000E+03 0.  0.
         25    1    1    2    0    0  0.46998434065E+02  0.84849109724E+02 -0.20571494606E+03  0.25952237525E+03  0.12500000000E+03 0.  0.
         25    1    1    2    0    0 -0.33101866696E+02 -0.71070050423E+02 -0.53127820382E+02  0.15682554302E+03  0.12500000000E+03 0.  0.
</event>
<event>
 5    0  0.5612316E-005  0.3928243E+03  0.7546771E-02  0.1046293E+00
         21   -1    0    0  502  501  0.00000000000E+00  0.00000000000E+00  0.11542519254E+03  0.11542519254E+03  0.00000000000E+00 0.  1.
         21   -1    0    0  501  502 -0.00000000000E+00 -0.00000000000E+00 -0.13368912723E+04  0.13368912723E+04  0.00000000000E+00 0.  1.
         25    1    1    2    0    0 -0.93817313919E+02 -0.72471857080E+02 -0.10216068291E+03  0.20028895025E+03  0.12500000000E+03 0.  0.
         25    1    1    2    0    0  0.25386994248E+02 -0.20059050059E+03 -0.63542472113E+03  0.67843247610E+03  0.12500000000E+03 0.  0.
         25    1    1    2    0    0  0.68430319671E+02  0.27306235767E+03 -0.48388067569E+03  0.57359503845E+03  0.12500000000E+03 0.  0.
</event>
<event>
 5    0  0.5612316E-005  0.2675400E+03  0.7546771E-02  0.1102696E+00
         21   -1    0    0  502  501  0.00000000000E+00  0.00000000000E+00  0.91390118682E+02  0.91390118682E+02  0.00000000000E+00 0.  1.
         21   -1    0    0  501  502 -0.00000000000E+00 -0.00000000000E+00 -0.78321009060E+03  0.78321009060E+03  0.00000000000E+00 0.  1.
         25    1    1    2    0    0 -0.62722788984E+02 -0.52272298574E+00 -0.10508294621E+03  0.17493383630E+03  0.12500000000E+03 0.  0.
         25    1    1    2    0    0  0.10109594723E+03  0.97709111525E+02 -0.17528284188E+03  0.25713135880E+03  0.12500000000E+03 0.  0.
         25    1    1    2    0    0 -0.38373158244E+02 -0.97186388540E+02 -0.41145418382E+03  0.44253501418E+03  0.12500000000E+03 0.  0.
</event>
<event>
 5    0  0.5612316E-005  0.3844313E+03  0.7546771E-02  0.1049308E+00
         21   -1    0    0  502  501  0.00000000000E+00  0.00000000000E+00  0.20166283200E+03  0.20166283200E+03  0.00000000000E+00 0.  1.
         21   -1    0    0  501  502 -0.00000000000E+00 -0.00000000000E+00 -0.73284422389E+03  0.73284422389E+03  0.00000000000E+00 0.  1.
         25    1    1    2    0    0 -0.15125513002E+03 -0.86830159271E+02  0.65365250990E+02  0.22431051458E+03  0.12500000000E+03 0.  0.
         25    1    1    2    0    0  0.65895022003E+02  0.11663727444E+03 -0.48883034429E+03  0.52204071988E+03  0.12500000000E+03 0.  0.
         25    1    1    2    0    0  0.85360108014E+02 -0.29807115166E+02 -0.10771629859E+03  0.18815582143E+03  0.12500000000E+03 0.  0.
</event>
<event>
 5    0  0.5612316E-005  0.3365853E+03  0.7546771E-02  0.1068260E+00
         21   -1    0    0  502  501  0.00000000000E+00  0.00000000000E+00  0.48215449735E+02  0.48215449735E+02  0.00000000000E+00 0. -1.
         21   -1    0    0  501  502 -0.00000000000E+00 -0.00000000000E+00 -0.23496554486E+04  0.23496554486E+04  0.00000000000E+00 0. -1.
         25    1    1    2    0    0 -0.11893007638E+03  0.33456322856E+02 -0.55698718153E+03  0.58405771033E+03  0.12500000000E+03 0.  0.
         25    1    1    2    0    0  0.13990786259E+03 -0.11320196350E+03 -0.36112713013E+03  0.42240584592E+03  0.12500000000E+03 0.  0.
         25    1    1    2    0    0 -0.20977786210E+02  0.79745640649E+02 -0.13833256872E+04  0.13914073420E+04  0.12500000000E+03 0.  0.
</event>
<event>
 5    0  0.5612316E-005  0.3035974E+03  0.7546771E-02  0.1083456E+00
         21   -1    0    0  502  501  0.00000000000E+00  0.00000000000E+00  0.21116002549E+03  0.21116002549E+03  0.00000000000E+00 0.  1.
         21   -1    0    0  501  502 -0.00000000000E+00 -0.00000000000E+00 -0.43650001706E+03  0.43650001706E+03  0.00000000000E+00 0.  1.
         25    1    1    2    0    0 -0.46665050213E+02 -0.97589293043E+02  0.11495599170E+02  0.16570590161E+03  0.12500000000E+03 0.  0.
         25    1    1    2    0    0 -0.52776967540E+02 -0.71865670602E+01  0.43545586375E+02  0.14268242058E+03  0.12500000000E+03 0.  0.
         25    1    1    2    0    0  0.99442017753E+02  0.10477586010E+03 -0.28038117711E+03  0.33927172036E+03  0.12500000000E+03 0.  0.
</event>
<event>
 5    0  0.5612316E-005  0.3119587E+03  0.7546771E-02  0.1079411E+00
         21   -1    0    0  502  501  0.00000000000E+00  0.00000000000E+00  0.25936314131E+03  0.25936314131E+03  0.00000000000E+00 0. -1.
         21   -1    0    0  501  502 -0.00000000000E+00 -0.00000000000E+00 -0.37521998764E+03  0.37521998764E+03  0.00000000000E+00 0. -1.
         25    1    1    2    0    0  0.41141580745E+02  0.29259506836E+02 -0.64896213471E+02  0.14961706764E+03  0.12500000000E+03 0.  0.
         25    1    1    2    0    0  0.17398619523E+03 -0.27022115911E+02  0.40829818547E+02  0.21975774152E+03  0.12500000000E+03 0.  0.
         25    1    1    2    0    0 -0.21512777597E+03 -0.22373909257E+01 -0.91790451404E+02  0.26520831978E+03  0.12500000000E+03 0.  0.
</event>
<event>
 5    0  0.5612316E-005  0.3845960E+03  0.7546771E-02  0.1049248E+00
         21   -1    0    0  502  501  0.00000000000E+00  0.00000000000E+00  0.99397363152E+03  0.99397363152E+03  0.00000000000E+00 0. -1.
         21   -1    0    0  501  502 -0.00000000000E+00 -0.00000000000E+00 -0.14881088519E+03  0.14881088519E+03  0.00000000000E+00 0. -1.
         25    1    1    2    0    0  0.10238050570E+03 -0.15425070865E+02  0.10398336701E+03  0.19276213677E+03  0.12500000000E+03 0.  0.
         25    1    1    2    0    0 -0.14660196996E+03 -0.15634006031E+03  0.90475941016E+02  0.26409325617E+03  0.12500000000E+03 0.  0.
         25    1    1    2    0    0  0.44221464258E+02  0.17176513117E+03  0.65070343831E+03  0.68592912376E+03  0.12500000000E+03 0.  0.
</event>
<event>
 5    0  0.5612316E-005  0.3120277E+03  0.7546771E-02  0.1079378E+00
         21   -1    0    0  502  501  0.00000000000E+00  0.00000000000E+00  0.15672022047E+04  0.15672022047E+04  0.00000000000E+00 0.  1.
         21   -1    0    0  501  502 -0.00000000000E+00 -0.00000000000E+00 -0.62124246684E+02  0.62124246684E+02  0.00000000000E+00 0.  1.
         25    1    1    2    0    0  0.17508109353E+03  0.10768054806E+03  0.67130948478E+03  0.71311283406E+03  0.12500000000E+03 0.  0.
         25    1    1    2    0    0 -0.81416972253E+02 -0.15459669854E+03  0.42790753561E+03  0.47880969247E+03  0.12500000000E+03 0.  0.
         25    1    1    2    0    0 -0.93664121280E+02  0.46916150487E+02  0.40586093766E+03  0.43740392489E+03  0.12500000000E+03 0.  0.
</event>
<event>
 5    0  0.5612316E-005  0.5053891E+03  0.7546771E-02  0.1012382E+00
         21   -1    0    0  502  501  0.00000000000E+00  0.00000000000E+00  0.92507192739E+02  0.92507192739E+02  0.00000000000E+00 0. -1.
         21   -1    0    0  501  502 -0.00000000000E+00 -0.00000000000E+00 -0.27610620031E+04  0.27610620031E+04  0.00000000000E+00 0. -1.
         25    1    1    2    0    0  0.21156790985E+03  0.17998265054E+03 -0.74376682689E+03  0.80372185970E+03  0.12500000000E+03 0.  0.
         25    1    1    2    0    0 -0.79257471916E+02 -0.21046013561E+03 -0.18190359060E+04  0.18371423033E+04  0.12500000000E+03 0.  0.
         25    1    1    2    0    0 -0.13231043793E+03  0.30477485067E+02 -0.10575207751E+03  0.21270503280E+03  0.12500000000E+03 0.  0.
</event>
<event>
 5    0  0.5612316E-005  0.4159830E+03  0.7546771E-02  0.1038382E+00
         21   -1    0    0  502  501  0.00000000000E+00  0.00000000000E+00  0.39324733318E+03  0.39324733318E+03  0.00000000000E+00 0. -1.
         21   -1    0    0  501  502 -0.00000000000E+00 -0.00000000000E+00 -0.44003306859E+03  0.44003306859E+03  0.00000000000E+00 0. -1.
         25    1    1    2    0    0 -0.23443831514E+03 -0.11007778476E+03 -0.10902497946E+03  0.30755469180E+03  0.12500000000E+03 0.  0.
         25    1    1    2    0    0  0.31162934583E+03  0.79920126213E+01  0.82038701210E+02  0.34573410295E+03  0.12500000000E+03 0.  0.
         25    1    1    2    0    0 -0.77191030689E+02  0.10208577214E+03 -0.19799457161E+02  0.17999160702E+03  0.12500000000E+03 0.  0.
</event>
<event>
 5    0  0.5612316E-005  0.3957945E+03  0.7546771E-02  0.1045246E+00
         21   -1    0    0  502  501  0.00000000000E+00  0.00000000000E+00  0.43763281471E+03  0.43763281471E+03  0.00000000000E+00 0. -1.
         21   -1    0    0  501  502 -0.00000000000E+00 -0.00000000000E+00 -0.35795596704E+03  0.35795596704E+03  0.00000000000E+00 0. -1.
         25    1    1    2    0    0  0.31507469468E+02 -0.33191234586E+02 -0.15388353332E+02  0.13400067203E+03  0.12500000000E+03 0.  0.
         25    1    1    2    0    0  0.12243002383E+03 -0.60194231976E+02 -0.21386513489E+03  0.28279984480E+03  0.12500000000E+03 0.  0.
         25    1    1    2    0    0 -0.15393749329E+03  0.93385466562E+02  0.30893033589E+03  0.37878826492E+03  0.12500000000E+03 0.  0.
</event>
<event>
 5    0  0.5612316E-005  0.4329484E+03  0.7546771E-02  0.1032933E+00
         21   -1    0    0  502  501  0.00000000000E+00  0.00000000000E+00  0.22305410466E+03  0.22305410466E+03  0.00000000000E+00 0. -1.
         21   -1    0    0  501  502 -0.00000000000E+00 -0.00000000000E+00 -0.84035374736E+03  0.84035374736E+03  0.00000000000E+00 0. -1.
         25    1    1    2    0    0 -0.33960115653E+02  0.20495736412E+03 -0.15469706999E+03  0.28760562238E+03  0.12500000000E+03 0.  0.
         25    1    1    2    0    0  0.75533192494E+02 -0.29304916122E+03 -0.46711428095E+02  0.33074163871E+03  0.12500000000E+03 0.  0.
         25    1    1    2    0    0 -0.41573076841E+02  0.88091797101E+02 -0.41589114461E+03  0.44506059093E+03  0.12500000000E+03 0.  0.
</event>
<event>
 5    0  0.5612316E-005  0.2278187E+03  0.7546771E-02  0.1128185E+00
         21   -1    0    0  502  501  0.00000000000E+00  0.00000000000E+00  0.62461655258E+03  0.62461655258E+03  0.00000000000E+00 0.  1.
         21   -1    0    0  501  502 -0.00000000000E+00 -0.00000000000E+00 -0.83093142552E+02  0.83093142552E+02  0.00000000000E+00 0.  1.
         25    1    1    2    0    0  0.94440100642E+02  0.63208866683E+01  0.22383584699E+03  0.27328807624E+03  0.12500000000E+03 0.  0.
         25    1    1    2    0    0  0.17913726599E+02 -0.15835356002E+02  0.15162633889E+03  0.19795758825E+03  0.12500000000E+03 0.  0.
         25    1    1    2    0    0 -0.11235382724E+03  0.95144693335E+01  0.16606122415E+03  0.23646403064E+03  0.12500000000E+03 0.  0.
</event>
<event>
 5    0  0.5612316E-005  0.2363339E+03  0.7546771E-02  0.1122259E+00
         21   -1    0    0  502  501  0.00000000000E+00  0.00000000000E+00  0.75160422024E+02  0.75160422024E+02  0.00000000000E+00 0. -1.
         21   -1    0    0  501  502 -0.00000000000E+00 -0.00000000000E+00 -0.74312666776E+03  0.74312666776E+03  0.00000000000E+00 0. -1.
         25    1    1    2    0    0 -0.11867152092E+03  0.65439968230E+01 -0.18294210616E+03  0.25143302882E+03  0.12500000000E+03 0.  0.
         25    1    1    2    0    0  0.16904246477E+02 -0.88206827973E+01 -0.26971910040E+03  0.29788748063E+03  0.12500000000E+03 0.  0.
         25    1    1    2    0    0  0.10176727444E+03  0.22766859743E+01 -0.21530503917E+03  0.26896658034E+03  0.12500000000E+03 0.  0.
</event>
<event>
 5    0  0.5612316E-005  0.2361268E+03  0.7546771E-02  0.1122400E+00
         21   -1    0    0  502  501  0.00000000000E+00  0.00000000000E+00  0.22296039960E+03  0.22296039960E+03  0.00000000000E+00 0.  1.
         21   -1    0    0  501  502 -0.00000000000E+00 -0.00000000000E+00 -0.25007065633E+03  0.25007065633E+03  0.00000000000E+00 0.  1.
         25    1    1    2    0    0  0.12776870244E+02  0.58711692446E+02  0.80269197283E+01  0.13892351379E+03  0.12500000000E+03 0.  0.
         25    1    1    2    0    0 -0.10651174776E+03 -0.57128223808E+02  0.35667211986E+00  0.17387786973E+03  0.12500000000E+03 0.  0.
         25    1    1    2    0    0  0.93734877513E+02 -0.15834686377E+01 -0.35493848582E+02  0.16022967242E+03  0.12500000000E+03 0.  0.
</event>
<event>
 5    0  0.5612316E-005  0.2168599E+03  0.7546771E-02  0.1136246E+00
         21   -1    0    0  502  501  0.00000000000E+00  0.00000000000E+00  0.47856345123E+03  0.47856345123E+03  0.00000000000E+00 0.  1.
         21   -1    0    0  501  502 -0.00000000000E+00 -0.00000000000E+00 -0.98269543808E+02  0.98269543808E+02  0.00000000000E+00 0.  1.
         25    1    1    2    0    0  0.72621319308E+02 -0.56266697809E+02  0.13087409751E+03  0.20296016038E+03  0.12500000000E+03 0.  0.
         25    1    1    2    0    0 -0.30961708157E+02  0.10240110164E+02  0.71194086079E+02  0.14750283089E+03  0.12500000000E+03 0.  0.
         25    1    1    2    0    0 -0.41659611151E+02  0.46026587645E+02  0.17822572383E+03  0.22637000377E+03  0.12500000000E+03 0.  0.
</event>
<event>
 5    0  0.5612316E-005  0.2617375E+03  0.7546771E-02  0.1106104E+00
         21   -1    0    0  502  501  0.00000000000E+00  0.00000000000E+00  0.18266318479E+03  0.18266318479E+03  0.00000000000E+00 0. -1.
         21   -1    0    0  501  502 -0.00000000000E+00 -0.00000000000E+00 -0.37504296868E+03  0.37504296868E+03  0.00000000000E+00 0. -1.
         25    1    1    2    0    0 -0.30359871886E+02 -0.79886398571E+02  0.68106068960E+02  0.16603311455E+03  0.12500000000E+03 0.  0.
         25    1    1    2    0    0  0.81537826542E+01 -0.22975500449E+02 -0.13548765315E+03  0.18594693315E+03  0.12500000000E+03 0.  0.
         25    1    1    2    0    0  0.22206089232E+02  0.10286189902E+03 -0.12499819969E+03  0.20572610577E+03  0.12500000000E+03 0.  0.
</event>
<event>
 5    0  0.5612316E-005  0.2856066E+03  0.7546771E-02  0.1092666E+00
         21   -1    0    0  502  501  0.00000000000E+00  0.00000000000E+00  0.21333994902E+03  0.21333994902E+03  0.00000000000E+00 0. -1.
         21   -1    0    0  501  502 -0.00000000000E+00 -0.00000000000E+00 -0.38235275352E+03  0.38235275352E+03  0.00000000000E+00 0. -1.
         25    1    1    2    0    0  0.11303852249E+03  0.19937425921E+02 -0.85961033337E+02  0.19023540094E+03  0.12500000000E+03 0.  0.
         25    1    1    2    0    0 -0.49566609583E+02 -0.15290007605E+03 -0.44906198692E+02  0.20851102782E+03  0.12500000000E+03 0.  0.
         25    1    1    2    0    0 -0.63471912902E+02  0.13296265013E+03 -0.38145572470E+02  0.19694627378E+03  0.12500000000E+03 0.  0.
</event>
<event>
 5    0  0.5612316E-005  0.2792821E+03  0.7546771E-02  0.1096082E+00
         21   -1    0    0  502  501  0.00000000000E+00  0.00000000000E+00  0.40709776382E+03  0.40709776382E+03  0.00000000000E+00 0.  1.
         21   -1    0    0  501  502 -0.00000000000E+00 -0.00000000000E+00 -0.19159648899E+03  0.19159648899E+03  0.00000000000E+00 0.  1.
         25    1    1    2    0    0  0.17419455058E+02  0.81843330149E+02  0.16972978007E+03  0.22679278283E+03  0.12500000000E+03 0.  0.
         25    1    1    2    0    0 -0.10221674961E+03  0.30761557169E+02 -0.33066438289E+02  0.16766909865E+03  0.12500000000E+03 0.  0.
         25    1    1    2    0    0  0.84797294553E+02 -0.11260488732E+03  0.78837933050E+02  0.20423237133E+03  0.12500000000E+03 0.  0.
</event>
<event>
 5    0  0.5612316E-005  0.3305500E+03  0.7546771E-02  0.1070894E+00
         21   -1    0    0  502  501  0.00000000000E+00  0.00000000000E+00  0.61705866092E+02  0.61705866092E+02  0.00000000000E+00 0.  1.
         21   -1    0    0  501  502 -0.00000000000E+00 -0.00000000000E+00 -0.17707112863E+04  0.17707112863E+04  0.00000000000E+00 0.  1.
         25    1    1    2    0    0  0.54183546645E+02 -0.37709520793E+02 -0.10615309978E+04  0.10709019208E+04  0.12500000000E+03 0.  0.
         25    1    1    2    0    0 -0.32220082969E+02  0.17242808504E+03 -0.33181964647E+03  0.39559936304E+03  0.12500000000E+03 0.  0.
         25    1    1    2    0    0 -0.21963463677E+02 -0.13471856425E+03 -0.31565477601E+03  0.36591586862E+03  0.12500000000E+03 0.  0.
</event>
<event>
 5    0  0.5612316E-005  0.2737037E+03  0.7546771E-02  0.1099178E+00
         21   -1    0    0  502  501  0.00000000000E+00  0.00000000000E+00  0.11918235260E+03  0.11918235260E+03  0.00000000000E+00 0. -1.
         21   -1    0    0  501  502 -0.00000000000E+00 -0.00000000000E+00 -0.62856382569E+03  0.62856382569E+03  0.00000000000E+00 0. -1.
         25    1    1    2    0    0 -0.94490544642E+01 -0.82193013920E+01  0.11661721514E+01  0.12563121230E+03  0.12500000000E+03 0.  0.
         25    1    1    2    0    0  0.26448473780E+02  0.12351875033E+03 -0.19923025248E+03  0.26697209021E+03  0.12500000000E+03 0.  0.
         25    1    1    2    0    0 -0.16999419316E+02 -0.11529944893E+03 -0.31131739276E+03  0.35514287578E+03  0.12500000000E+03 0.  0.
</event>
<event>
 5    0  0.5612316E-005  0.3122108E+03  0.7546771E-02  0.1079291E+00
         21   -1    0    0  502  501  0.00000000000E+00  0.00000000000E+00  0.35472434786E+03  0.35472434786E+03  0.00000000000E+00 0.  1.
         21   -1    0    0  501  502 -0.00000000000E+00 -0.00000000000E+00 -0.27479240266E+03  0.27479240266E+03  0.00000000000E+00 0.  1.
         25    1    1    2    0    0  0.78578012940E+02  0.62193203327E+02 -0.39480236703E+02  0.16500359920E+03  0.12500000000E+03 0.  0.
         25    1    1    2    0    0  0.40188602245E+00  0.10201933489E+03 -0.67687545975E+02  0.17497059777E+03  0.12500000000E+03 0.  0.
         25    1    1    2    0    0 -0.78979898962E+02 -0.16421253822E+03  0.18709972787E+03  0.28954255355E+03  0.12500000000E+03 0.  0.
</event>
<event>
 5    0  0.5612316E-005  0.3053099E+03  0.7546771E-02  0.1082616E+00
         21   -1    0    0  502  501  0.00000000000E+00  0.00000000000E+00  0.17355081881E+03  0.17355081881E+03  0.00000000000E+00 0. -1.
         21   -1    0    0  501  502 -0.00000000000E+00 -0.00000000000E+00 -0.53710010300E+03  0.53710010300E+03  0.00000000000E+00 0. -1.
         25    1    1    2    0    0 -0.10034208362E+03 -0.22828654191E+02 -0.19890575765E+03  0.25647257480E+03  0.12500000000E+03 0.  0.
         25    1    1    2    0    0 -0.84841789512E+02  0.69962893992E+02 -0.15208100566E+03  0.22549183592E+03  0.12500000000E+03 0.  0.
         25    1    1    2    0    0  0.18518387313E+03 -0.47134239800E+02 -0.12562520881E+02  0.22868651110E+03  0.12500000000E+03 0.  0.
</event>
<event>
 5    0  0.5612316E-005  0.2267898E+03  0.7546771E-02  0.1128920E+00
         21   -1    0    0  502  501  0.00000000000E+00  0.00000000000E+00  0.24399849431E+02  0.24399849431E+02  0.00000000000E+00 0. -1.
         21   -1    0    0  501  502 -0.00000000000E+00 -0.00000000000E+00 -0.21079474339E+04  0.21079474339E+04  0.00000000000E+00 0. -1.
         25    1    1    2    0    0 -0.13698564748E+01 -0.56063916627E+02 -0.42623776584E+03  0.44771494534E+03  0.12500000000E+03 0.  0.
         25    1    1    2    0    0  0.74707157466E+02  0.10358130683E+02 -0.67221113367E+03  0.68788171838E+03  0.12500000000E+03 0.  0.
         25    1    1    2    0    0 -0.73337300991E+02  0.45705785944E+02 -0.98509868491E+03  0.99675061956E+03  0.12500000000E+03 0.  0.
</event>
<event>
 5    0  0.5612316E-005  0.2682328E+03  0.7546771E-02  0.1102295E+00
         21   -1    0    0  502  501  0.00000000000E+00  0.00000000000E+00  0.35449325450E+02  0.35449325450E+02  0.00000000000E+00 0. -1.
         21   -1    0    0  501  502 -0.00000000000E+00 -0.00000000000E+00 -0.20296247403E+04  0.20296247403E+04  0.00000000000E+00 0. -1.
         25    1    1    2    0    0  0.46406963845E+02  0.19624783424E+02 -0.16071227565E+03  0.20974311422E+03  0.12500000000E+03 0.  0.
         25    1    1    2    0    0 -0.30418186077E+02 -0.53469354555E+02 -0.65413905253E+03  0.66881024063E+03  0.12500000000E+03 0.  0.
         25    1    1    2    0    0 -0.15988777768E+02  0.33844571131E+02 -0.11793240866E+04  0.11865207109E+04  0.12500000000E+03 0.  0.
</event>
<event>
 5    0  0.5612316E-005  0.2600040E+03  0.7546771E-02  0.1107141E+00
         21   -1    0    0  502  501  0.00000000000E+00  0.00000000000E+00  0.18632743374E+03  0.18632743374E+03  0.00000000000E+00 0. -1.
         21   -1    0    0  501  502 -0.00000000000E+00 -0.00000000000E+00 -0.36281333645E+03  0.36281333645E+03  0.00000000000E+00 0. -1.
         25    1    1    2    0    0  0.12599761986E+03 -0.42263215104E+02  0.20156585165E+02  0.18355616984E+03  0.12500000000E+03 0.  0.
         25    1    1    2    0    0 -0.11870716771E+03  0.33772775695E+02 -0.15226833695E+03  0.23247072607E+03  0.12500000000E+03 0.  0.
         25    1    1    2    0    0 -0.72904521484E+01  0.84904394088E+01 -0.44374150931E+02  0.13311387428E+03  0.12500000000E+03 0.  0.
</event>
<event>
 5    0  0.5612316E-005  0.2359078E+03  0.7546771E-02  0.1122549E+00
         21   -1    0    0  502  501  0.00000000000E+00  0.00000000000E+00  0.95955648052E+02  0.95955648052E+02  0.00000000000E+00 0. -1.
         21   -1    0    0  501  502 -0.00000000000E+00 -0.00000000000E+00 -0.57998149976E+03  0.57998149976E+03  0.00000000000E+00 0. -1.
         25    1    1    2    0    0  0.49381204495E+02  0.69978200027E+02 -0.20736348742E+03  0.25682692178E+03  0.12500000000E+03 0.  0.
         25    1    1    2    0    0  0.39266616710E+02 -0.53370666825E+02 -0.20511647670E+03  0.24917476653E+03  0.12500000000E+03 0.  0.
         25    1    1    2    0    0 -0.88647821206E+02 -0.16607533202E+02 -0.71545887596E+02  0.16993545950E+03  0.12500000000E+03 0.  0.
</event>
<event>
 5    0  0.5612316E-005  0.2820416E+03  0.7546771E-02  0.1094579E+00
         21   -1    0    0  502  501  0.00000000000E+00  0.00000000000E+00  0.28856234163E+03  0.28856234163E+03  0.00000000000E+00 0.  1.
         21   -1    0    0  501  502 -0.00000000000E+00 -0.00000000000E+00 -0.27566829823E+03  0.27566829823E+03  0.00000000000E+00 0.  1.
         25    1    1    2    0    0 -0.74744359361E+02  0.39760973319E+02  0.63798949238E+02  0.16389923789E+03  0.12500000000E+03 0.  0.
         25    1    1    2    0    0 -0.96527179970E+02 -0.62550762855E+02 -0.75057880292E+02  0.18571154999E+03  0.12500000000E+03 0.  0.
         25    1    1    2    0    0  0.17127153933E+03  0.22789789536E+02  0.24152974459E+02  0.21461985199E+03  0.12500000000E+03 0.  0.
</event>
<event>
 5    0  0.5612316E-005  0.3209450E+03  0.7546771E-02  0.1075215E+00
         21   -1    0    0  502  501  0.00000000000E+00  0.00000000000E+00  0.47957193776E+03  0.47957193776E+03  0.00000000000E+00 0.  1.
         21   -1    0    0  501  502 -0.00000000000E+00 -0.00000000000E+00 -0.21478668666E+03  0.21478668666E+03  0.00000000000E+00 0.  1.
         25    1    1    2    0    0 -0.11702171468E+03  0.94715741397E+02  0.25223819446E+03  0.31924012924E+03  0.12500000000E+03 0.  0.
         25    1    1    2    0    0 -0.41393282013E+01 -0.14661445195E+03  0.16533107331E+02  0.19341994519E+03  0.12500000000E+03 0.  0.
         25    1    1    2    0    0  0.12116104288E+03  0.51898710558E+02 -0.39860506933E+01  0.18169854999E+03  0.12500000000E+03 0.  0.
</event>
<event>
 5    0  0.5612316E-005  0.3700987E+03  0.7546771E-02  0.1054655E+00
         21   -1    0    0  502  501  0.00000000000E+00  0.00000000000E+00  0.16928678307E+03  0.16928678307E+03  0.00000000000E+00 0. -1.
         21   -1    0    0  501  502 -0.00000000000E+00 -0.00000000000E+00 -0.80911836012E+03  0.80911836012E+03  0.00000000000E+00 0. -1.
         25    1    1    2    0    0  0.15241146257E+03  0.17043376158E+03 -0.15269161752E+03  0.30202094476E+03  0.12500000000E+03 0.  0.
         25    1    1    2    0    0 -0.14248425449E+01  0.66130209845E+02 -0.68572113448E+02  0.15716987489E+03  0.12500000000E+03 0.  0.
         25    1    1    2    0    0 -0.15098662003E+03 -0.23656397143E+03 -0.41856784607E+03  0.51921432354E+03  0.12500000000E+03 0.  0.
</event>
<event>
 5    0  0.5612316E-005  0.3535350E+03  0.7546771E-02  0.1061173E+00
         21   -1    0    0  502  501  0.00000000000E+00  0.00000000000E+00  0.15280002543E+03  0.15280002543E+03  0.00000000000E+00 0.  1.
         21   -1    0    0  501  502 -0.00000000000E+00 -0.00000000000E+00 -0.81797770301E+03  0.81797770301E+03  0.00000000000E+00 0.  1.
         25    1    1    2    0    0  0.14307744955E+03  0.88905663870E+02 -0.59959890115E+03  0.63523162382E+03  0.12500000000E+03 0.  0.
         25    1    1    2    0    0 -0.12336819167E+03 -0.15416333431E+02 -0.28306192575E+01  0.17632466208E+03  0.12500000000E+03 0.  0.
         25    1    1    2    0    0 -0.19709257876E+02 -0.73489330439E+02 -0.62748157181E+02  0.15922144254E+03  0.12500000000E+03 0.  0.
</event>
<event>
 5    0  0.5612316E-005  0.3865167E+03  0.7546771E-02  0.1048551E+00
         21   -1    0    0  502  501  0.00000000000E+00  0.00000000000E+00  0.24205228490E+03  0.24205228490E+03  0.00000000000E+00 0. -1.
         21   -1    0    0  501  502 -0.00000000000E+00 -0.00000000000E+00 -0.61720208981E+03  0.61720208981E+03  0.00000000000E+00 0. -1.
         25    1    1    2    0    0 -0.62481521138E+02 -0.32295394742E+02 -0.67225594890E+02  0.15840206316E+03  0.12500000000E+03 0.  0.
         25    1    1    2    0    0 -0.25645867784E+03  0.31321530291E+02 -0.13858651073E+03  0.31872137151E+03  0.12500000000E+03 0.  0.
         25    1    1    2    0    0  0.31894019898E+03  0.97386445062E+00 -0.16933769929E+03  0.38213094004E+03  0.12500000000E+03 0.  0.
</event>
<event>
 5    0  0.5612316E-005  0.4142943E+03  0.7546771E-02  0.1038939E+00
         21   -1    0    0  502  501  0.00000000000E+00  0.00000000000E+00  0.16849425328E+03  0.16849425328E+03  0.00000000000E+00 0.  1.
         21   -1    0    0  501  502 -0.00000000000E+00 -0.00000000000E+00 -0.10186681428E+04  0.10186681428E+04  0.00000000000E+00 0.  1.
         25    1    1    2    0    0 -0.98308865548E+02  0.15432598105E+03 -0.39634289739E+03  0.45408571193E+03  0.12500000000E+03 0.  0.
         25    1    1    2    0    0 -0.10074913751E+03 -0.55276736077E+02  0.42505166479E+02  0.17503598326E+03  0.12500000000E+03 0.  0.
         25    1    1    2    0    0  0.19905800306E+03 -0.99049244969E+02 -0.49633615865E+03  0.55804070093E+03  0.12500000000E+03 0.  0.
</event>
<event>
 5    0  0.5612316E-005  0.2472056E+03  0.7546771E-02  0.1115084E+00
         21   -1    0    0  502  501  0.00000000000E+00  0.00000000000E+00  0.90150975908E+02  0.90150975908E+02  0.00000000000E+00 0.  1.
         21   -1    0    0  501  502 -0.00000000000E+00 -0.00000000000E+00 -0.67786943469E+03  0.67786943469E+03  0.00000000000E+00 0.  1.
         25    1    1    2    0    0  0.11334206690E+02 -0.50645826036E+02 -0.82534986698E+02  0.15852598514E+03  0.12500000000E+03 0.  0.
         25    1    1    2    0    0  0.98287333404E+02  0.22179678513E+02 -0.16746847729E+03  0.23199790717E+03  0.12500000000E+03 0.  0.
         25    1    1    2    0    0 -0.10962154009E+03  0.28466147523E+02 -0.33771499479E+03  0.37749651828E+03  0.12500000000E+03 0.  0.
</event>
<event>
 5    0  0.5612316E-005  0.3084588E+03  0.7546771E-02  0.1081087E+00
         21   -1    0    0  502  501  0.00000000000E+00  0.00000000000E+00  0.18196234343E+03  0.18196234343E+03  0.00000000000E+00 0.  1.
         21   -1    0    0  501  502 -0.00000000000E+00 -0.00000000000E+00 -0.52289290885E+03  0.52289290885E+03  0.00000000000E+00 0.  1.
         25    1    1    2    0    0 -0.61699604271E+02 -0.16214626125E+03 -0.22585286810E+03  0.31101892102E+03  0.12500000000E+03 0.  0.
         25    1    1    2    0    0 -0.13355405246E+02  0.41673141876E+02 -0.15149939292E+03  0.20122644871E+03  0.12500000000E+03 0.  0.
         25    1    1    2    0    0  0.75055009517E+02  0.12047311937E+03  0.36421695599E+02  0.19260988255E+03  0.12500000000E+03 0.  0.
</event>
<event>
 5    0  0.5612316E-005  0.3071466E+03  0.7546771E-02  0.1081722E+00
         21   -1    0    0  502  501  0.00000000000E+00  0.00000000000E+00  0.39620649501E+03  0.39620649501E+03  0.00000000000E+00 0. -1.
         21   -1    0    0  501  502 -0.00000000000E+00 -0.00000000000E+00 -0.23810578147E+03  0.23810578147E+03  0.00000000000E+00 0. -1.
         25    1    1    2    0    0 -0.51909018932E+02 -0.14988732126E+03  0.48524588529E+02  0.20770265047E+03  0.12500000000E+03 0.  0.
         25    1    1    2    0    0  0.15080454025E+03  0.13926956113E+03  0.14640512708E+02  0.24078489286E+03  0.12500000000E+03 0.  0.
         25    1    1    2    0    0 -0.98895521322E+02  0.10617760132E+02  0.94935612303E+02  0.18582473315E+03  0.12500000000E+03 0.  0.
</event>
<event>
 5    0  0.5612316E-005  0.2439026E+03  0.7546771E-02  0.1117220E+00
         21   -1    0    0  502  501  0.00000000000E+00  0.00000000000E+00  0.66471037383E+03  0.66471037383E+03  0.00000000000E+00 0. -1.
         21   -1    0    0  501  502 -0.00000000000E+00 -0.00000000000E+00 -0.89495359558E+02  0.89495359558E+02  0.00000000000E+00 0. -1.
         25    1    1    2    0    0 -0.78389582431E+02 -0.74102030238E+02  0.11946294126E+03  0.20379507318E+03  0.12500000000E+03 0.  0.
         25    1    1    2    0    0  0.74883002967E+02  0.87022318191E+02  0.18023789792E+03  0.24757028869E+03  0.12500000000E+03 0.  0.
         25    1    1    2    0    0  0.35065794646E+01 -0.12920287954E+02  0.27551417509E+03  0.30284037151E+03  0.12500000000E+03 0.  0.
</event>
<event>
 5    0  0.5612316E-005  0.2677584E+03  0.7546771E-02  0.1102569E+00
         21   -1    0    0  502  501  0.00000000000E+00  0.00000000000E+00  0.14513328212E+03  0.14513328212E+03  0.00000000000E+00 0. -1.
         21   -1    0    0  501  502 -0.00000000000E+00 -0.00000000000E+00 -0.49399102193E+03  0.49399102193E+03  0.00000000000E+00 0. -1.
         25    1    1    2    0    0  0.55151870494E+02  0.60626132015E+02 -0.25024768224E+03  0.29148955241E+03  0.12500000000E+03 0.  0.
         25    1    1    2    0    0  0.26502994497E+02 -0.81922978452E+02  0.23483463776E+02  0.15359119827E+03  0.12500000000E+03 0.  0.
         25    1    1    2    0    0 -0.81654864991E+02  0.21296846438E+02 -0.12209352135E+03  0.19404355336E+03  0.12500000000E+03 0.  0.
</event>
<event>
 5    0  0.5612316E-005  0.3354890E+03  0.7546771E-02  0.1068734E+00
         21   -1    0    0  502  501  0.00000000000E+00  0.00000000000E+00  0.12075001661E+03  0.12075001661E+03  0.00000000000E+00 0.  1.
         21   -1    0    0  501  502 -0.00000000000E+00 -0.00000000000E+00 -0.93211466818E+03  0.93211466818E+03  0.00000000000E+00 0.  1.
         25    1    1    2    0    0  0.27573603059E+02 -0.15235349959E+03 -0.84515978347E+02  0.21619399394E+03  0.12500000000E+03 0.  0.
         25    1    1    2    0    0 -0.14547601637E+03  0.52331791087E+02 -0.48112582646E+03  0.52058519820E+03  0.12500000000E+03 0.  0.
         25    1    1    2    0    0  0.11790241331E+03  0.10002170850E+03 -0.24572284677E+03  0.31608549264E+03  0.12500000000E+03 0.  0.
</event>
<event>
 5    0  0.5612316E-005  0.3644627E+03  0.7546771E-02  0.1056831E+00
         21   -1    0    0  502  501  0.00000000000E+00  0.00000000000E+00  0.29297437307E+03  0.29297437307E+03  0.00000000000E+00 0.  1.
         21   -1    0    0  501  502 -0.00000000000E+00 -0.00000000000E+00 -0.45339478915E+03  0.45339478915E+03  0.00000000000E+00 0.  1.
         25    1    1    2    0    0  0.10058937529E+03 -0.58153669268E+02  0.16452323855E+03  0.23705055936E+03  0.12500000000E+03 0.  0.
         25    1    1    2    0    0 -0.32802070093E+02  0.13854856702E+03 -0.28317530867E+03  0.34071239582E+03  0.12500000000E+03 0.  0.
         25    1    1    2    0    0 -0.67787305200E+02 -0.80394897749E+02 -0.41768345956E+02  0.16860620705E+03  0.12500000000E+03 0.  0.
</event>
<event>
 5    0  0.5612316E-005  0.3490155E+03  0.7546771E-02  0.1063020E+00
         21   -1    0    0  502  501  0.00000000000E+00  0.00000000000E+00  0.27362203975E+03  0.27362203975E+03  0.00000000000E+00 0.  1.
         21   -1    0    0  501  502 -0.00000000000E+00 -0.00000000000E+00 -0.44518289391E+03  0.44518289391E+03  0.00000000000E+00 0.  1.
         25    1    1    2    0    0 -0.17729099266E+03 -0.93578902963E+02 -0.22293805390E+03  0.32483146867E+03  0.12500000000E+03 0.  0.
         25    1    1    2    0    0  0.11143251641E+03  0.13308294072E+03 -0.44813131973E+02  0.21854402674E+03  0.12500000000E+03 0.  0.
         25    1    1    2    0    0  0.65858476245E+02 -0.39504037758E+02  0.96190331711E+02  0.17542943826E+03  0.12500000000E+03 0.  0.
</event>
<event>
 5    0  0.5612316E-005  0.2910538E+03  0.7546771E-02  0.1089800E+00
         21   -1    0    0  502  501  0.00000000000E+00  0.00000000000E+00  0.61153730654E+03  0.61153730654E+03  0.00000000000E+00 0. -1.
         21   -1    0    0  501  502 -0.00000000000E+00 -0.00000000000E+00 -0.13852357832E+03  0.13852357832E+03  0.00000000000E+00 0. -1.
         25    1    1    2    0    0  0.17444990763E+03  0.11779793173E+03  0.19313559781E+03  0.31182604467E+03  0.12500000000E+03 0.  0.
         25    1    1    2    0    0 -0.41106711353E+02 -0.59803636817E+02  0.10428813066E+03  0.17823369741E+03  0.12500000000E+03 0.  0.
         25    1    1    2    0    0 -0.13334319627E+03 -0.57994294915E+02  0.17558999975E+03  0.26000114278E+03  0.12500000000E+03 0.  0.
</event>
<event>
 5    0  0.5612316E-005  0.2278103E+03  0.7546771E-02  0.1128191E+00
         21   -1    0    0  502  501  0.00000000000E+00  0.00000000000E+00  0.47321746496E+02  0.47321746496E+02  0.00000000000E+00 0. -1.
         21   -1    0    0  501  502 -0.00000000000E+00 -0.00000000000E+00 -0.10966952491E+04  0.10966952491E+04  0.00000000000E+00 0. -1.
         25    1    1    2    0    0  0.29310357398E+02  0.50176297136E+02 -0.25407041746E+03  0.28905628322E+03  0.12500000000E+03 0.  0.
         25    1    1    2    0    0 -0.13478062716E+02  0.29518223647E+02 -0.17802478743E+03  0.21993364600E+03  0.12500000000E+03 0.  0.
         25    1    1    2    0    0 -0.15832294682E+02 -0.79694520783E+02 -0.61727829773E+03  0.63502706639E+03  0.12500000000E+03 0.  0.
</event>
<event>
 5    0  0.5612316E-005  0.2658208E+03  0.7546771E-02  0.1103696E+00
         21   -1    0    0  502  501  0.00000000000E+00  0.00000000000E+00  0.79014256665E+02  0.79014256665E+02  0.00000000000E+00 0. -1.
         21   -1    0    0  501  502 -0.00000000000E+00 -0.00000000000E+00 -0.89427797584E+03  0.89427797584E+03  0.00000000000E+00 0. -1.
         25    1    1    2    0    0 -0.92919379679E+02 -0.61267161301E+02 -0.23165136133E+03  0.28578843465E+03  0.12500000000E+03 0.  0.
         25    1    1    2    0    0  0.74169408698E+02  0.95072271390E+02 -0.13435619779E+03  0.21958238968E+03  0.12500000000E+03 0.  0.
         25    1    1    2    0    0  0.18749970981E+02 -0.33805110088E+02 -0.44925616005E+03  0.46792140817E+03  0.12500000000E+03 0.  0.
</event>
<event>
 5    0  0.5612316E-005  0.3680470E+03  0.7546771E-02  0.1055442E+00
         21   -1    0    0  502  501  0.00000000000E+00  0.00000000000E+00  0.47231834056E+03  0.47231834056E+03  0.00000000000E+00 0. -1.
         21   -1    0    0  501  502 -0.00000000000E+00 -0.00000000000E+00 -0.28679513304E+03  0.28679513304E+03  0.00000000000E+00 0. -1.
         25    1    1    2    0    0 -0.12265941718E+03  0.11170835606E+03 -0.10235649887E+03  0.23157275811E+03  0.12500000000E+03 0.  0.
         25    1    1    2    0    0  0.12836478644E+03 -0.12276394935E+02  0.31770907048E+03  0.36495517771E+03  0.12500000000E+03 0.  0.
         25    1    1    2    0    0 -0.57053692584E+01 -0.99431961125E+02 -0.29829364101E+02  0.16258553778E+03  0.12500000000E+03 0.  0.
</event>
<event>
 5    0  0.6004180E-005  0.3192732E+03  0.7546771E-02  0.1075984E+00
         21   -1    0    0  502  501  0.00000000000E+00  0.00000000000E+00  0.17744342437E+03  0.17744342437E+03  0.00000000000E+00 0.  1.
         21   -1    0    0  501  502 -0.00000000000E+00 -0.00000000000E+00 -0.57446676161E+03  0.57446676161E+03  0.00000000000E+00 0.  1.
         25    1    1    2    0    0  0.84541962334E+02 -0.77237779323E+02 -0.83879986587E+01  0.16973030511E+03  0.12500000000E+03 0.  0.
         25    1    1    2    0    0 -0.66078596321E+02  0.68144731581E+02  0.16386037428E+02  0.15780870558E+03  0.12500000000E+03 0.  0.
         25    1    1    2    0    0 -0.18463366013E+02  0.90930477417E+01 -0.40502137601E+03  0.42437117530E+03  0.12500000000E+03 0.  0.
</event>
<event>
 5    0  0.5612316E-005  0.3114045E+03  0.7546771E-02  0.1079675E+00
         21   -1    0    0  502  501  0.00000000000E+00  0.00000000000E+00  0.20813695156E+04  0.20813695156E+04  0.00000000000E+00 0. -1.
         21   -1    0    0  501  502 -0.00000000000E+00 -0.00000000000E+00 -0.46590842802E+02  0.46590842802E+02  0.00000000000E+00 0. -1.
         25    1    1    2    0    0  0.74748733360E+02  0.10528356660E+03  0.75579269176E+03  0.77686523635E+03  0.12500000000E+03 0.  0.
         25    1    1    2    0    0 -0.66417120461E+02  0.10107475191E+03  0.34432907120E+03  0.38576527661E+03  0.12500000000E+03 0.  0.
         25    1    1    2    0    0 -0.83316128993E+01 -0.20635831851E+03  0.93465690988E+03  0.96532984548E+03  0.12500000000E+03 0.  0.
</event>
<event>
 5    0  0.5612316E-005  0.2849778E+03  0.7546771E-02  0.1093001E+00
         21   -1    0    0  502  501  0.00000000000E+00  0.00000000000E+00  0.12657597450E+04  0.12657597450E+04  0.00000000000E+00 0.  1.
         21   -1    0    0  501  502 -0.00000000000E+00 -0.00000000000E+00 -0.64160950948E+02  0.64160950948E+02  0.00000000000E+00 0.  1.
         25    1    1    2    0    0  0.74221763339E+02  0.46420797810E+02  0.44265598301E+03  0.46822332270E+03  0.12500000000E+03 0.  0.
         25    1    1    2    0    0  0.35321896723E+02 -0.96582366745E+02  0.12528871716E+03  0.20469013802E+03  0.12500000000E+03 0.  0.
         25    1    1    2    0    0 -0.10954366006E+03  0.50161568935E+02  0.63365409387E+03  0.65700723522E+03  0.12500000000E+03 0.  0.
</event>
<event>
 5    0  0.6493237E-005  0.2805323E+03  0.7546771E-02  0.1095399E+00
         21   -1    0    0  502  501  0.00000000000E+00  0.00000000000E+00  0.59930187100E+03  0.59930187100E+03  0.00000000000E+00 0. -1.
         21   -1    0    0  501  502 -0.00000000000E+00 -0.00000000000E+00 -0.13131676276E+03  0.13131676276E+03  0.00000000000E+00 0. -1.
         25    1    1    2    0    0 -0.32925761607E+02  0.11389145393E+03  0.42684224401E+02  0.17748890689E+03  0.12500000000E+03 0.  0.
         25    1    1    2    0    0  0.62984851600E+00 -0.54441355936E+02  0.38036163658E+03  0.40405968931E+03  0.12500000000E+03 0.  0.
         25    1    1    2    0    0  0.32295913091E+02 -0.59450097990E+02  0.44939247257E+02  0.14907003756E+03  0.12500000000E+03 0.  0.
</event>
<event>
 5    0  0.5612316E-005  0.4468234E+03  0.7546771E-02  0.1028674E+00
         21   -1    0    0  502  501  0.00000000000E+00  0.00000000000E+00  0.11740357212E+04  0.11740357212E+04  0.00000000000E+00 0.  1.
         21   -1    0    0  501  502 -0.00000000000E+00 -0.00000000000E+00 -0.17005543508E+03  0.17005543508E+03  0.00000000000E+00 0.  1.
         25    1    1    2    0    0 -0.11309752461E+03  0.27144223986E+02  0.77792837525E+02  0.18762884783E+03  0.12500000000E+03 0.  0.
         25    1    1    2    0    0  0.23220227422E+03  0.14533222671E+03  0.84850902178E+03  0.90035099395E+03  0.12500000000E+03 0.  0.
         25    1    1    2    0    0 -0.11910474961E+03 -0.17247645069E+03  0.77678426815E+02  0.25611131450E+03  0.12500000000E+03 0.  0.
</event>
<event>
 5    0  0.5612316E-005  0.2877925E+03  0.7546771E-02  0.1091507E+00
         21   -1    0    0  502  501  0.00000000000E+00  0.00000000000E+00  0.15907309347E+03  0.15907309347E+03  0.00000000000E+00 0. -1.
         21   -1    0    0  501  502 -0.00000000000E+00 -0.00000000000E+00 -0.52066947580E+03  0.52066947580E+03  0.00000000000E+00 0. -1.
         25    1    1    2    0    0 -0.23128769197E+02 -0.21773729592E+02 -0.14705685594E+03  0.19560100752E+03  0.12500000000E+03 0.  0.
         25    1    1    2    0    0 -0.71746697763E+02  0.15642305111E+03 -0.46566919361E+02  0.21773662424E+03  0.12500000000E+03 0.  0.
         25    1    1    2    0    0  0.94875466959E+02 -0.13464932152E+03 -0.16797260702E+03  0.26640493750E+03  0.12500000000E+03 0.  0.
</event>
<event>
 5    0  0.5612316E-005  0.3735657E+03  0.7546771E-02  0.1053338E+00
         21   -1    0    0  502  501  0.00000000000E+00  0.00000000000E+00  0.76154838525E+03  0.76154838525E+03  0.00000000000E+00 0. -1.
         21   -1    0    0  501  502 -0.00000000000E+00 -0.00000000000E+00 -0.18324683604E+03  0.18324683604E+03  0.00000000000E+00 0. -1.
         25    1    1    2    0    0  0.41545544066E+02 -0.66797667264E+02  0.20098757421E+03  0.24941725195E+03  0.12500000000E+03 0.  0.
         25    1    1    2    0    0  0.21230702325E+02  0.13139237931E+03 -0.89822439738E+02  0.20348899415E+03  0.12500000000E+03 0.  0.
         25    1    1    2    0    0 -0.62776246391E+02 -0.64594712043E+02  0.46713641473E+03  0.49188897518E+03  0.12500000000E+03 0.  0.
</event>
